 vasp.5.3.5 31Mar14 (build Oct 24 2014 12:38:34) complex                        
  
 executed on             LinuxIFC date 2016.10.20  18:55:57
 running on    8 total cores
 distrk:  each k-point on    8 cores,    1 groups
 distr:  one band on NCORES_PER_BAND=   1 cores,    8 groups


--------------------------------------------------------------------------------------------------------


 INCAR:
 POTCAR:    PAW_PBE Ba_sv 06Sep2000               
 POTCAR:    PAW_PBE Ti_pv 07Sep2000               
 POTCAR:    PAW_PBE O 08Apr2002                   

 ----------------------------------------------------------------------------- 
|                                                                             |
|           W    W    AA    RRRRR   N    N  II  N    N   GGGG   !!!           |
|           W    W   A  A   R    R  NN   N  II  NN   N  G    G  !!!           |
|           W    W  A    A  R    R  N N  N  II  N N  N  G       !!!           |
|           W WW W  AAAAAA  RRRRR   N  N N  II  N  N N  G  GGG   !            |
|           WW  WW  A    A  R   R   N   NN  II  N   NN  G    G                |
|           W    W  A    A  R    R  N    N  II  N    N   GGGG   !!!           |
|                                                                             |
|      For optimal performance we recommend to set                            |
|        NCORE= 4 - approx SQRT( number of cores)                             |
|      NCORE specifies how many cores store one orbital (NPAR=cpu/NCORE).     |
|      This setting can  greatly improve the performance of VASP for DFT.     |
|      The default, NPAR=number of cores might be grossly inefficient         |
|      on modern multi-core architectures or massively parallel machines.     |
|      Do your own testing !!!!                                               |
|      Unfortunately you need to use the default for GW and RPA calculations. |
|      (for HF NCORE is supported but not extensively tested yet)             |
|                                                                             |
 ----------------------------------------------------------------------------- 

 POTCAR:    PAW_PBE Ba_sv 06Sep2000               
   VRHFIN =Ba: 5s5p6s                                                           
   LEXCH  = PE                                                                  
   EATOM  =   700.8560 eV,   51.5115 Ry                                         
                                                                                
   TITEL  = PAW_PBE Ba_sv 06Sep2000                                             
   LULTRA =        F    use ultrasoft PP ?                                      
   IUNSCR =        1    unscreen: 0-lin 1-nonlin 2-no                           
   RPACOR =    2.400    partial core radius                                     
   POMASS =  137.327; ZVAL   =   10.000    mass and valenz                      
   RCORE  =    2.800    outmost cutoff radius                                   
   RWIGS  =    3.740; RWIGS  =    1.979    wigner-seitz radius (au A)           
   ENMAX  =  187.181; ENMIN  =  140.386 eV                                      
   RCLOC  =    2.516    cutoff for local pot                                    
   LCOR   =        T    correct aug charges                                     
   LPAW   =        T    paw PP                                                  
   EAUG   =  351.165                                                            
   DEXC   =    0.000                                                            
   RMAX   =    2.865    core radius for proj-oper                               
   RAUG   =    1.300    factor for augmentation sphere                          
   RDEP   =    2.976    radius for radial grids                                 
   RDEPT  =    2.289    core radius for aug-charge                              
                                                                                
   Atomic configuration                                                         
   13 entries                                                                   
     n  l   j            E        occ.                                          
     1  0  0.50    -37249.5946   2.0000                                         
     2  0  0.50     -5887.1925   2.0000                                         
     2  1  1.50     -5278.3977   6.0000                                         
     3  0  0.50     -1242.7293   2.0000                                         
     3  1  1.50     -1047.6609   6.0000                                         
     3  2  2.50      -764.6158  10.0000                                         
     4  0  0.50      -243.8228   2.0000                                         
     4  1  1.50      -180.9218   6.0000                                         
     4  2  2.50       -89.6477  10.0000                                         
     5  0  0.50       -33.6549   2.0000                                         
     6  0  0.50        -3.2247   1.9900                                         
     5  1  1.50       -18.7193   6.0000                                         
     5  2  2.50        -2.0115   0.0100                                         
   Description                                                                  
     l       E           TYP  RCUT    TYP  RCUT                                 
     0    -33.6549039     23  2.800                                             
     0     -3.2246942     23  2.800                                             
     1    -18.7193050     23  2.700                                             
     1     27.2116520     23  2.700                                             
     2     -2.0115002     23  2.700                                             
     2      0.3057420     23  2.700                                             
  local pseudopotential read in
  partial core-charges read in
  partial kinetic energy density read in
  atomic valenz-charges read in
  non local Contribution for L=           0  read in
    real space projection operators read in
  non local Contribution for L=           0  read in
    real space projection operators read in
  non local Contribution for L=           1  read in
    real space projection operators read in
  non local Contribution for L=           1  read in
    real space projection operators read in
  non local Contribution for L=           2  read in
    real space projection operators read in
  non local Contribution for L=           2  read in
    real space projection operators read in
    PAW grid and wavefunctions read in
 
   number of l-projection  operators is LMAX  =           6
   number of lm-projection operators is LMMAX =          18
 
 POTCAR:    PAW_PBE Ti_pv 07Sep2000               
   VRHFIN =Ti: d3 s1                                                            
   LEXCH  = PE                                                                  
   EATOM  =  1042.5995 eV,   76.6289 Ry                                         
                                                                                
   TITEL  = PAW_PBE Ti_pv 07Sep2000                                             
   LULTRA =        F    use ultrasoft PP ?                                      
   IUNSCR =        1    unscreen: 0-lin 1-nonlin 2-no                           
   RPACOR =    2.200    partial core radius                                     
   POMASS =   47.880; ZVAL   =   10.000    mass and valenz                      
   RCORE  =    2.500    outmost cutoff radius                                   
   RWIGS  =    2.500; RWIGS  =    1.323    wigner-seitz radius (au A)           
   ENMAX  =  222.335; ENMIN  =  166.751 eV                                      
   RCLOC  =    1.701    cutoff for local pot                                    
   LCOR   =        T    correct aug charges                                     
   LPAW   =        T    paw PP                                                  
   EAUG   =  482.848                                                            
   DEXC   =    0.000                                                            
   RMAX   =    2.564    core radius for proj-oper                               
   RAUG   =    1.300    factor for augmentation sphere                          
   RDEP   =    2.538    radius for radial grids                                 
   RDEPT  =    1.952    core radius for aug-charge                              
                                                                                
   Atomic configuration                                                         
    8 entries                                                                   
     n  l   j            E        occ.                                          
     1  0  0.50     -4865.3608   2.0000                                         
     2  0  0.50      -533.1368   2.0000                                         
     2  1  1.50      -440.5031   6.0000                                         
     3  0  0.50       -59.3186   2.0000                                         
     3  1  1.50       -35.7012   6.0000                                         
     3  2  2.50        -1.9157   3.0000                                         
     4  0  0.50        -3.7291   1.0000                                         
     4  3  2.50        -1.3606   0.0000                                         
   Description                                                                  
     l       E           TYP  RCUT    TYP  RCUT                                 
     1    -35.7012140     23  2.300                                             
     1     -1.3605826     23  2.300                                             
     2     -1.9156996     23  2.500                                             
     2     -0.4063033     23  2.500                                             
     0     -3.7290856     23  2.500                                             
     0     20.4087390     23  2.500                                             
  local pseudopotential read in
  partial core-charges read in
  partial kinetic energy density read in
  atomic valenz-charges read in
  non local Contribution for L=           1  read in
    real space projection operators read in
  non local Contribution for L=           1  read in
    real space projection operators read in
  non local Contribution for L=           2  read in
    real space projection operators read in
  non local Contribution for L=           2  read in
    real space projection operators read in
  non local Contribution for L=           0  read in
    real space projection operators read in
  non local Contribution for L=           0  read in
    real space projection operators read in
    PAW grid and wavefunctions read in
 
   number of l-projection  operators is LMAX  =           6
   number of lm-projection operators is LMMAX =          18
 
 POTCAR:    PAW_PBE O 08Apr2002                   
   VRHFIN =O: s2p4                                                              
   LEXCH  = PE                                                                  
   EATOM  =   432.3788 eV,   31.7789 Ry                                         
                                                                                
   TITEL  = PAW_PBE O 08Apr2002                                                 
   LULTRA =        F    use ultrasoft PP ?                                      
   IUNSCR =        1    unscreen: 0-lin 1-nonlin 2-no                           
   RPACOR =    1.200    partial core radius                                     
   POMASS =   16.000; ZVAL   =    6.000    mass and valenz                      
   RCORE  =    1.520    outmost cutoff radius                                   
   RWIGS  =    1.550; RWIGS  =    0.820    wigner-seitz radius (au A)           
   ENMAX  =  400.000; ENMIN  =  300.000 eV                                      
   ICORE  =        2    local potential                                         
   LCOR   =        T    correct aug charges                                     
   LPAW   =        T    paw PP                                                  
   EAUG   =  605.392                                                            
   DEXC   =    0.000                                                            
   RMAX   =    1.553    core radius for proj-oper                               
   RAUG   =    1.300    factor for augmentation sphere                          
   RDEP   =    1.550    radius for radial grids                                 
   RDEPT  =    1.329    core radius for aug-charge                              
                                                                                
   Atomic configuration                                                         
    4 entries                                                                   
     n  l   j            E        occ.                                          
     1  0  0.50      -514.6923   2.0000                                         
     2  0  0.50       -23.9615   2.0000                                         
     2  1  0.50        -9.0305   4.0000                                         
     3  2  1.50        -9.5241   0.0000                                         
   Description                                                                  
     l       E           TYP  RCUT    TYP  RCUT                                 
     0    -23.9615318     23  1.200                                             
     0     -9.5240782     23  1.200                                             
     1     -9.0304911     23  1.520                                             
     1      8.1634956     23  1.520                                             
     2     -9.5240782      7  1.500                                             
  local pseudopotential read in
  partial core-charges read in
  partial kinetic energy density read in
  kinetic energy density of atom read in
  atomic valenz-charges read in
  non local Contribution for L=           0  read in
    real space projection operators read in
  non local Contribution for L=           0  read in
    real space projection operators read in
  non local Contribution for L=           1  read in
    real space projection operators read in
  non local Contribution for L=           1  read in
    real space projection operators read in
    PAW grid and wavefunctions read in
 
   number of l-projection  operators is LMAX  =           4
   number of lm-projection operators is LMMAX =           8
 

 ----------------------------------------------------------------------------- 
|                                                                             |
|  ADVICE TO THIS USER RUNNING 'VASP/VAMP'   (HEAR YOUR MASTER'S VOICE ...):  |
|                                                                             |
|      You have a (more or less) 'small supercell' and for smaller cells      |
|      it is recommended  to use the reciprocal-space projection scheme!      |
|      The real space optimization is not  efficient for small cells and it   |
|      is also less accurate ...                                              |
|      Therefore set LREAL=.FALSE. in the  INCAR file                         |
|                                                                             |
 ----------------------------------------------------------------------------- 

 Optimization of the real space projectors (new method)

 maximal supplied QI-value         = 13.42
 optimisation between [QCUT,QGAM] = [ 11.67, 23.35] = [ 38.16,152.62] Ry 
 Optimized for a Real-space Cutoff    1.68 Angstroem

   l    n(q)    QCUT    max X(q) W(low)/X(q) W(high)/X(q)  e(spline) 
   0     12    11.673    13.244    0.27E-04    0.53E-05    0.55E-07
   0     12    11.673    14.240    0.39E-04    0.74E-05    0.11E-06
   1     11    11.673     4.828    0.65E-05    0.14E-04    0.51E-07
   1     11    11.673     3.934    0.16E-04    0.58E-04    0.38E-06
   2     11    11.673    87.714    0.23E-03    0.16E-03    0.84E-06
   2     11    11.673    59.874    0.22E-03    0.15E-03    0.81E-06
 Optimization of the real space projectors (new method)

 maximal supplied QI-value         = 15.12
 optimisation between [QCUT,QGAM] = [ 11.64, 23.28] = [ 37.95,151.78] Ry 
 Optimized for a Real-space Cutoff    1.49 Angstroem

   l    n(q)    QCUT    max X(q) W(low)/X(q) W(high)/X(q)  e(spline) 
   1     10    11.641     4.216    0.17E-04    0.40E-04    0.50E-07
   1     10    11.641     5.422    0.66E-04    0.10E-03    0.13E-06
   2      9    11.641    72.084    0.68E-04    0.13E-03    0.50E-06
   2      9    11.641    65.965    0.66E-04    0.13E-03    0.50E-06
   0     10    11.641    41.531    0.10E-03    0.87E-04    0.31E-06
   0     10    11.641    16.290    0.75E-04    0.66E-04    0.24E-06
 Optimization of the real space projectors (new method)

 maximal supplied QI-value         = 24.76
 optimisation between [QCUT,QGAM] = [ 11.64, 23.27] = [ 37.91,151.63] Ry 
 Optimized for a Real-space Cutoff    1.14 Angstroem

   l    n(q)    QCUT    max X(q) W(low)/X(q) W(high)/X(q)  e(spline) 
   0      8    11.635    20.381    0.10E-03    0.33E-03    0.24E-06
   0      8    11.635    15.268    0.11E-03    0.35E-03    0.26E-06
   1      7    11.635     5.964    0.24E-03    0.31E-03    0.30E-06
   1      7    11.635     5.382    0.22E-03    0.25E-03    0.26E-06
  PAW_PBE Ba_sv 06Sep2000               :
 energy of atom  1       EATOM= -700.8560
 kinetic energy error for atom=    0.0005 (will be added to EATOM!!)
  PAW_PBE Ti_pv 07Sep2000               :
 energy of atom  2       EATOM=-1042.5995
 kinetic energy error for atom=    0.0019 (will be added to EATOM!!)
  PAW_PBE O 08Apr2002                   :
 energy of atom  3       EATOM= -432.3788
 kinetic energy error for atom=    0.0208 (will be added to EATOM!!)
 
 
 POSCAR: Ba1 Ti1 O3                              
  positions in direct lattice
  velocities in cartesian coordinates
 exchange correlation table for  LEXCH =        8
   RHO(1)=    0.500       N(1)  =     2000
   RHO(2)=  100.500       N(2)  =     4000
 


--------------------------------------------------------------------------------------------------------


 ion  position               nearest neighbor table
   1  0.000  0.000  0.020-   3 2.82   4 2.82   3 2.82   4 2.82   5 2.84   5 2.84   5 2.84   5 2.84
                             3 2.99   4 2.99   4 2.99   3 2.99   2 3.48   2 3.48   2 3.48   2 3.48
   2  0.500  0.500  0.539-   5 1.82   4 2.01   3 2.01   4 2.01   3 2.01   5 2.39   1 3.48   1 3.48
                             1 3.48   1 3.48   1 3.57   1 3.57   1 3.57   1 3.57
   3  0.000  0.500  0.492-   2 2.01   2 2.01   1 2.82   1 2.82   1 2.99   1 2.99
   4  0.500  0.000  0.492-   2 2.01   2 2.01   1 2.82   1 2.82   1 2.99   1 2.99
   5  0.500  0.500  0.971-   2 1.82   2 2.39   1 2.84   1 2.84   1 2.84   1 2.84
 
  LATTYP: Found a simple tetragonal cell.
 ALAT       =     3.9995960353
 C/A-ratio  =     1.0534967057
  
  Lattice vectors:
  
 A1 = (   3.9995960353,   0.0000000000,   0.0000000000)
 A2 = (   0.0000000000,   3.9995960353,   0.0000000000)
 A3 = (   0.0000000000,   0.0000000000,   4.2135612473)


Analysis of symmetry for initial positions (statically):
=====================================================================
 Subroutine PRICEL returns:
 Original cell was already a primitive cell.
 

 Routine SETGRP: Setting up the symmetry group for a 
 simple tetragonal supercell.


 Subroutine GETGRP returns: Found  8 space group operations
 (whereof  8 operations were pure point group operations)
 out of a pool of 16 trial point group operations.


The static configuration has the point symmetry C_4v.


Analysis of symmetry for dynamics (positions and initial velocities):
=====================================================================
 Subroutine PRICEL returns:
 Original cell was already a primitive cell.
 

 Routine SETGRP: Setting up the symmetry group for a 
 simple tetragonal supercell.


 Subroutine GETGRP returns: Found  8 space group operations
 (whereof  8 operations were pure point group operations)
 out of a pool of 16 trial point group operations.


The dynamic configuration has the point symmetry C_4v.


Analysis of magnetic symmetry:
=====================================================================
 Subroutine PRICEL returns:
 Original cell was already a primitive cell.
 

 Subroutine MAGSYM returns: Found  8 space group operations
 (whereof  8 operations were pure point group operations)
 out of a pool of  8 trial space group operations
 (whereof  8 operations were pure point group operations)
 and found also     1 'primitive' translations


The magnetic configuration has the point symmetry C_4v.
 
 
 KPOINTS: pymatgen generated KPOINTS with grid den

Automatic generation of k-mesh.
Space group operators:
 irot       det(A)        alpha          n_x          n_y          n_z        tau_x        tau_y        tau_z
    1     1.000000     0.000000     1.000000     0.000000     0.000000     0.000000     0.000000     0.000000
    2     1.000000    90.000000     0.000000     0.000000    -1.000000     0.000000     0.000000     0.000000
    3     1.000000   180.000000     0.000000     0.000000     1.000000     0.000000     0.000000     0.000000
    4     1.000000    90.000000     0.000000     0.000000     1.000000     0.000000     0.000000     0.000000
    5    -1.000000   179.999999     0.000000     1.000000     0.000000     0.000000     0.000000     0.000000
    6    -1.000000   180.000000     0.707107     0.707107     0.000000     0.000000     0.000000     0.000000
    7    -1.000000   180.000000     1.000000     0.000000     0.000000     0.000000     0.000000     0.000000
    8    -1.000000   180.000000     0.707107    -0.707107     0.000000     0.000000     0.000000     0.000000
 
 Subroutine IBZKPT returns following result:
 ===========================================
 
 Found     40 irreducible k-points:
 
 Following reciprocal coordinates:
            Coordinates               Weight
  0.000000  0.000000  0.000000      1.000000
  0.166667  0.000000  0.000000      4.000000
  0.333333  0.000000  0.000000      4.000000
  0.500000  0.000000  0.000000      2.000000
  0.166667  0.166667  0.000000      4.000000
  0.333333  0.166667  0.000000      8.000000
  0.500000  0.166667  0.000000      4.000000
  0.333333  0.333333  0.000000      4.000000
  0.500000  0.333333  0.000000      4.000000
  0.500000  0.500000  0.000000      1.000000
  0.000000  0.000000  0.166667      2.000000
  0.166667  0.000000  0.166667      8.000000
  0.333333  0.000000  0.166667      8.000000
  0.500000  0.000000  0.166667      4.000000
  0.166667  0.166667  0.166667      8.000000
  0.333333  0.166667  0.166667     16.000000
  0.500000  0.166667  0.166667      8.000000
  0.333333  0.333333  0.166667      8.000000
  0.500000  0.333333  0.166667      8.000000
  0.500000  0.500000  0.166667      2.000000
  0.000000  0.000000  0.333333      2.000000
  0.166667  0.000000  0.333333      8.000000
  0.333333  0.000000  0.333333      8.000000
  0.500000  0.000000  0.333333      4.000000
  0.166667  0.166667  0.333333      8.000000
  0.333333  0.166667  0.333333     16.000000
  0.500000  0.166667  0.333333      8.000000
  0.333333  0.333333  0.333333      8.000000
  0.500000  0.333333  0.333333      8.000000
  0.500000  0.500000  0.333333      2.000000
  0.000000  0.000000  0.500000      1.000000
  0.166667  0.000000  0.500000      4.000000
  0.333333  0.000000  0.500000      4.000000
  0.500000  0.000000  0.500000      2.000000
  0.166667  0.166667  0.500000      4.000000
  0.333333  0.166667  0.500000      8.000000
  0.500000  0.166667  0.500000      4.000000
  0.333333  0.333333  0.500000      4.000000
  0.500000  0.333333  0.500000      4.000000
  0.500000  0.500000  0.500000      1.000000
 
 Following cartesian coordinates:
            Coordinates               Weight
  0.000000  0.000000  0.000000      1.000000
  0.041671  0.000000  0.000000      4.000000
  0.083342  0.000000  0.000000      4.000000
  0.125013  0.000000  0.000000      2.000000
  0.041671  0.041671  0.000000      4.000000
  0.083342  0.041671  0.000000      8.000000
  0.125013  0.041671  0.000000      4.000000
  0.083342  0.083342  0.000000      4.000000
  0.125013  0.083342  0.000000      4.000000
  0.125013  0.125013  0.000000      1.000000
  0.000000  0.000000  0.039555      2.000000
  0.041671  0.000000  0.039555      8.000000
  0.083342  0.000000  0.039555      8.000000
  0.125013  0.000000  0.039555      4.000000
  0.041671  0.041671  0.039555      8.000000
  0.083342  0.041671  0.039555     16.000000
  0.125013  0.041671  0.039555      8.000000
  0.083342  0.083342  0.039555      8.000000
  0.125013  0.083342  0.039555      8.000000
  0.125013  0.125013  0.039555      2.000000
  0.000000  0.000000  0.079110      2.000000
  0.041671  0.000000  0.079110      8.000000
  0.083342  0.000000  0.079110      8.000000
  0.125013  0.000000  0.079110      4.000000
  0.041671  0.041671  0.079110      8.000000
  0.083342  0.041671  0.079110     16.000000
  0.125013  0.041671  0.079110      8.000000
  0.083342  0.083342  0.079110      8.000000
  0.125013  0.083342  0.079110      8.000000
  0.125013  0.125013  0.079110      2.000000
  0.000000  0.000000  0.118664      1.000000
  0.041671  0.000000  0.118664      4.000000
  0.083342  0.000000  0.118664      4.000000
  0.125013  0.000000  0.118664      2.000000
  0.041671  0.041671  0.118664      4.000000
  0.083342  0.041671  0.118664      8.000000
  0.125013  0.041671  0.118664      4.000000
  0.083342  0.083342  0.118664      4.000000
  0.125013  0.083342  0.118664      4.000000
  0.125013  0.125013  0.118664      1.000000
 
 TETIRR: Found    324 inequivalent tetrahedra from     1296


--------------------------------------------------------------------------------------------------------




 Dimension of arrays:
   k-points           NKPTS =     40   k-points in BZ     NKDIM =     40   number of bands    NBANDS=     32
   number of dos      NEDOS =    301   number of ions     NIONS =      5
   non local maximal  LDIM  =      6   non local SUM 2l+1 LMDIM =     18
   total plane-waves  NPLWV =  28800
   max r-space proj   IRMAX =   8476   max aug-charges    IRDMAX=  26943
   dimension x,y,z NGX =    30 NGY =   30 NGZ =   32
   dimension x,y,z NGXF=    60 NGYF=   60 NGZF=   64
   support grid    NGXF=    60 NGYF=   60 NGZF=   64
   ions per type =               1   1   3
 NGX,Y,Z   is equivalent  to a cutoff of  12.47, 12.47, 12.63 a.u.
 NGXF,Y,Z  is equivalent  to a cutoff of  24.94, 24.94, 25.25 a.u.


 I would recommend the setting:
   dimension x,y,z NGX =    30 NGY =   30 NGZ =   31
 SYSTEM =  unknown system                          
 POSCAR =  Ba1 Ti1 O3                              

 Startparameter for this run:
   NWRITE =      2    write-flag & timer
   PREC   = accura    normal or accurate (medium, high low for compatibility)
   ISTART =      0    job   : 0-new  1-cont  2-samecut
   ICHARG =      1    charge: 1-file 2-atom 10-const
   ISPIN  =      2    spin polarized calculation?
   LNONCOLLINEAR =      F non collinear calculations
   LSORBIT =      F    spin-orbit coupling
   INIWAV =      1    electr: 0-lowe 1-rand  2-diag
   LASPH  =      F    aspherical Exc in radial PAW
   METAGGA=      F    non-selfconsistent MetaGGA calc.

 Electronic Relaxation 1
   ENCUT  =  520.0 eV  38.22 Ry    6.18 a.u.   7.44  7.44  7.83*2*pi/ulx,y,z
   ENINI  =  520.0     initial cutoff
   ENAUG  =  605.4 eV  augmentation charge cutoff
   NELM   =    100;   NELMIN=  2; NELMDL=  0     # of ELM steps 
   EDIFF  = 0.3E-03   stopping-criterion for ELM
   LREAL  =      T    real-space projection
   NLSPLINE    = F    spline interpolate recip. space projectors
   LCOMPAT=      F    compatible to vasp.4.4
   GGA_COMPAT  = T    GGA compatible to vasp.4.4-vasp.4.6
   LMAXPAW     = -100 max onsite density
   LMAXMIX     =    2 max onsite mixed and CHGCAR
   VOSKOWN=      0    Vosko Wilk Nusair interpolation
   ROPT   =   -0.00025  -0.00025  -0.00025
 Ionic relaxation
   EDIFFG = 0.3E-02   stopping-criterion for IOM
   NSW    =     99    number of steps for IOM
   NBLOCK =      1;   KBLOCK =     99    inner block; outer block 
   IBRION =      2    ionic relax: 0-MD 1-quasi-New 2-CG
   NFREE  =      1    steps in history (QN), initial steepest desc. (CG)
   ISIF   =      3    stress and relaxation
   IWAVPR =     11    prediction:  0-non 1-charg 2-wave 3-comb
   ISYM   =      2    0-nonsym 1-usesym 2-fastsym
   LCORR  =      T    Harris-Foulkes like correction to forces

   POTIM  = 0.5000    time-step for ionic-motion
   TEIN   =    0.0    initial temperature
   TEBEG  =    0.0;   TEEND  =   0.0 temperature during run
   SMASS  =  -3.00    Nose mass-parameter (am)
   estimated Nose-frequenzy (Omega)   =  0.10E-29 period in steps =****** mass=  -0.366E-27a.u.
   SCALEE = 1.0000    scale energy and forces
   NPACO  =    256;   APACO  = 16.0  distance and # of slots for P.C.
   PSTRESS=    0.0 pullay stress

  Mass of Ions in am
   POMASS = 137.33 47.88 16.00
  Ionic Valenz
   ZVAL   =  10.00 10.00  6.00
  Atomic Wigner-Seitz radii
   RWIGS  =  -1.00 -1.00 -1.00
  virtual crystal weights 
   VCA    =   1.00  1.00  1.00
   NELECT =      38.0000    total number of electrons
   NUPDOWN=      -1.0000    fix difference up-down

 DOS related values:
   EMIN   =  10.00;   EMAX   =-10.00  energy-range for DOS
   EFERMI =   0.00
   ISMEAR =    -5;   SIGMA  =   0.05  broadening in eV -4-tet -1-fermi 0-gaus

 Electronic relaxation 2 (details)
   IALGO  =     68    algorithm
   LDIAG  =      T    sub-space diagonalisation (order eigenvalues)
   LSUBROT=      F    optimize rotation matrix (better conditioning)
   TURBO    =      0    0=normal 1=particle mesh
   IRESTART =      0    0=no restart 2=restart with 2 vectors
   NREBOOT  =      0    no. of reboots
   NMIN     =      0    reboot dimension
   EREF     =   0.00    reference energy to select bands
   IMIX   =      4    mixing-type and parameters
     AMIX     =   0.40;   BMIX     =  1.00
     AMIX_MAG =   1.60;   BMIX_MAG =  1.00
     AMIN     =   0.10
     WC   =   100.;   INIMIX=   1;  MIXPRE=   1;  MAXMIX= -45

 Intra band minimization:
   WEIMIN = 0.0010     energy-eigenvalue tresh-hold
   EBREAK =  0.20E-05  absolut break condition
   DEPER  =   0.30     relativ break condition  

   TIME   =   0.40     timestep for ELM

  volume/ion in A,a.u.               =      13.48        90.97
  Fermi-wavevector in a.u.,A,eV,Ry     =   1.352411  2.555687 24.885283  1.829017
  Thomas-Fermi vector in A             =   2.479752
 
 Write flags
   LWAVE  =      F    write WAVECAR
   LCHARG =      T    write CHGCAR
   LVTOT  =      F    write LOCPOT, total local potential
   LVHAR  =      F    write LOCPOT, Hartree potential only
   LELF   =      F    write electronic localiz. function (ELF)
   LORBIT =     11    0 simple, 1 ext, 2 COOP (PROOUT)


 Dipole corrections
   LMONO  =      F    monopole corrections only (constant potential shift)
   LDIPOL =      F    correct potential (dipole corrections)
   IDIPOL =      0    1-x, 2-y, 3-z, 4-all directions 
   EPSILON=  1.0000000 bulk dielectric constant

 Exchange correlation treatment:
   GGA     =    --    GGA type
   LEXCH   =     8    internal setting for exchange type
   VOSKOWN=      0    Vosko Wilk Nusair interpolation
   LHFCALC =     F    Hartree Fock is set to
   LHFONE  =     F    Hartree Fock one center treatment
   AEXX    =    0.0000 exact exchange contribution

 Linear response parameters
   LEPSILON=     F    determine dielectric tensor
   LRPA    =     F    only Hartree local field effects (RPA)
   LNABLA  =     F    use nabla operator in PAW spheres
   LVEL    =     F    velocity operator in full k-point grid
   LINTERFAST=   F  fast interpolation
   KINTER  =     0    interpolate to denser k-point grid
   CSHIFT  =0.1000    complex shift for real part using Kramers Kronig
   OMEGAMAX=  -1.0    maximum frequency
   DEG_THRESHOLD= 0.2000000E-02 threshold for treating states as degnerate
   RTIME   =    0.100 relaxation time in fs

 Orbital magnetization related:
   ORBITALMAG=     F  switch on orbital magnetization
   LCHIMAG   =     F  perturbation theory with respect to B field
   DQ        =  0.001000  dq finite difference perturbation B field



--------------------------------------------------------------------------------------------------------


 conjugate gradient relaxation of ions
 charge density and potential will be updated during run
 spin polarized calculation
 RMM-DIIS sequential band-by-band and
  variant of blocked Davidson during initial phase
 perform sub-space diagonalisation
    before iterative eigenvector-optimisation
 modified Broyden-mixing scheme, WC =      100.0
 initial mixing is a Kerker type mixing with AMIX =  0.4000 and BMIX =      1.0000
 Hartree-type preconditioning will be used
 using additional bands           13
 real space projection scheme for non local part
 use partial core corrections
 calculate Harris-corrections to forces 
   (improved forces if not selfconsistent)
 use gradient corrections 
 use of overlap-Matrix (Vanderbilt PP)
 Fermi weights with tetrahedron method with Bloechl corrections


--------------------------------------------------------------------------------------------------------


  energy-cutoff  :      520.00
  volume of cell :       67.40
      direct lattice vectors                 reciprocal lattice vectors
     3.999596035  0.000000000  0.000000000     0.250025250  0.000000000  0.000000000
     0.000000000  3.999596035  0.000000000     0.000000000  0.250025250  0.000000000
     0.000000000  0.000000000  4.213561247     0.000000000  0.000000000  0.237328934

  length of vectors
     3.999596035  3.999596035  4.213561247     0.250025250  0.250025250  0.237328934


 
 k-points in units of 2pi/SCALE and weight: pymatgen generated KPOINTS with grid den
   0.00000000  0.00000000  0.00000000       0.005
   0.04167088  0.00000000  0.00000000       0.019
   0.08334175  0.00000000  0.00000000       0.019
   0.12501263  0.00000000  0.00000000       0.009
   0.04167088  0.04167088  0.00000000       0.019
   0.08334175  0.04167088  0.00000000       0.037
   0.12501263  0.04167088  0.00000000       0.019
   0.08334175  0.08334175  0.00000000       0.019
   0.12501263  0.08334175  0.00000000       0.019
   0.12501263  0.12501263  0.00000000       0.005
   0.00000000  0.00000000  0.03955482       0.009
   0.04167088  0.00000000  0.03955482       0.037
   0.08334175  0.00000000  0.03955482       0.037
   0.12501263  0.00000000  0.03955482       0.019
   0.04167088  0.04167088  0.03955482       0.037
   0.08334175  0.04167088  0.03955482       0.074
   0.12501263  0.04167088  0.03955482       0.037
   0.08334175  0.08334175  0.03955482       0.037
   0.12501263  0.08334175  0.03955482       0.037
   0.12501263  0.12501263  0.03955482       0.009
   0.00000000  0.00000000  0.07910964       0.009
   0.04167088  0.00000000  0.07910964       0.037
   0.08334175  0.00000000  0.07910964       0.037
   0.12501263  0.00000000  0.07910964       0.019
   0.04167088  0.04167088  0.07910964       0.037
   0.08334175  0.04167088  0.07910964       0.074
   0.12501263  0.04167088  0.07910964       0.037
   0.08334175  0.08334175  0.07910964       0.037
   0.12501263  0.08334175  0.07910964       0.037
   0.12501263  0.12501263  0.07910964       0.009
   0.00000000  0.00000000  0.11866447       0.005
   0.04167088  0.00000000  0.11866447       0.019
   0.08334175  0.00000000  0.11866447       0.019
   0.12501263  0.00000000  0.11866447       0.009
   0.04167088  0.04167088  0.11866447       0.019
   0.08334175  0.04167088  0.11866447       0.037
   0.12501263  0.04167088  0.11866447       0.019
   0.08334175  0.08334175  0.11866447       0.019
   0.12501263  0.08334175  0.11866447       0.019
   0.12501263  0.12501263  0.11866447       0.005
 
 k-points in reciprocal lattice and weights: pymatgen generated KPOINTS with grid den
   0.00000000  0.00000000  0.00000000       0.005
   0.16666667  0.00000000  0.00000000       0.019
   0.33333333  0.00000000  0.00000000       0.019
   0.50000000  0.00000000  0.00000000       0.009
   0.16666667  0.16666667  0.00000000       0.019
   0.33333333  0.16666667  0.00000000       0.037
   0.50000000  0.16666667  0.00000000       0.019
   0.33333333  0.33333333  0.00000000       0.019
   0.50000000  0.33333333  0.00000000       0.019
   0.50000000  0.50000000  0.00000000       0.005
   0.00000000  0.00000000  0.16666667       0.009
   0.16666667  0.00000000  0.16666667       0.037
   0.33333333  0.00000000  0.16666667       0.037
   0.50000000  0.00000000  0.16666667       0.019
   0.16666667  0.16666667  0.16666667       0.037
   0.33333333  0.16666667  0.16666667       0.074
   0.50000000  0.16666667  0.16666667       0.037
   0.33333333  0.33333333  0.16666667       0.037
   0.50000000  0.33333333  0.16666667       0.037
   0.50000000  0.50000000  0.16666667       0.009
   0.00000000  0.00000000  0.33333333       0.009
   0.16666667  0.00000000  0.33333333       0.037
   0.33333333  0.00000000  0.33333333       0.037
   0.50000000  0.00000000  0.33333333       0.019
   0.16666667  0.16666667  0.33333333       0.037
   0.33333333  0.16666667  0.33333333       0.074
   0.50000000  0.16666667  0.33333333       0.037
   0.33333333  0.33333333  0.33333333       0.037
   0.50000000  0.33333333  0.33333333       0.037
   0.50000000  0.50000000  0.33333333       0.009
   0.00000000  0.00000000  0.50000000       0.005
   0.16666667  0.00000000  0.50000000       0.019
   0.33333333  0.00000000  0.50000000       0.019
   0.50000000  0.00000000  0.50000000       0.009
   0.16666667  0.16666667  0.50000000       0.019
   0.33333333  0.16666667  0.50000000       0.037
   0.50000000  0.16666667  0.50000000       0.019
   0.33333333  0.33333333  0.50000000       0.019
   0.50000000  0.33333333  0.50000000       0.019
   0.50000000  0.50000000  0.50000000       0.005
 
 position of ions in fractional coordinates (direct lattice) 
   0.00000000  0.00000000  0.02025324
   0.50000000  0.50000000  0.53893418
   0.00000000  0.50000000  0.49202229
   0.50000000  0.00000000  0.49202229
   0.50000000  0.50000000  0.97076701
 
 position of ions in cartesian coordinates  (Angst):
   0.00000000  0.00000000  0.08533826
   1.99979802  1.99979802  2.27083217
   0.00000000  1.99979802  2.07316604
   1.99979802  0.00000000  2.07316604
   1.99979802  1.99979802  4.09038625
 


--------------------------------------------------------------------------------------------------------


 k-point  1 :   0.0000 0.0000 0.0000  plane waves:    1815
 k-point  2 :   0.1667 0.0000 0.0000  plane waves:    1823
 k-point  3 :   0.3333 0.0000 0.0000  plane waves:    1817
 k-point  4 :   0.5000 0.0000 0.0000  plane waves:    1818
 k-point  5 :   0.1667 0.1667 0.0000  plane waves:    1811
 k-point  6 :   0.3333 0.1667 0.0000  plane waves:    1815
 k-point  7 :   0.5000 0.1667 0.0000  plane waves:    1824
 k-point  8 :   0.3333 0.3333 0.0000  plane waves:    1818
 k-point  9 :   0.5000 0.3333 0.0000  plane waves:    1798
 k-point 10 :   0.5000 0.5000 0.0000  plane waves:    1812
 k-point 11 :   0.0000 0.0000 0.1667  plane waves:    1828
 k-point 12 :   0.1667 0.0000 0.1667  plane waves:    1818
 k-point 13 :   0.3333 0.0000 0.1667  plane waves:    1805
 k-point 14 :   0.5000 0.0000 0.1667  plane waves:    1804
 k-point 15 :   0.1667 0.1667 0.1667  plane waves:    1811
 k-point 16 :   0.3333 0.1667 0.1667  plane waves:    1811
 k-point 17 :   0.5000 0.1667 0.1667  plane waves:    1810
 k-point 18 :   0.3333 0.3333 0.1667  plane waves:    1822
 k-point 19 :   0.5000 0.3333 0.1667  plane waves:    1804
 k-point 20 :   0.5000 0.5000 0.1667  plane waves:    1808
 k-point 21 :   0.0000 0.0000 0.3333  plane waves:    1840
 k-point 22 :   0.1667 0.0000 0.3333  plane waves:    1827
 k-point 23 :   0.3333 0.0000 0.3333  plane waves:    1817
 k-point 24 :   0.5000 0.0000 0.3333  plane waves:    1798
 k-point 25 :   0.1667 0.1667 0.3333  plane waves:    1829
 k-point 26 :   0.3333 0.1667 0.3333  plane waves:    1817
 k-point 27 :   0.5000 0.1667 0.3333  plane waves:    1814
 k-point 28 :   0.3333 0.3333 0.3333  plane waves:    1811
 k-point 29 :   0.5000 0.3333 0.3333  plane waves:    1812
 k-point 30 :   0.5000 0.5000 0.3333  plane waves:    1812
 k-point 31 :   0.0000 0.0000 0.5000  plane waves:    1840
 k-point 32 :   0.1667 0.0000 0.5000  plane waves:    1824
 k-point 33 :   0.3333 0.0000 0.5000  plane waves:    1828
 k-point 34 :   0.5000 0.0000 0.5000  plane waves:    1804
 k-point 35 :   0.1667 0.1667 0.5000  plane waves:    1818
 k-point 36 :   0.3333 0.1667 0.5000  plane waves:    1814
 k-point 37 :   0.5000 0.1667 0.5000  plane waves:    1808
 k-point 38 :   0.3333 0.3333 0.5000  plane waves:    1798
 k-point 39 :   0.5000 0.3333 0.5000  plane waves:    1808
 k-point 40 :   0.5000 0.5000 0.5000  plane waves:    1816

 maximum and minimum number of plane-waves per node :      1840     1798

 maximum number of plane-waves:      1840
 maximum index in each direction: 
   IXMAX=    7   IYMAX=    7   IZMAX=    7
   IXMIN=   -7   IYMIN=   -7   IZMIN=   -8

 NGX is ok and might be reduce to  30
 NGY is ok and might be reduce to  30
 NGZ is ok and might be reduce to  32

 serial   3D FFT for wavefunctions
 parallel 3D FFT for charge:
    minimum data exchange during FFTs selected (reduces bandwidth)


 total amount of memory used by VASP on root node    49630. kBytes
========================================================================

   base      :      30000. kBytes
   nonlr-proj:       3460. kBytes
   fftplans  :       1162. kBytes
   grid      :       5105. kBytes
   one-center:        155. kBytes
   wavefun   :       9748. kBytes
 
     INWAV:  cpu time    0.00: real time    0.00
 Broyden mixing: mesh for mixing (old mesh)
   NGX = 15   NGY = 15   NGZ = 15
  (NGX  = 60   NGY  = 60   NGZ  = 64)
  gives a total of   3375 points

 initial charge density was supplied:
 number of electron      37.9999981 magnetization       0.0000000
 keeping initial charge density in first step


--------------------------------------------------------------------------------------------------------


 Maximum index for non-local projection operator         8177
 Maximum index for augmentation-charges         3792 (set IRDMAX)


--------------------------------------------------------------------------------------------------------


 First call to EWALD:  gamma=   0.436
 Maximum number of real-space cells 3x 3x 3
 Maximum number of reciprocal cells 3x 3x 3

 FEWALD executed in parallel
    FEWALD:  cpu time    0.00: real time    0.00


----------------------------------------- Iteration    1(   1)  ---------------------------------------


    POTLOK:  cpu time    0.09: real time    0.09
    SETDIJ:  cpu time    0.02: real time    0.02
     EDDAV:  cpu time    8.55: real time    8.58
 BZINTS: Fermi energy: 16.900712; 38.000000 electrons
         Band energy:  49.113925;  BLOECHL correction: -0.175177
       DOS:  cpu time    0.06: real time    0.06
    --------------------------------------------
      LOOP:  cpu time    8.72: real time    8.74

 eigenvalue-minimisations  :  5120
 total energy-change (2. order) : 0.3437272E+03  (-0.1896398E+04)
 number of electron      37.9999981 magnetization       0.0000000
 augmentation part       37.9999981 magnetization       0.0000000

 Free energy of the ion-electron system (eV)
  ---------------------------------------------------
  alpha Z        PSCENC =       248.59648671
  Ewald energy   TEWEN  =     -2471.33680366
  -Hartree energ DENC   =      -660.49238387
  -exchange      EXHF   =         0.00000000
  -V(xc)+E(xc)   XCENC  =       146.56018586
  PAW double counting   =      3656.79466687    -3666.03589653
  entropy T*S    EENTRO =         0.00000000
  eigenvalues    EBANDS =        49.11392452
  atomic energy  EATOM  =      3040.52701931
  ---------------------------------------------------
  free energy    TOTEN  =       343.72719921 eV

  energy without entropy =      343.72719921  energy(sigma->0) =      343.72719921


--------------------------------------------------------------------------------------------------------




----------------------------------------- Iteration    1(   2)  ---------------------------------------


     EDDAV:  cpu time    9.62: real time    9.62
 BZINTS: Fermi energy:  5.194067; 38.000000 electrons
         Band energy:-307.747333;  BLOECHL correction:  0.000000
       DOS:  cpu time    0.01: real time    0.01
    --------------------------------------------
      LOOP:  cpu time    9.63: real time    9.64

 eigenvalue-minimisations  :  5560
 total energy-change (2. order) :-0.3568613E+03  (-0.3344287E+03)
 number of electron      37.9999981 magnetization       0.0000000
 augmentation part       37.9999981 magnetization       0.0000000

 Free energy of the ion-electron system (eV)
  ---------------------------------------------------
  alpha Z        PSCENC =       248.59648671
  Ewald energy   TEWEN  =     -2471.33680366
  -Hartree energ DENC   =      -660.49238387
  -exchange      EXHF   =         0.00000000
  -V(xc)+E(xc)   XCENC  =       146.56018586
  PAW double counting   =      3656.79466687    -3666.03589653
  entropy T*S    EENTRO =         0.00000000
  eigenvalues    EBANDS =      -307.74733323
  atomic energy  EATOM  =      3040.52701931
  ---------------------------------------------------
  free energy    TOTEN  =       -13.13405854 eV

  energy without entropy =      -13.13405854  energy(sigma->0) =      -13.13405854


--------------------------------------------------------------------------------------------------------




----------------------------------------- Iteration    1(   3)  ---------------------------------------


     EDDAV:  cpu time   10.05: real time   10.06
 BZINTS: Fermi energy:  3.197082; 38.000000 electrons
         Band energy:-333.976266;  BLOECHL correction:  0.000000
       DOS:  cpu time    0.01: real time    0.01
    --------------------------------------------
      LOOP:  cpu time   10.06: real time   10.08

 eigenvalue-minimisations  :  6168
 total energy-change (2. order) :-0.2622893E+02  (-0.2574859E+02)
 number of electron      37.9999981 magnetization       0.0000000
 augmentation part       37.9999981 magnetization       0.0000000

 Free energy of the ion-electron system (eV)
  ---------------------------------------------------
  alpha Z        PSCENC =       248.59648671
  Ewald energy   TEWEN  =     -2471.33680366
  -Hartree energ DENC   =      -660.49238387
  -exchange      EXHF   =         0.00000000
  -V(xc)+E(xc)   XCENC  =       146.56018586
  PAW double counting   =      3656.79466687    -3666.03589653
  entropy T*S    EENTRO =         0.00000000
  eigenvalues    EBANDS =      -333.97626609
  atomic energy  EATOM  =      3040.52701931
  ---------------------------------------------------
  free energy    TOTEN  =       -39.36299140 eV

  energy without entropy =      -39.36299140  energy(sigma->0) =      -39.36299140


--------------------------------------------------------------------------------------------------------




----------------------------------------- Iteration    1(   4)  ---------------------------------------


     EDDAV:  cpu time   10.37: real time   10.39
 BZINTS: Fermi energy:  3.082071; 38.000000 electrons
         Band energy:-334.546740;  BLOECHL correction:  0.000000
       DOS:  cpu time    0.01: real time    0.01
    --------------------------------------------
      LOOP:  cpu time   10.38: real time   10.40

 eigenvalue-minimisations  :  6432
 total energy-change (2. order) :-0.5704737E+00  (-0.5691269E+00)
 number of electron      37.9999981 magnetization       0.0000000
 augmentation part       37.9999981 magnetization       0.0000000

 Free energy of the ion-electron system (eV)
  ---------------------------------------------------
  alpha Z        PSCENC =       248.59648671
  Ewald energy   TEWEN  =     -2471.33680366
  -Hartree energ DENC   =      -660.49238387
  -exchange      EXHF   =         0.00000000
  -V(xc)+E(xc)   XCENC  =       146.56018586
  PAW double counting   =      3656.79466687    -3666.03589653
  entropy T*S    EENTRO =         0.00000000
  eigenvalues    EBANDS =      -334.54673981
  atomic energy  EATOM  =      3040.52701931
  ---------------------------------------------------
  free energy    TOTEN  =       -39.93346512 eV

  energy without entropy =      -39.93346512  energy(sigma->0) =      -39.93346512


--------------------------------------------------------------------------------------------------------




----------------------------------------- Iteration    1(   5)  ---------------------------------------


     EDDAV:  cpu time   10.05: real time   10.07
 BZINTS: Fermi energy:  3.058309; 38.000000 electrons
         Band energy:-334.558701;  BLOECHL correction:  0.000000
       DOS:  cpu time    0.01: real time    0.01
    CHARGE:  cpu time    0.46: real time    0.46
    MIXING:  cpu time    0.00: real time    0.00
    --------------------------------------------
      LOOP:  cpu time   10.53: real time   10.55

 eigenvalue-minimisations  :  6200
 total energy-change (2. order) :-0.1196158E-01  (-0.1196058E-01)
 number of electron      37.9999981 magnetization      -0.0000000
 augmentation part        4.8219735 magnetization      -0.0002575

 Broyden mixing:
  rms(total) = 0.38761E-02    rms(broyden)= 0.38742E-02
  rms(prec ) = 0.67675E-02
  weight for this iteration     100.00

 Free energy of the ion-electron system (eV)
  ---------------------------------------------------
  alpha Z        PSCENC =       248.59648671
  Ewald energy   TEWEN  =     -2471.33680366
  -Hartree energ DENC   =      -660.49238387
  -exchange      EXHF   =         0.00000000
  -V(xc)+E(xc)   XCENC  =       146.56018586
  PAW double counting   =      3656.79466687    -3666.03589653
  entropy T*S    EENTRO =         0.00000000
  eigenvalues    EBANDS =      -334.55870139
  atomic energy  EATOM  =      3040.52701931
  ---------------------------------------------------
  free energy    TOTEN  =       -39.94542670 eV

  energy without entropy =      -39.94542670  energy(sigma->0) =      -39.94542670


--------------------------------------------------------------------------------------------------------




----------------------------------------- Iteration    1(   6)  ---------------------------------------


    POTLOK:  cpu time    0.09: real time    0.09
    SETDIJ:  cpu time    0.02: real time    0.02
    EDDIAG:  cpu time    1.41: real time    1.42
  RMM-DIIS:  cpu time    4.09: real time    4.10
    ORTHCH:  cpu time    0.08: real time    0.08
 BZINTS: Fermi energy:  3.058007; 38.000000 electrons
         Band energy:-334.594827;  BLOECHL correction:  0.000000
       DOS:  cpu time    0.01: real time    0.01
    CHARGE:  cpu time    0.46: real time    0.46
    MIXING:  cpu time    0.00: real time    0.00
    --------------------------------------------
      LOOP:  cpu time    6.17: real time    7.62

 eigenvalue-minimisations  :  4492
 total energy-change (2. order) : 0.2607444E-02  (-0.4377134E-03)
 number of electron      37.9999981 magnetization      -0.0000000
 augmentation part        4.8199058 magnetization      -0.0002182

 Broyden mixing:
  rms(total) = 0.33670E-02    rms(broyden)= 0.33654E-02
  rms(prec ) = 0.57764E-02
  weight for this iteration     100.00

 eigenvalues of (default mixing * dielectric matrix)
  average eigenvalue GAMMA=   0.5435
  0.5435

 Free energy of the ion-electron system (eV)
  ---------------------------------------------------
  alpha Z        PSCENC =       248.59648671
  Ewald energy   TEWEN  =     -2471.33680366
  -Hartree energ DENC   =      -660.44712285
  -exchange      EXHF   =         0.00000000
  -V(xc)+E(xc)   XCENC  =       146.55787297
  PAW double counting   =      3657.43474318    -3666.68018808
  entropy T*S    EENTRO =         0.00000000
  eigenvalues    EBANDS =      -334.59482683
  atomic energy  EATOM  =      3040.52701931
  ---------------------------------------------------
  free energy    TOTEN  =       -39.94281926 eV

  energy without entropy =      -39.94281926  energy(sigma->0) =      -39.94281926


--------------------------------------------------------------------------------------------------------




----------------------------------------- Iteration    1(   7)  ---------------------------------------


    POTLOK:  cpu time    0.09: real time    0.09
    SETDIJ:  cpu time    0.02: real time    0.02
    EDDIAG:  cpu time    1.41: real time    1.42
  RMM-DIIS:  cpu time    3.26: real time    3.26
    ORTHCH:  cpu time    0.08: real time    0.08
 BZINTS: Fermi energy:  3.056924; 38.000000 electrons
         Band energy:-334.589215;  BLOECHL correction:  0.000000
       DOS:  cpu time    0.01: real time    0.01
    --------------------------------------------
      LOOP:  cpu time    4.87: real time    4.88

 eigenvalue-minimisations  :  3030
 total energy-change (2. order) : 0.1167934E-04  (-0.3996630E-04)
 number of electron      37.9999981 magnetization      -0.0000000
 augmentation part        4.8199058 magnetization      -0.0002182

 Free energy of the ion-electron system (eV)
  ---------------------------------------------------
  alpha Z        PSCENC =       248.59648671
  Ewald energy   TEWEN  =     -2471.33680366
  -Hartree energ DENC   =      -660.45207198
  -exchange      EXHF   =         0.00000000
  -V(xc)+E(xc)   XCENC  =       146.55913458
  PAW double counting   =      3657.51791744    -3666.76527520
  entropy T*S    EENTRO =         0.00000000
  eigenvalues    EBANDS =      -334.58921478
  atomic energy  EATOM  =      3040.52701931
  ---------------------------------------------------
  free energy    TOTEN  =       -39.94280758 eV

  energy without entropy =      -39.94280758  energy(sigma->0) =      -39.94280758


--------------------------------------------------------------------------------------------------------




 average (electrostatic) potential at core
  the test charge radii are     1.2192  1.0397  0.7215
  (the norm of the test charge is              1.0000)
       1 -34.1146       2 -54.0834       3 -70.5794       4 -70.5794       5 -70.9192
 
 
 
 E-fermi :   3.0569     XC(G=0): -10.9473     alpha+bet :-13.1932


 spin component 1

 k-point     1 :       0.0000    0.0000    0.0000
  band No.  band energies     occupation 
      1     -30.0273      1.00000
      2     -29.8915      1.00000
      3     -29.8915      1.00000
      4     -22.1788      1.00000
      5     -13.9632      1.00000
      6     -13.3678      1.00000
      7     -13.1953      1.00000
      8      -7.3742      1.00000
      9      -7.3031      1.00000
     10      -7.3031      1.00000
     11       0.4566      1.00000
     12       0.5874      1.00000
     13       0.5874      1.00000
     14       1.3315      1.00000
     15       1.3315      1.00000
     16       1.7435      1.00000
     17       2.1244      1.00000
     18       2.4913      1.00000
     19       2.4913      1.00000
     20       4.7800      0.00000
     21       5.4040      0.00000
     22       5.4040      0.00000
     23       6.9413      0.00000
     24       7.1461      0.00000
     25       7.5282      0.00000
     26       8.0953      0.00000
     27       9.6050      0.00000
     28      11.0454      0.00000
     29      11.0454      0.00000
     30      11.2051      0.00000
     31      16.3624      0.00000
     32      19.3576      0.00000

 k-point     2 :       0.1667    0.0000    0.0000
  band No.  band energies     occupation 
      1     -30.0268      1.00000
      2     -29.9040      1.00000
      3     -29.8910      1.00000
      4     -22.1532      1.00000
      5     -13.9744      1.00000
      6     -13.3471      1.00000
      7     -13.1768      1.00000
      8      -7.3416      1.00000
      9      -7.2633      1.00000
     10      -7.2384      1.00000
     11       0.1523      1.00000
     12       0.4213      1.00000
     13       0.5421      1.00000
     14       0.9873      1.00000
     15       1.1759      1.00000
     16       1.6382      1.00000
     17       1.8914      1.00000
     18       2.1781      1.00000
     19       2.2845      1.00000
     20       5.2408      0.00000
     21       5.4426      0.00000
     22       5.4599      0.00000
     23       7.0932      0.00000
     24       7.6056      0.00000
     25       8.0432      0.00000
     26       8.5843      0.00000
     27      10.2546      0.00000
     28      10.9837      0.00000
     29      11.3099      0.00000
     30      11.4943      0.00000
     31      16.4666      0.00000
     32      18.9956      0.00000

 k-point     3 :       0.3333    0.0000    0.0000
  band No.  band energies     occupation 
      1     -30.0258      1.00000
      2     -29.9290      1.00000
      3     -29.8900      1.00000
      4     -22.1012      1.00000
      5     -14.0672      1.00000
      6     -13.2973      1.00000
      7     -13.0616      1.00000
      8      -7.2707      1.00000
      9      -7.1805      1.00000
     10      -7.1145      1.00000
     11      -0.6218      1.00000
     12       0.2639      1.00000
     13       0.3236      1.00000
     14       0.5599      1.00000
     15       1.0497      1.00000
     16       1.2833      1.00000
     17       1.4869      1.00000
     18       1.7147      1.00000
     19       1.8812      1.00000
     20       5.4445      0.00000
     21       6.0512      0.00000
     22       6.0680      0.00000
     23       7.0701      0.00000
     24       8.2455      0.00000
     25       9.1638      0.00000
     26       9.6411      0.00000
     27      10.8684      0.00000
     28      11.5392      0.00000
     29      12.0294      0.00000
     30      12.2351      0.00000
     31      16.2826      0.00000
     32      18.4609      0.00000

 k-point     4 :       0.5000    0.0000    0.0000
  band No.  band energies     occupation 
      1     -30.0252      1.00000
      2     -29.9414      1.00000
      3     -29.8896      1.00000
      4     -22.0748      1.00000
      5     -14.1341      1.00000
      6     -13.2796      1.00000
      7     -12.9680      1.00000
      8      -7.2328      1.00000
      9      -7.1374      1.00000
     10      -7.0545      1.00000
     11      -0.9879      1.00000
     12       0.1669      1.00000
     13       0.1732      1.00000
     14       0.3666      1.00000
     15       1.0895      1.00000
     16       1.0897      1.00000
     17       1.3403      1.00000
     18       1.4843      1.00000
     19       1.7204      1.00000
     20       5.4752      0.00000
     21       6.3848      0.00000
     22       6.4872      0.00000
     23       7.0155      0.00000
     24       8.4115      0.00000
     25       9.7476      0.00000
     26      10.3088      0.00000
     27      10.8138      0.00000
     28      11.8759      0.00000
     29      12.2758      0.00000
     30      14.0715      0.00000
     31      15.5016      0.00000
     32      16.2528      0.00000

 k-point     5 :       0.1667    0.1667    0.0000
  band No.  band energies     occupation 
      1     -30.0263      1.00000
      2     -29.9037      1.00000
      3     -29.9033      1.00000
      4     -22.1297      1.00000
      5     -13.9554      1.00000
      6     -13.3127      1.00000
      7     -13.1805      1.00000
      8      -7.3556      1.00000
      9      -7.3044      1.00000
     10      -7.1235      1.00000
     11      -0.0496      1.00000
     12       0.2737      1.00000
     13       0.4006      1.00000
     14       0.8027      1.00000
     15       0.9470      1.00000
     16       1.1967      1.00000
     17       1.7739      1.00000
     18       2.1459      1.00000
     19       2.4247      1.00000
     20       5.3380      0.00000
     21       5.5712      0.00000
     22       5.5779      0.00000
     23       7.3383      0.00000
     24       8.0173      0.00000
     25       8.5670      0.00000
     26       8.9393      0.00000
     27      10.5685      0.00000
     28      11.2265      0.00000
     29      11.3018      0.00000
     30      11.8472      0.00000
     31      16.5624      0.00000
     32      18.7593      0.00000

 k-point     6 :       0.3333    0.1667    0.0000
  band No.  band energies     occupation 
      1     -30.0252      1.00000
      2     -29.9283      1.00000
      3     -29.9024      1.00000
      4     -22.0819      1.00000
      5     -13.9857      1.00000
      6     -13.2549      1.00000
      7     -13.0966      1.00000
      8      -7.3389      1.00000
      9      -7.2284      1.00000
     10      -7.0999      1.00000
     11      -0.6943      1.00000
     12       0.0359      1.00000
     13       0.2526      1.00000
     14       0.3794      1.00000
     15       0.6093      1.00000
     16       0.8892      1.00000
     17       1.6146      1.00000
     18       1.9232      1.00000
     19       2.2628      1.00000
     20       5.4774      0.00000
     21       6.0902      0.00000
     22       6.1465      0.00000
     23       7.3300      0.00000
     24       8.7239      0.00000
     25       9.6193      0.00000
     26       9.9135      0.00000
     27      11.1809      0.00000
     28      11.2924      0.00000
     29      11.8508      0.00000
     30      12.7461      0.00000
     31      16.4538      0.00000
     32      18.2307      0.00000

 k-point     7 :       0.5000    0.1667    0.0000
  band No.  band energies     occupation 
      1     -30.0247      1.00000
      2     -29.9407      1.00000
      3     -29.9019      1.00000
      4     -22.0575      1.00000
      5     -14.0262      1.00000
      6     -13.2409      1.00000
      7     -13.0074      1.00000
      8      -7.2655      1.00000
      9      -7.1755      1.00000
     10      -7.1696      1.00000
     11      -1.0358      1.00000
     12      -0.0177      1.00000
     13       0.0606      1.00000
     14       0.1629      1.00000
     15       0.4763      1.00000
     16       1.0468      1.00000
     17       1.3388      1.00000
     18       1.8673      1.00000
     19       2.1306      1.00000
     20       5.5152      0.00000
     21       6.4397      0.00000
     22       6.5025      0.00000
     23       7.2503      0.00000
     24       8.9443      0.00000
     25      10.1277      0.00000
     26      10.6652      0.00000
     27      11.1486      0.00000
     28      11.5030      0.00000
     29      12.1077      0.00000
     30      14.4664      0.00000
     31      15.3776      0.00000
     32      16.4367      0.00000

 k-point     8 :       0.3333    0.3333    0.0000
  band No.  band energies     occupation 
      1     -30.0242      1.00000
      2     -29.9273      1.00000
      3     -29.9268      1.00000
      4     -22.0426      1.00000
      5     -13.8474      1.00000
      6     -13.1552      1.00000
      7     -13.1484      1.00000
      8      -7.4598      1.00000
      9      -7.2582      1.00000
     10      -7.1362      1.00000
     11      -0.9220      1.00000
     12      -0.4397      1.00000
     13      -0.4271      1.00000
     14       0.1654      1.00000
     15       0.3760      1.00000
     16       0.9436      1.00000
     17       1.6746      1.00000
     18       1.8278      1.00000
     19       2.6852      1.00000
     20       5.9349      0.00000
     21       6.2191      0.00000
     22       6.4577      0.00000
     23       7.3482      0.00000
     24       9.6037      0.00000
     25      10.2531      0.00000
     26      11.0582      0.00000
     27      11.0714      0.00000
     28      11.7606      0.00000
     29      11.8495      0.00000
     30      13.4559      0.00000
     31      16.8536      0.00000
     32      17.0604      0.00000

 k-point     9 :       0.5000    0.3333    0.0000
  band No.  band energies     occupation 
      1     -30.0237      1.00000
      2     -29.9392      1.00000
      3     -29.9263      1.00000
      4     -22.0226      1.00000
      5     -13.7981      1.00000
      6     -13.1657      1.00000
      7     -13.0889      1.00000
      8      -7.4340      1.00000
      9      -7.4036      1.00000
     10      -7.1016      1.00000
     11      -1.1594      1.00000
     12      -0.7562      1.00000
     13      -0.5338      1.00000
     14       0.0849      1.00000
     15       0.2451      1.00000
     16       1.0755      1.00000
     17       1.6682      1.00000
     18       1.7775      1.00000
     19       2.7887      1.00000
     20       6.0658      0.00000
     21       6.5100      0.00000
     22       6.6808      0.00000
     23       7.2346      0.00000
     24       9.9384      0.00000
     25      10.7370      0.00000
     26      10.7848      0.00000
     27      11.7432      0.00000
     28      12.0286      0.00000
     29      12.0659      0.00000
     30      15.0917      0.00000
     31      15.2100      0.00000
     32      16.7278      0.00000

 k-point    10 :       0.5000    0.5000    0.0000
  band No.  band energies     occupation 
      1     -30.0232      1.00000
      2     -29.9385      1.00000
      3     -29.9385      1.00000
      4     -22.0050      1.00000
      5     -13.6759      1.00000
      6     -13.1313      1.00000
      7     -13.1313      1.00000
      8      -7.5105      1.00000
      9      -7.5105      1.00000
     10      -7.0625      1.00000
     11      -1.3265      1.00000
     12      -1.0276      1.00000
     13      -0.7654      1.00000
     14       0.0867      1.00000
     15       0.0867      1.00000
     16       0.9994      1.00000
     17       1.8744      1.00000
     18       1.8744      1.00000
     19       2.9854      1.00000
     20       6.5224      0.00000
     21       6.5224      0.00000
     22       6.8516      0.00000
     23       7.0492      0.00000
     24      10.3565      0.00000
     25      10.4010      0.00000
     26      11.1103      0.00000
     27      12.0577      0.00000
     28      12.0577      0.00000
     29      13.4166      0.00000
     30      15.3958      0.00000
     31      15.3974      0.00000
     32      16.3791      0.00000

 k-point    11 :       0.0000    0.0000    0.1667
  band No.  band energies     occupation 
      1     -30.0341      1.00000
      2     -29.8912      1.00000
      3     -29.8912      1.00000
      4     -22.1614      1.00000
      5     -13.9669      1.00000
      6     -13.3760      1.00000
      7     -13.1896      1.00000
      8      -7.2798      1.00000
      9      -7.2798      1.00000
     10      -7.2657      1.00000
     11       0.0747      1.00000
     12       0.5134      1.00000
     13       0.5134      1.00000
     14       1.1787      1.00000
     15       1.1787      1.00000
     16       1.5561      1.00000
     17       1.7789      1.00000
     18       2.4487      1.00000
     19       2.4487      1.00000
     20       4.8086      0.00000
     21       5.6608      0.00000
     22       5.6608      0.00000
     23       6.9401      0.00000
     24       7.6318      0.00000
     25       7.9482      0.00000
     26       8.4933      0.00000
     27      10.2024      0.00000
     28      11.1352      0.00000
     29      11.3021      0.00000
     30      11.3021      0.00000
     31      16.1993      0.00000
     32      19.3963      0.00000

 k-point    12 :       0.1667    0.0000    0.1667
  band No.  band energies     occupation 
      1     -30.0335      1.00000
      2     -29.9037      1.00000
      3     -29.8908      1.00000
      4     -22.1376      1.00000
      5     -13.9447      1.00000
      6     -13.3732      1.00000
      7     -13.1717      1.00000
      8      -7.3375      1.00000
      9      -7.2384      1.00000
     10      -7.1687      1.00000
     11      -0.0588      1.00000
     12       0.1656      1.00000
     13       0.4929      1.00000
     14       0.7597      1.00000
     15       1.0067      1.00000
     16       1.6081      1.00000
     17       1.7833      1.00000
     18       2.1274      1.00000
     19       2.2470      1.00000
     20       5.2757      0.00000
     21       5.6442      0.00000
     22       5.6789      0.00000
     23       7.3003      0.00000
     24       7.9099      0.00000
     25       8.4023      0.00000
     26       8.9760      0.00000
     27      10.5098      0.00000
     28      11.2355      0.00000
     29      11.4728      0.00000
     30      11.6561      0.00000
     31      16.3764      0.00000
     32      18.4995      0.00000

 k-point    13 :       0.3333    0.0000    0.1667
  band No.  band energies     occupation 
      1     -30.0324      1.00000
      2     -29.9286      1.00000
      3     -29.8898      1.00000
      4     -22.0892      1.00000
      5     -13.9835      1.00000
      6     -13.3208      1.00000
      7     -13.0861      1.00000
      8      -7.3054      1.00000
      9      -7.1524      1.00000
     10      -7.1248      1.00000
     11      -0.6792      1.00000
     12      -0.1072      1.00000
     13       0.2654      1.00000
     14       0.3011      1.00000
     15       0.8720      1.00000
     16       1.3764      1.00000
     17       1.6369      1.00000
     18       1.6376      1.00000
     19       2.0147      1.00000
     20       5.6835      0.00000
     21       6.0667      0.00000
     22       6.1282      0.00000
     23       7.3947      0.00000
     24       8.4948      0.00000
     25       9.3705      0.00000
     26      10.0622      0.00000
     27      11.1810      0.00000
     28      11.1893      0.00000
     29      12.0233      0.00000
     30      12.6958      0.00000
     31      16.3539      0.00000
     32      18.0650      0.00000

 k-point    14 :       0.5000    0.0000    0.1667
  band No.  band energies     occupation 
      1     -30.0318      1.00000
      2     -29.9410      1.00000
      3     -29.8893      1.00000
      4     -22.0645      1.00000
      5     -14.0325      1.00000
      6     -13.2886      1.00000
      7     -13.0125      1.00000
      8      -7.2466      1.00000
      9      -7.1470      1.00000
     10      -7.1076      1.00000
     11      -1.0229      1.00000
     12      -0.1830      1.00000
     13       0.0349      1.00000
     14       0.1421      1.00000
     15       0.9221      1.00000
     16       1.2955      1.00000
     17       1.3942      1.00000
     18       1.5786      1.00000
     19       1.8593      1.00000
     20       5.7105      0.00000
     21       6.3982      0.00000
     22       6.4929      0.00000
     23       7.3825      0.00000
     24       8.6599      0.00000
     25       9.9163      0.00000
     26      10.7673      0.00000
     27      11.1644      0.00000
     28      11.3712      0.00000
     29      12.2800      0.00000
     30      14.4733      0.00000
     31      15.3834      0.00000
     32      16.3496      0.00000

 k-point    15 :       0.1667    0.1667    0.1667
  band No.  band energies     occupation 
      1     -30.0330      1.00000
      2     -29.9034      1.00000
      3     -29.9030      1.00000
      4     -22.1155      1.00000
      5     -13.9056      1.00000
      6     -13.3491      1.00000
      7     -13.1687      1.00000
      8      -7.3722      1.00000
      9      -7.3385      1.00000
     10      -7.0379      1.00000
     11      -0.2575      1.00000
     12       0.1349      1.00000
     13       0.2255      1.00000
     14       0.6838      1.00000
     15       0.7810      1.00000
     16       1.1884      1.00000
     17       1.8739      1.00000
     18       2.0408      1.00000
     19       2.3439      1.00000
     20       5.5077      0.00000
     21       5.7080      0.00000
     22       5.7136      0.00000
     23       7.8763      0.00000
     24       8.0013      0.00000
     25       8.8388      0.00000
     26       9.2729      0.00000
     27      10.5135      0.00000
     28      11.4304      0.00000
     29      11.5717      0.00000
     30      12.1010      0.00000
     31      16.4781      0.00000
     32      18.7096      0.00000

 k-point    16 :       0.3333    0.1667    0.1667
  band No.  band energies     occupation 
      1     -30.0318      1.00000
      2     -29.9279      1.00000
      3     -29.9021      1.00000
      4     -22.0705      1.00000
      5     -13.8999      1.00000
      6     -13.2756      1.00000
      7     -13.1052      1.00000
      8      -7.3911      1.00000
      9      -7.3447      1.00000
     10      -7.0300      1.00000
     11      -0.7546      1.00000
     12      -0.1957      1.00000
     13       0.1492      1.00000
     14       0.3621      1.00000
     15       0.4909      1.00000
     16       0.8243      1.00000
     17       1.8146      1.00000
     18       1.9110      1.00000
     19       2.2244      1.00000
     20       5.7226      0.00000
     21       6.1522      0.00000
     22       6.1949      0.00000
     23       7.8411      0.00000
     24       8.7718      0.00000
     25       9.7573      0.00000
     26      10.1309      0.00000
     27      10.9429      0.00000
     28      11.5010      0.00000
     29      11.7363      0.00000
     30      13.2181      0.00000
     31      16.5018      0.00000
     32      18.1383      0.00000

 k-point    17 :       0.5000    0.1667    0.1667
  band No.  band energies     occupation 
      1     -30.0313      1.00000
      2     -29.9403      1.00000
      3     -29.9016      1.00000
      4     -22.0476      1.00000
      5     -13.9269      1.00000
      6     -13.2436      1.00000
      7     -13.0328      1.00000
      8      -7.3852      1.00000
      9      -7.2764      1.00000
     10      -7.1174      1.00000
     11      -1.0606      1.00000
     12      -0.2348      1.00000
     13      -0.0190      1.00000
     14       0.1650      1.00000
     15       0.4113      1.00000
     16       0.8473      1.00000
     17       1.7543      1.00000
     18       1.8047      1.00000
     19       2.1080      1.00000
     20       5.7608      0.00000
     21       6.4691      0.00000
     22       6.5297      0.00000
     23       7.7821      0.00000
     24       9.0060      0.00000
     25      10.2783      0.00000
     26      10.6372      0.00000
     27      11.1828      0.00000
     28      11.6747      0.00000
     29      11.7994      0.00000
     30      14.9304      0.00000
     31      15.3369      0.00000
     32      16.5949      0.00000

 k-point    18 :       0.3333    0.3333    0.1667
  band No.  band energies     occupation 
      1     -30.0308      1.00000
      2     -29.9269      1.00000
      3     -29.9265      1.00000
      4     -22.0326      1.00000
      5     -13.7589      1.00000
      6     -13.1700      1.00000
      7     -13.1247      1.00000
      8      -7.5510      1.00000
      9      -7.4545      1.00000
     10      -7.1176      1.00000
     11      -0.9441      1.00000
     12      -0.4403      1.00000
     13      -0.3589      1.00000
     14       0.1757      1.00000
     15       0.3841      1.00000
     16       0.6009      1.00000
     17       1.7597      1.00000
     18       1.9806      1.00000
     19       2.6636      1.00000
     20       6.1461      0.00000
     21       6.3041      0.00000
     22       6.4982      0.00000
     23       7.9309      0.00000
     24       9.5766      0.00000
     25      10.3381      0.00000
     26      10.7789      0.00000
     27      10.8528      0.00000
     28      11.5079      0.00000
     29      11.8357      0.00000
     30      14.0479      0.00000
     31      16.7466      0.00000
     32      17.5941      0.00000

 k-point    19 :       0.5000    0.3333    0.1667
  band No.  band energies     occupation 
      1     -30.0302      1.00000
      2     -29.9389      1.00000
      3     -29.9260      1.00000
      4     -22.0134      1.00000
      5     -13.7080      1.00000
      6     -13.1500      1.00000
      7     -13.0772      1.00000
      8      -7.5714      1.00000
      9      -7.5210      1.00000
     10      -7.2044      1.00000
     11      -1.1655      1.00000
     12      -0.5544      1.00000
     13      -0.5266      1.00000
     14       0.0931      1.00000
     15       0.2803      1.00000
     16       0.6560      1.00000
     17       1.8507      1.00000
     18       1.8935      1.00000
     19       2.7839      1.00000
     20       6.2497      0.00000
     21       6.5813      0.00000
     22       6.7162      0.00000
     23       7.8391      0.00000
     24       9.9145      0.00000
     25      10.6032      0.00000
     26      10.8447      0.00000
     27      11.1531      0.00000
     28      11.3474      0.00000
     29      12.4066      0.00000
     30      15.3330      0.00000
     31      15.6660      0.00000
     32      16.9371      0.00000

 k-point    20 :       0.5000    0.5000    0.1667
  band No.  band energies     occupation 
      1     -30.0297      1.00000
      2     -29.9382      1.00000
      3     -29.9382      1.00000
      4     -21.9960      1.00000
      5     -13.5945      1.00000
      6     -13.1015      1.00000
      7     -13.1015      1.00000
      8      -7.6365      1.00000
      9      -7.6365      1.00000
     10      -7.2661      1.00000
     11      -1.3272      1.00000
     12      -0.7627      1.00000
     13      -0.6808      1.00000
     14       0.1979      1.00000
     15       0.1979      1.00000
     16       0.4652      1.00000
     17       2.0017      1.00000
     18       2.0017      1.00000
     19       3.0004      1.00000
     20       6.6111      0.00000
     21       6.6111      0.00000
     22       6.8891      0.00000
     23       7.6975      0.00000
     24      10.3026      0.00000
     25      10.3544      0.00000
     26      11.1841      0.00000
     27      11.1841      0.00000
     28      11.3243      0.00000
     29      13.2970      0.00000
     30      15.9025      0.00000
     31      16.0713      0.00000
     32      16.0795      0.00000

 k-point    21 :       0.0000    0.0000    0.3333
  band No.  band energies     occupation 
      1     -30.0477      1.00000
      2     -29.8907      1.00000
      3     -29.8907      1.00000
      4     -22.1264      1.00000
      5     -14.0296      1.00000
      6     -13.3262      1.00000
      7     -13.1782      1.00000
      8      -7.2319      1.00000
      9      -7.2319      1.00000
     10      -7.0504      1.00000
     11      -0.6246      1.00000
     12       0.3307      1.00000
     13       0.3307      1.00000
     14       0.9590      1.00000
     15       0.9590      1.00000
     16       1.2245      1.00000
     17       1.2281      1.00000
     18       2.3587      1.00000
     19       2.3587      1.00000
     20       4.8674      0.00000
     21       6.1503      0.00000
     22       6.1503      0.00000
     23       6.9404      0.00000
     24       8.4126      0.00000
     25       8.7983      0.00000
     26       9.3974      0.00000
     27      10.9938      0.00000
     28      11.8116      0.00000
     29      11.8116      0.00000
     30      11.8128      0.00000
     31      15.6547      0.00000
     32      17.4990      0.00000

 k-point    22 :       0.1667    0.0000    0.3333
  band No.  band energies     occupation 
      1     -30.0470      1.00000
      2     -29.9031      1.00000
      3     -29.8903      1.00000
      4     -22.1061      1.00000
      5     -13.9370      1.00000
      6     -13.3671      1.00000
      7     -13.1595      1.00000
      8      -7.2951      1.00000
      9      -7.1874      1.00000
     10      -7.0692      1.00000
     11      -0.6750      1.00000
[...]
     12      -0.7104      1.00000
     13      -0.6569      1.00000
     14       0.0969      1.00000
     15       0.3999      1.00000
     16       0.6244      1.00000
     17       2.0192      1.00000
     18       2.2151      1.00000
     19       2.5335      1.00000
     20       6.3985      0.00000
     21       6.5276      0.00000
     22       6.7075      0.00000
     23       8.3695      0.00000
     24       9.8326      0.00000
     25      10.0469      0.00000
     26      10.8290      0.00000
     27      11.2695      0.00000
     28      11.5464      0.00000
     29      12.9442      0.00000
     30      15.3331      0.00000
     31      15.9339      0.00000
     32      16.3732      0.00000

 k-point    38 :       0.3333    0.3333    0.5000
  band No.  band energies     occupation 
      1     -30.0703      1.00000
      2     -29.9470      1.00000
      3     -29.9468      1.00000
      4     -22.0072      1.00000
      5     -13.4044      1.00000
      6     -13.3132      1.00000
      7     -13.0594      1.00000
      8      -7.8223      1.00000
      9      -7.6011      1.00000
     10      -7.5003      1.00000
     11      -1.1151      1.00000
     12      -0.5635      1.00000
     13      -0.4460      1.00000
     14      -0.0962      1.00000
     15       0.4044      1.00000
     16       0.4129      1.00000
     17       2.2811      1.00000
     18       2.4393      1.00000
     19       2.5470      1.00000
     20       6.5657      0.00000
     21       6.6231      0.00000
     22       6.6661      0.00000
     23       9.2664      0.00000
     24       9.3445      0.00000
     25      10.1751      0.00000
     26      10.2489      0.00000
     27      10.6668      0.00000
     28      11.5707      0.00000
     29      12.2183      0.00000
     30      14.7043      0.00000
     31      16.5324      0.00000
     32      17.0972      0.00000

 k-point    39 :       0.5000    0.3333    0.5000
  band No.  band energies     occupation 
      1     -30.0697      1.00000
      2     -29.9589      1.00000
      3     -29.9464      1.00000
      4     -21.9903      1.00000
      5     -13.3890      1.00000
      6     -13.1545      1.00000
      7     -13.0523      1.00000
      8      -7.8594      1.00000
      9      -7.8044      1.00000
     10      -7.6511      1.00000
     11      -1.2881      1.00000
     12      -0.7146      1.00000
     13      -0.4672      1.00000
     14       0.0543      1.00000
     15       0.3251      1.00000
     16       0.3903      1.00000
     17       2.3640      1.00000
     18       2.5601      1.00000
     19       2.7610      1.00000
     20       6.6817      0.00000
     21       6.7912      0.00000
     22       6.8428      0.00000
     23       8.9814      0.00000
     24       9.5925      0.00000
     25       9.9116      0.00000
     26      10.0555      0.00000
     27      10.6746      0.00000
     28      11.8864      0.00000
     29      12.6814      0.00000
     30      14.9335      0.00000
     31      16.7373      0.00000
     32      17.0980      0.00000

 k-point    40 :       0.5000    0.5000    0.5000
  band No.  band energies     occupation 
      1     -30.0691      1.00000
      2     -29.9584      1.00000
      3     -29.9584      1.00000
      4     -21.9741      1.00000
      5     -13.3463      1.00000
      6     -13.0165      1.00000
      7     -13.0165      1.00000
      8      -8.0008      1.00000
      9      -8.0008      1.00000
     10      -7.7927      1.00000
     11      -1.4303      1.00000
     12      -0.7637      1.00000
     13      -0.6952      1.00000
     14       0.2801      1.00000
     15       0.3929      1.00000
     16       0.3929      1.00000
     17       2.5816      1.00000
     18       2.5816      1.00000
     19       3.0348      1.00000
     20       6.8774      0.00000
     21       6.8774      0.00000
     22       6.9877      0.00000
     23       8.9034      0.00000
     24       9.3310      0.00000
     25       9.3310      0.00000
     26      10.3206      0.00000
     27      10.4789      0.00000
     28      12.3709      0.00000
     29      12.9437      0.00000
     30      14.9137      0.00000
     31      17.1774      0.00000
     32      17.1857      0.00000


--------------------------------------------------------------------------------------------------------


 soft charge-density along one line, spin component           1
         0         1         2         3         4         5         6         7         8         9
 total charge-density along one line
 
 soft charge-density along one line, spin component           2
         0         1         2         3         4         5         6         7         8         9
 total charge-density along one line
 
 pseudopotential strength for first ion, spin component:           1
  1.306  -5.116   0.000  -0.008   0.000   0.000   0.001   0.000
 -5.116   0.737  -0.000   0.005  -0.000   0.000  -0.002   0.000
  0.000  -0.000  -7.658  -0.000  -0.000   4.477  -0.000  -0.000
 -0.008   0.005  -0.000  -7.660   0.000  -0.000   4.475   0.000
  0.000  -0.000  -0.000   0.000  -7.658  -0.000   0.000   4.477
  0.000   0.000   4.477  -0.000  -0.000   6.737   0.000   0.000
  0.001  -0.002  -0.000   4.475   0.000   0.000   6.739  -0.000
  0.000   0.000  -0.000   0.000   4.477   0.000  -0.000   6.737
 -0.000   0.000   0.000   0.000   0.000   0.000   0.000   0.000
 -0.000   0.000  -0.003   0.000   0.000  -0.001   0.000   0.000
 -0.001   0.001  -0.000  -0.003  -0.000  -0.000  -0.000  -0.000
  0.000  -0.000   0.000  -0.000  -0.003   0.000  -0.000  -0.001
  0.000  -0.000  -0.000   0.000  -0.000  -0.000   0.000  -0.000
 -0.000   0.000   0.000   0.000   0.000   0.000   0.000   0.000
 -0.000   0.000  -0.004   0.000   0.000  -0.001   0.000   0.000
 -0.002   0.001  -0.000  -0.004  -0.000  -0.000  -0.001  -0.000
  0.000  -0.000   0.000  -0.000  -0.004   0.000  -0.000  -0.001
  0.000  -0.000  -0.000   0.000  -0.000  -0.000   0.000  -0.000
 pseudopotential strength for first ion, spin component:           2
  1.306  -5.116   0.000  -0.008   0.000   0.000   0.001   0.000
 -5.116   0.737  -0.000   0.005  -0.000   0.000  -0.002   0.000
  0.000  -0.000  -7.658  -0.000  -0.000   4.477  -0.000  -0.000
 -0.008   0.005  -0.000  -7.660   0.000  -0.000   4.475   0.000
  0.000  -0.000  -0.000   0.000  -7.658  -0.000   0.000   4.477
  0.000   0.000   4.477  -0.000  -0.000   6.737   0.000   0.000
  0.001  -0.002  -0.000   4.475   0.000   0.000   6.739  -0.000
  0.000   0.000  -0.000   0.000   4.477   0.000  -0.000   6.737
 -0.000   0.000   0.000   0.000   0.000   0.000   0.000   0.000
 -0.000   0.000  -0.003   0.000   0.000  -0.001   0.000   0.000
 -0.001   0.001  -0.000  -0.003  -0.000  -0.000  -0.000  -0.000
  0.000  -0.000   0.000  -0.000  -0.003   0.000  -0.000  -0.001
  0.000  -0.000  -0.000   0.000  -0.000  -0.000   0.000  -0.000
 -0.000   0.000   0.000   0.000   0.000   0.000   0.000   0.000
 -0.000   0.000  -0.004   0.000   0.000  -0.001   0.000   0.000
 -0.002   0.001  -0.000  -0.004  -0.000  -0.000  -0.001  -0.000
  0.000  -0.000   0.000  -0.000  -0.004   0.000  -0.000  -0.001
  0.000  -0.000  -0.000   0.000  -0.000  -0.000   0.000  -0.000
 total augmentation occupancy for first ion, spin component:           1
  2.004  -0.004   0.000  -0.001   0.000   0.000  -0.001   0.000   0.000   0.000  -0.003   0.000   0.000   0.000  -0.000   0.000
 -0.004   0.385   0.000  -0.027   0.000   0.000   0.006   0.000   0.000  -0.000  -0.026   0.000   0.000   0.000   0.000   0.016
 -0.000   0.000   2.020  -0.000   0.000  -0.008  -0.000   0.000   0.000  -0.042  -0.000   0.000   0.000   0.000   0.017   0.000
 -0.001  -0.027  -0.000   2.021   0.000   0.000  -0.009   0.000   0.000   0.000  -0.027   0.000   0.000   0.000   0.000   0.010
  0.000   0.000   0.000   0.000   2.020   0.000   0.000  -0.008   0.000   0.000   0.000  -0.042   0.000   0.000   0.000   0.000
  0.000   0.000  -0.008   0.000   0.000   0.010   0.000   0.000   0.000   0.013   0.000  -0.000  -0.000   0.000  -0.007  -0.000
 -0.001   0.006   0.000  -0.009   0.000   0.000   0.010   0.000   0.000  -0.000   0.010   0.000   0.000   0.000  -0.000  -0.006
  0.000   0.000   0.000   0.000  -0.008   0.000   0.000   0.010  -0.000   0.000   0.000   0.013   0.000   0.000   0.000   0.000
  0.000   0.000   0.000   0.000   0.000   0.000   0.000   0.000   2.844   0.000   0.000   0.000  -0.000  -1.513   0.000   0.000
 -0.000  -0.000  -0.042   0.000   0.000   0.013   0.000   0.000   0.000   2.598   0.000   0.000   0.000   0.000  -1.372   0.000
 -0.003  -0.026   0.000  -0.027   0.000   0.000   0.010   0.000   0.000   0.000   1.753   0.000   0.000   0.000   0.000  -0.923
  0.000   0.000   0.000   0.000  -0.042   0.000   0.000   0.013  -0.000   0.000   0.000   2.598   0.000   0.000   0.000   0.000
  0.000   0.000   0.000   0.000   0.000  -0.000   0.000   0.000  -0.000   0.000   0.000   0.000   1.644  -0.000   0.000   0.000
  0.000   0.000   0.000   0.000  -0.000   0.000   0.000   0.000  -1.513   0.000   0.000  -0.000   0.000   0.807   0.000   0.000
 -0.000   0.000   0.017   0.000   0.000  -0.007   0.000   0.000   0.000  -1.372   0.000   0.000   0.000   0.000   0.726   0.000
  0.000   0.016   0.000   0.010   0.000   0.000  -0.006   0.000   0.000  -0.000  -0.923   0.000   0.000   0.000   0.000   0.487
  0.000   0.000   0.000   0.000   0.017   0.000   0.000  -0.007   0.000   0.000   0.000  -1.372   0.000   0.000   0.000   0.000
  0.000   0.000  -0.000   0.000   0.000   0.000   0.000   0.000   0.000   0.000   0.000   0.000  -0.862   0.000   0.000   0.000
 total augmentation occupancy for first ion, spin component:           2
 -0.000  -0.000  -0.000  -0.000   0.000   0.000  -0.000   0.000   0.000   0.000  -0.000   0.000   0.000   0.000   0.000   0.000
 -0.000   0.000   0.000  -0.000   0.000   0.000   0.000   0.000   0.000   0.000   0.000   0.000   0.000   0.000   0.000  -0.000
 -0.000   0.000  -0.000   0.000   0.000  -0.000   0.000   0.000  -0.000  -0.000   0.000   0.000   0.000   0.000   0.000   0.000
 -0.000  -0.000   0.000  -0.000  -0.000  -0.000  -0.000   0.000   0.000   0.000   0.000   0.000   0.000   0.000   0.000  -0.000
  0.000   0.000   0.000  -0.000  -0.000   0.000  -0.000  -0.000  -0.000  -0.000   0.000  -0.000   0.000   0.000  -0.000   0.000
  0.000   0.000  -0.000  -0.000   0.000   0.000   0.000   0.000   0.000  -0.000   0.000  -0.000   0.000   0.000   0.000   0.000
 -0.000   0.000   0.000  -0.000  -0.000   0.000   0.000  -0.000   0.000   0.000   0.000   0.000   0.000   0.000   0.000  -0.000
  0.000   0.000   0.000   0.000  -0.000   0.000  -0.000   0.000   0.000   0.000   0.000  -0.000  -0.000   0.000  -0.000   0.000
  0.000   0.000  -0.000   0.000  -0.000   0.000   0.000   0.000  -0.000  -0.000   0.000   0.000  -0.000   0.000   0.000   0.000
  0.000   0.000  -0.000   0.000  -0.000  -0.000   0.000   0.000  -0.000  -0.000   0.000   0.000   0.000  -0.000   0.000   0.000
 -0.000   0.000   0.000   0.000   0.000   0.000   0.000   0.000   0.000   0.000   0.000   0.000   0.000   0.000   0.000  -0.000
  0.000   0.000   0.000   0.000  -0.000  -0.000   0.000  -0.000   0.000   0.000   0.000  -0.000  -0.000   0.000   0.000   0.000
  0.000   0.000   0.000   0.000   0.000   0.000   0.000  -0.000  -0.000   0.000   0.000  -0.000   0.000   0.000   0.000   0.000
  0.000   0.000   0.000   0.000   0.000   0.000   0.000   0.000   0.000  -0.000   0.000   0.000   0.000  -0.000   0.000   0.000
  0.000   0.000   0.000   0.000  -0.000   0.000   0.000  -0.000   0.000   0.000   0.000   0.000   0.000   0.000  -0.000   0.000
  0.000  -0.000   0.000  -0.000   0.000   0.000  -0.000   0.000   0.000   0.000  -0.000   0.000   0.000   0.000   0.000   0.000
  0.000  -0.000   0.000   0.000   0.000   0.000   0.000   0.000   0.000   0.000   0.000   0.000   0.000   0.000   0.000   0.000
  0.000   0.000  -0.000   0.000   0.000   0.000   0.000   0.000   0.000   0.000   0.000   0.000  -0.000   0.000   0.000   0.000


------------------------ aborting loop because EDIFF is reached ----------------------------------------


 


 total charge     
 
# of ion     s       p       d       tot
----------------------------------------
  1        2.004   5.644   0.299   7.948
  2        0.310   6.416   1.966   8.691
  3        1.573   3.335   0.000   4.908
  4        1.551   3.572   0.000   5.123
  5        1.570   3.449   0.000   5.019
------------------------------------------------
tot        7.009  22.416   2.265  31.690
 


 magnetization (x)
 
# of ion     s       p       d       tot
----------------------------------------
  1       -0.000   0.000  -0.000  -0.000
  2       -0.000   0.000   0.000   0.000
  3       -0.000  -0.000   0.000  -0.000
  4       -0.000  -0.000   0.000  -0.000
  5       -0.000   0.000   0.000   0.000
------------------------------------------------
tot       -0.000  -0.000   0.000  -0.000
 
    CHARGE:  cpu time    0.46: real time    0.46
    FORLOC:  cpu time    0.00: real time    0.00
    FORNL :  cpu time    2.53: real time    2.54
    STRESS:  cpu time    7.59: real time    7.61
    FORCOR:  cpu time    0.09: real time    0.09
    FORHAR:  cpu time    0.01: real time    0.01
    MIXING:  cpu time    0.00: real time    0.00
    OFIELD:  cpu time    0.00: real time    0.00

  FORCE on cell =-STRESS in cart. coord.  units (eV):
  Direction    XX          YY          ZZ          XY          YZ          ZX
  --------------------------------------------------------------------------------------
  Alpha Z   248.24776   248.24776   248.24776
  Ewald    -811.55423  -811.55423  -847.12574    -0.00000     0.00000    -0.00000
  Hartree   230.69639   230.69639   199.47016    -0.00000    -0.00000    -0.00000
  E(xc)    -171.32280  -171.32280  -171.41028     0.00000     0.00000     0.00000
  Local     -58.36458   -58.36458     9.25010     0.00000    -0.00000    -0.00000
  n-local  -128.96636  -126.91731  -128.42745    -0.28188    -0.24497    -0.21862
  augment    63.17288    63.17288    62.81366     0.00000     0.00000    -0.00000
  Kinetic   621.47614   632.56200   627.12772    -2.25339    -2.12164    -1.91178
  Fock        0.00000     0.00000     0.00000     0.00000     0.00000     0.00000
  -------------------------------------------------------------------------------------
  Total      -0.04734    -0.04734    -0.05405     0.00000     0.00000     0.00000
  in kB      -1.12371    -1.12371    -1.28305     0.00000     0.00000     0.00000
  external pressure =       -1.18 kB  Pullay stress =        0.00 kB


 VOLUME and BASIS-vectors are now :
 -----------------------------------------------------------------------------
  energy-cutoff  :      520.00
  volume of cell :       67.50
      direct lattice vectors                 reciprocal lattice vectors
     4.001368082  0.000000000  0.000000000     0.249914524  0.000000000  0.000000000
     0.000000000  4.001368082  0.000000000     0.000000000  0.249914524  0.000000000
     0.000000000 -0.000000000  4.215743736     0.000000000  0.000000000  0.237206069

  length of vectors
     4.001368082  4.001368082  4.215743736     0.249914524  0.249914524  0.237206069


 FORCES acting on ions
    electron-ion (+dipol)            ewald-force                    non-local-force                 convergence-correction
 -----------------------------------------------------------------------------------------------
   -.115E-13 -.104E-13 0.687E+01   -.462E-15 -.479E-14 -.594E+01   0.000E+00 0.895E-18 -.934E+00   -.145E-14 -.987E-13 0.496E-02
   0.151E-12 0.132E-11 0.669E+02   0.211E-13 0.208E-13 -.664E+02   0.000E+00 0.157E-19 -.535E+00   -.659E-13 -.824E-12 0.125E-01
   -.724E-14 0.176E-12 0.213E+02   -.282E-13 -.305E-14 -.223E+02   0.000E+00 -.574E-19 0.101E+01   0.359E-13 -.168E-12 -.972E-02
   0.126E-12 0.146E-12 0.213E+02   0.199E-14 -.254E-13 -.223E+02   0.000E+00 -.219E-18 0.101E+01   -.680E-13 0.585E-12 -.972E-02
   0.131E-12 0.511E-12 -.107E+03   0.502E-14 0.125E-13 0.117E+03   0.000E+00 0.377E-17 -.104E+02   -.488E-13 0.442E-12 0.310E-01
 -----------------------------------------------------------------------------------------------
   0.388E-12 0.214E-11 0.983E+01   -.512E-15 0.377E-16 0.000E+00   0.000E+00 0.441E-17 -.987E+01   -.148E-12 -.644E-13 0.290E-01
 
 
 POSITION                                       TOTAL-FORCE (eV/Angst)
 -----------------------------------------------------------------------------------
      0.00000     -0.00000      0.08547        -0.000000     -0.000000      0.005430
      2.00068      2.00068      2.27166        -0.000000      0.000000     -0.002110
      0.00000      2.00068      2.07424        -0.000000     -0.000000      0.006595
      2.00068     -0.00000      2.07424         0.000000     -0.000000      0.006595
      2.00068      2.00068      4.09277        -0.000000      0.000000     -0.016510
 -----------------------------------------------------------------------------------
    total drift:                                0.000000      0.000000     -0.006792


--------------------------------------------------------------------------------------------------------



  FREE ENERGIE OF THE ION-ELECTRON SYSTEM (eV)
  ---------------------------------------------------
  free  energy   TOTEN  =       -39.94286944 eV

  energy  without entropy=      -39.94286944  energy(sigma->0) =      -39.94286944
 
 d Force = 0.2150874E-04[ 0.404E-05, 0.390E-04]  d Energy = 0.1442438E-03-0.123E-03
 d Force =-0.6793737E-01[-0.681E-01,-0.678E-01]  d Ewald  = 0.1417673E+01-0.149E+01


--------------------------------------------------------------------------------------------------------


    POTLOK:  cpu time    0.11: real time    0.11


--------------------------------------------------------------------------------------------------------




--------------------------------------------------------------------------------------------------------


  
 reached required accuracy - stopping structural energy minimisation
     LOOP+:  cpu time   32.55: real time   32.60
    4ORBIT:  cpu time    0.00: real time    0.00
 


 total charge     
 
# of ion     s       p       d       tot
----------------------------------------
  1        2.004   5.644   0.299   7.948
  2        0.310   6.416   1.966   8.691
  3        1.573   3.335   0.000   4.908
  4        1.551   3.572   0.000   5.123
  5        1.570   3.449   0.000   5.019
------------------------------------------------
tot        7.009  22.416   2.265  31.690
 


 magnetization (x)
 
# of ion     s       p       d       tot
----------------------------------------
  1       -0.000   0.000  -0.000  -0.000
  2       -0.000   0.000   0.000   0.000
  3       -0.000  -0.000   0.000  -0.000
  4       -0.000  -0.000   0.000  -0.000
  5       -0.000   0.000   0.000   0.000
------------------------------------------------
tot       -0.000  -0.000   0.000  -0.000
 
 BZINTS: Fermi energy:  3.183708; 38.000000 electrons
         Band energy:-334.974033;  BLOECHL correction:  0.000000

 total amount of memory used by VASP on root node    49630. kBytes
========================================================================

   base      :      30000. kBytes
   nonlr-proj:       3460. kBytes
   fftplans  :       1162. kBytes
   grid      :       5105. kBytes
   one-center:        155. kBytes
   wavefun   :       9748. kBytes
 
  
  
 General timing and accounting informations for this job:
 ========================================================
  
                  Total CPU time used (sec):      150.779
                            User time (sec):      144.886
                          System time (sec):        5.893
                         Elapsed time (sec):      153.819
  
                   Maximum memory used (kb):       67172.
                   Average memory used (kb):           0.
  
                          Minor page faults:      1561688
                          Major page faults:            5
                 Voluntary context switches:         1005
