<?xml version="1.0" encoding="ISO-8859-1"?>
<modeling>
 <generator>
  <i name="program" type="string">vasp </i>
  <i name="version" type="string">5.3.5  </i>
  <i name="subversion" type="string">31Mar14 (build Oct 24 2014 12:38:34) complex                          parallel </i>
  <i name="platform" type="string">LinuxIFC </i>
  <i name="date" type="string">2016 10 20 </i>
  <i name="time" type="string">18:55:57 </i>
 </generator>
 <incar>
  <i type="int" name="ISTART">     1</i>
  <i type="string" name="PREC">accurate</i>
  <i type="string" name="ALGO"> Fast</i>
  <i type="int" name="ISPIN">     2</i>
  <i type="int" name="ICHARG">     1</i>
  <i type="int" name="NELM">   100</i>
  <i type="int" name="IBRION">     2</i>
  <i name="EDIFF">      0.00025000</i>
  <i type="int" name="NSW">    99</i>
  <i type="int" name="ISIF">     3</i>
  <i name="ENCUT">    520.00000000</i>
  <v name="MAGMOM">      0.60000000      0.60000000      0.60000000      0.60000000      0.60000000</v>
  <i type="string" name="LREAL"> Auto</i>
  <i type="int" name="ISMEAR">    -5</i>
  <i name="SIGMA">      0.05000000</i>
  <i type="logical" name="LWAVE"> F  </i>
  <i type="logical" name="LORBIT"> F  </i>
  <i type="int" name="NELM">   100</i>
 </incar>
 <kpoints>
  <generation param="Gamma">
   <v type="int" name="divisions">       6        6        6 </v>
   <v name="usershift">      0.00000000       0.00000000       0.00000000 </v>
   <v name="genvec1">      0.16666667       0.00000000       0.00000000 </v>
   <v name="genvec2">      0.00000000       0.16666667       0.00000000 </v>
   <v name="genvec3">      0.00000000       0.00000000       0.16666667 </v>
   <v name="shift">      0.00000000       0.00000000       0.00000000 </v>
  </generation>
  <varray name="kpointlist" >
   <v>       0.00000000       0.00000000       0.00000000 </v>
   <v>       0.16666667       0.00000000       0.00000000 </v>
   <v>       0.33333333       0.00000000       0.00000000 </v>
   <v>       0.50000000       0.00000000       0.00000000 </v>
   <v>       0.16666667       0.16666667       0.00000000 </v>
   <v>       0.33333333       0.16666667       0.00000000 </v>
   <v>       0.50000000       0.16666667       0.00000000 </v>
   <v>       0.33333333       0.33333333       0.00000000 </v>
   <v>       0.50000000       0.33333333       0.00000000 </v>
   <v>       0.50000000       0.50000000       0.00000000 </v>
   <v>       0.00000000       0.00000000       0.16666667 </v>
   <v>       0.16666667       0.00000000       0.16666667 </v>
   <v>       0.33333333       0.00000000       0.16666667 </v>
   <v>       0.50000000       0.00000000       0.16666667 </v>
   <v>       0.16666667       0.16666667       0.16666667 </v>
   <v>       0.33333333       0.16666667       0.16666667 </v>
   <v>       0.50000000       0.16666667       0.16666667 </v>
   <v>       0.33333333       0.33333333       0.16666667 </v>
   <v>       0.50000000       0.33333333       0.16666667 </v>
   <v>       0.50000000       0.50000000       0.16666667 </v>
   <v>       0.00000000       0.00000000       0.33333333 </v>
   <v>       0.16666667       0.00000000       0.33333333 </v>
   <v>       0.33333333       0.00000000       0.33333333 </v>
   <v>       0.50000000       0.00000000       0.33333333 </v>
   <v>       0.16666667       0.16666667       0.33333333 </v>
   <v>       0.33333333       0.16666667       0.33333333 </v>
   <v>       0.50000000       0.16666667       0.33333333 </v>
   <v>       0.33333333       0.33333333       0.33333333 </v>
   <v>       0.50000000       0.33333333       0.33333333 </v>
   <v>       0.50000000       0.50000000       0.33333333 </v>
   <v>       0.00000000       0.00000000       0.50000000 </v>
   <v>       0.16666667       0.00000000       0.50000000 </v>
   <v>       0.33333333       0.00000000       0.50000000 </v>
   <v>       0.50000000       0.00000000       0.50000000 </v>
   <v>       0.16666667       0.16666667       0.50000000 </v>
   <v>       0.33333333       0.16666667       0.50000000 </v>
   <v>       0.50000000       0.16666667       0.50000000 </v>
   <v>       0.33333333       0.33333333       0.50000000 </v>
   <v>       0.50000000       0.33333333       0.50000000 </v>
   <v>       0.50000000       0.50000000       0.50000000 </v>
  </varray>
  <varray name="weights" >
   <v>       0.00462963 </v>
   <v>       0.01851852 </v>
   <v>       0.01851852 </v>
   <v>       0.00925926 </v>
   <v>       0.01851852 </v>
   <v>       0.03703704 </v>
   <v>       0.01851852 </v>
   <v>       0.01851852 </v>
   <v>       0.01851852 </v>
   <v>       0.00462963 </v>
   <v>       0.00925926 </v>
   <v>       0.03703704 </v>
   <v>       0.03703704 </v>
   <v>       0.01851852 </v>
   <v>       0.03703704 </v>
   <v>       0.07407407 </v>
   <v>       0.03703704 </v>
   <v>       0.03703704 </v>
   <v>       0.03703704 </v>
   <v>       0.00925926 </v>
   <v>       0.00925926 </v>
   <v>       0.03703704 </v>
   <v>       0.03703704 </v>
   <v>       0.01851852 </v>
   <v>       0.03703704 </v>
   <v>       0.07407407 </v>
   <v>       0.03703704 </v>
   <v>       0.03703704 </v>
   <v>       0.03703704 </v>
   <v>       0.00925926 </v>
   <v>       0.00462963 </v>
   <v>       0.01851852 </v>
   <v>       0.01851852 </v>
   <v>       0.00925926 </v>
   <v>       0.01851852 </v>
   <v>       0.03703704 </v>
   <v>       0.01851852 </v>
   <v>       0.01851852 </v>
   <v>       0.01851852 </v>
   <v>       0.00462963 </v>
  </varray>
  <varray name="tetrahedronlist"  type="int" >
   <v type="int" >        4        1        2        5       11 </v>
   <v type="int" >        4        2        5       11       12 </v>
   <v type="int" >        4        5       11       12       15 </v>
   <v type="int" >        4        2        3        6       12 </v>
   <v type="int" >        4        2        5        6       12 </v>
   <v type="int" >        4        5        6       12       15 </v>
   <v type="int" >        4        3        6       12       13 </v>
   <v type="int" >        4        6       12       13       16 </v>
   <v type="int" >        4        6       12       15       16 </v>
   <v type="int" >        4        3        4        7       13 </v>
   <v type="int" >        4        3        6        7       13 </v>
   <v type="int" >        4        6        7       13       16 </v>
   <v type="int" >        4        4        7       13       14 </v>
   <v type="int" >        4        7       13       14       17 </v>
   <v type="int" >        4        7       13       16       17 </v>
   <v type="int" >        4        3        4        6       14 </v>
   <v type="int" >        4        4        6        7       14 </v>
   <v type="int" >        4        6        7       14       17 </v>
   <v type="int" >        4        3        6       13       14 </v>
   <v type="int" >        4        6       13       14       16 </v>
   <v type="int" >        4        6       14       16       17 </v>
   <v type="int" >        4        2        3        5       13 </v>
   <v type="int" >        4        3        5        6       13 </v>
   <v type="int" >        4        5        6       13       16 </v>
   <v type="int" >        4        2        5       12       13 </v>
   <v type="int" >        4        5       12       13       15 </v>
   <v type="int" >        4        5       13       15       16 </v>
   <v type="int" >        4        1        2        2       12 </v>
   <v type="int" >        4        2        2        5       12 </v>
   <v type="int" >        4        2        5       12       15 </v>
   <v type="int" >        4        1        2       11       12 </v>
   <v type="int" >        4        2       11       12       12 </v>
   <v type="int" >        4        2       12       12       15 </v>
   <v type="int" >        4        5        6        8       15 </v>
   <v type="int" >        4        6        8       15       16 </v>
   <v type="int" >        4        8       15       16       18 </v>
   <v type="int" >        4        6        7        9       16 </v>
   <v type="int" >        4        6        8        9       16 </v>
   <v type="int" >        4        8        9       16       18 </v>
   <v type="int" >        4        7        9       16       17 </v>
   <v type="int" >        4        9       16       17       19 </v>
   <v type="int" >        4        9       16       18       19 </v>
   <v type="int" >        4        6        7        8       17 </v>
   <v type="int" >        4        7        8        9       17 </v>
   <v type="int" >        4        8        9       17       19 </v>
   <v type="int" >        4        6        8       16       17 </v>
   <v type="int" >        4        8       16       17       18 </v>
   <v type="int" >        4        8       17       18       19 </v>
   <v type="int" >        4        5        6        6       16 </v>
   <v type="int" >        4        6        6        8       16 </v>
   <v type="int" >        4        6        8       16       18 </v>
   <v type="int" >        4        5        6       15       16 </v>
   <v type="int" >        4        6       15       16       16 </v>
   <v type="int" >        4        6       16       16       18 </v>
   <v type="int" >        4        2        3        5       15 </v>
   <v type="int" >        4        3        5        6       15 </v>
   <v type="int" >        4        3        6       15       16 </v>
   <v type="int" >        4        2        3       12       15 </v>
   <v type="int" >        4        3       12       13       15 </v>
   <v type="int" >        4        3       13       15       16 </v>
   <v type="int" >        4        8        9       10       18 </v>
   <v type="int" >        4        9       10       18       19 </v>
   <v type="int" >        4       10       18       19       20 </v>
   <v type="int" >        4        8        9        9       19 </v>
   <v type="int" >        4        9        9       10       19 </v>
   <v type="int" >        4        9       10       19       20 </v>
   <v type="int" >        4        8        9       18       19 </v>
   <v type="int" >        4        9       18       19       19 </v>
   <v type="int" >        4        9       19       19       20 </v>
   <v type="int" >        4        6        7        8       18 </v>
   <v type="int" >        4        7        8        9       18 </v>
   <v type="int" >        4        7        9       18       19 </v>
   <v type="int" >        4        6        7       16       18 </v>
   <v type="int" >        4        7       16       17       18 </v>
   <v type="int" >        4        7       17       18       19 </v>
   <v type="int" >        4        3        4        6       16 </v>
   <v type="int" >        4        4        6        7       16 </v>
   <v type="int" >        4        4        7       16       17 </v>
   <v type="int" >        4        3        4       13       16 </v>
   <v type="int" >        4        4       13       14       16 </v>
   <v type="int" >        4        4       14       16       17 </v>
   <v type="int" >        4        8        9       10       20 </v>
   <v type="int" >        4        8        9       19       20 </v>
   <v type="int" >        4        8       18       19       20 </v>
   <v type="int" >        4        6        7        9       19 </v>
   <v type="int" >        4        6        8        9       19 </v>
   <v type="int" >        4        6        8       18       19 </v>
   <v type="int" >        4        6        7       17       19 </v>
   <v type="int" >        4        6       16       17       19 </v>
   <v type="int" >        4        6       16       18       19 </v>
   <v type="int" >        4        3        4        7       17 </v>
   <v type="int" >        4        3        6        7       17 </v>
   <v type="int" >        4        3        6       16       17 </v>
   <v type="int" >        4        3        4       14       17 </v>
   <v type="int" >        4        3       13       14       17 </v>
   <v type="int" >        4        3       13       16       17 </v>
   <v type="int" >        4        5        6        8       18 </v>
   <v type="int" >        4        5        6       16       18 </v>
   <v type="int" >        4        5       15       16       18 </v>
   <v type="int" >        4        2        3        6       16 </v>
   <v type="int" >        4        2        5        6       16 </v>
   <v type="int" >        4        2        5       15       16 </v>
   <v type="int" >        4        2        3       13       16 </v>
   <v type="int" >        4        2       12       13       16 </v>
   <v type="int" >        4        2       12       15       16 </v>
   <v type="int" >        4        1        2        5       15 </v>
   <v type="int" >        4        1        2       12       15 </v>
   <v type="int" >        4        1       11       12       15 </v>
   <v type="int" >        4       11       12       15       21 </v>
   <v type="int" >        4       12       15       21       22 </v>
   <v type="int" >        4       15       21       22       25 </v>
   <v type="int" >        4       12       13       16       22 </v>
   <v type="int" >        4       12       15       16       22 </v>
   <v type="int" >        4       15       16       22       25 </v>
   <v type="int" >        4       13       16       22       23 </v>
   <v type="int" >        4       16       22       23       26 </v>
   <v type="int" >        4       16       22       25       26 </v>
   <v type="int" >        4       13       14       17       23 </v>
   <v type="int" >        4       13       16       17       23 </v>
   <v type="int" >        4       16       17       23       26 </v>
   <v type="int" >        4       14       17       23       24 </v>
   <v type="int" >        4       17       23       24       27 </v>
   <v type="int" >        4       17       23       26       27 </v>
   <v type="int" >        4       13       14       16       24 </v>
   <v type="int" >        4       14       16       17       24 </v>
   <v type="int" >        4       16       17       24       27 </v>
   <v type="int" >        4       13       16       23       24 </v>
   <v type="int" >        4       16       23       24       26 </v>
   <v type="int" >        4       16       24       26       27 </v>
   <v type="int" >        4       12       13       15       23 </v>
   <v type="int" >        4       13       15       16       23 </v>
   <v type="int" >        4       15       16       23       26 </v>
   <v type="int" >        4       12       15       22       23 </v>
   <v type="int" >        4       15       22       23       25 </v>
   <v type="int" >        4       15       23       25       26 </v>
   <v type="int" >        4       11       12       12       22 </v>
   <v type="int" >        4       12       12       15       22 </v>
   <v type="int" >        4       12       15       22       25 </v>
   <v type="int" >        4       11       12       21       22 </v>
   <v type="int" >        4       12       21       22       22 </v>
   <v type="int" >        4       12       22       22       25 </v>
   <v type="int" >        4       15       16       18       25 </v>
   <v type="int" >        4       16       18       25       26 </v>
   <v type="int" >        4       18       25       26       28 </v>
   <v type="int" >        4       16       17       19       26 </v>
   <v type="int" >        4       16       18       19       26 </v>
   <v type="int" >        4       18       19       26       28 </v>
   <v type="int" >        4       17       19       26       27 </v>
   <v type="int" >        4       19       26       27       29 </v>
   <v type="int" >        4       19       26       28       29 </v>
   <v type="int" >        4       16       17       18       27 </v>
   <v type="int" >        4       17       18       19       27 </v>
   <v type="int" >        4       18       19       27       29 </v>
   <v type="int" >        4       16       18       26       27 </v>
   <v type="int" >        4       18       26       27       28 </v>
   <v type="int" >        4       18       27       28       29 </v>
   <v type="int" >        4       15       16       16       26 </v>
   <v type="int" >        4       16       16       18       26 </v>
   <v type="int" >        4       16       18       26       28 </v>
   <v type="int" >        4       15       16       25       26 </v>
   <v type="int" >        4       16       25       26       26 </v>
   <v type="int" >        4       16       26       26       28 </v>
   <v type="int" >        4       12       13       15       25 </v>
   <v type="int" >        4       13       15       16       25 </v>
   <v type="int" >        4       13       16       25       26 </v>
   <v type="int" >        4       12       13       22       25 </v>
   <v type="int" >        4       13       22       23       25 </v>
   <v type="int" >        4       13       23       25       26 </v>
   <v type="int" >        4       18       19       20       28 </v>
   <v type="int" >        4       19       20       28       29 </v>
   <v type="int" >        4       20       28       29       30 </v>
   <v type="int" >        4       18       19       19       29 </v>
   <v type="int" >        4       19       19       20       29 </v>
   <v type="int" >        4       19       20       29       30 </v>
   <v type="int" >        4       18       19       28       29 </v>
   <v type="int" >        4       19       28       29       29 </v>
   <v type="int" >        4       19       29       29       30 </v>
   <v type="int" >        4       16       17       18       28 </v>
   <v type="int" >        4       17       18       19       28 </v>
   <v type="int" >        4       17       19       28       29 </v>
   <v type="int" >        4       16       17       26       28 </v>
   <v type="int" >        4       17       26       27       28 </v>
   <v type="int" >        4       17       27       28       29 </v>
   <v type="int" >        4       13       14       16       26 </v>
   <v type="int" >        4       14       16       17       26 </v>
   <v type="int" >        4       14       17       26       27 </v>
   <v type="int" >        4       13       14       23       26 </v>
   <v type="int" >        4       14       23       24       26 </v>
   <v type="int" >        4       14       24       26       27 </v>
   <v type="int" >        4       18       19       20       30 </v>
   <v type="int" >        4       18       19       29       30 </v>
   <v type="int" >        4       18       28       29       30 </v>
   <v type="int" >        4       16       17       19       29 </v>
   <v type="int" >        4       16       18       19       29 </v>
   <v type="int" >        4       16       18       28       29 </v>
   <v type="int" >        4       16       17       27       29 </v>
   <v type="int" >        4       16       26       27       29 </v>
   <v type="int" >        4       16       26       28       29 </v>
   <v type="int" >        4       13       14       17       27 </v>
   <v type="int" >        4       13       16       17       27 </v>
   <v type="int" >        4       13       16       26       27 </v>
   <v type="int" >        4       13       14       24       27 </v>
   <v type="int" >        4       13       23       24       27 </v>
   <v type="int" >        4       13       23       26       27 </v>
   <v type="int" >        4       15       16       18       28 </v>
   <v type="int" >        4       15       16       26       28 </v>
   <v type="int" >        4       15       25       26       28 </v>
   <v type="int" >        4       12       13       16       26 </v>
   <v type="int" >        4       12       15       16       26 </v>
   <v type="int" >        4       12       15       25       26 </v>
   <v type="int" >        4       12       13       23       26 </v>
   <v type="int" >        4       12       22       23       26 </v>
   <v type="int" >        4       12       22       25       26 </v>
   <v type="int" >        4       11       12       15       25 </v>
   <v type="int" >        4       11       12       22       25 </v>
   <v type="int" >        4       11       21       22       25 </v>
   <v type="int" >        4       21       22       25       31 </v>
   <v type="int" >        4       22       25       31       32 </v>
   <v type="int" >        4       25       31       32       35 </v>
   <v type="int" >        4       22       23       26       32 </v>
   <v type="int" >        4       22       25       26       32 </v>
   <v type="int" >        4       25       26       32       35 </v>
   <v type="int" >        4       23       26       32       33 </v>
   <v type="int" >        4       26       32       33       36 </v>
   <v type="int" >        4       26       32       35       36 </v>
   <v type="int" >        4       23       24       27       33 </v>
   <v type="int" >        4       23       26       27       33 </v>
   <v type="int" >        4       26       27       33       36 </v>
   <v type="int" >        4       24       27       33       34 </v>
   <v type="int" >        4       27       33       34       37 </v>
   <v type="int" >        4       27       33       36       37 </v>
   <v type="int" >        4       23       24       26       34 </v>
   <v type="int" >        4       24       26       27       34 </v>
   <v type="int" >        4       26       27       34       37 </v>
   <v type="int" >        4       23       26       33       34 </v>
   <v type="int" >        4       26       33       34       36 </v>
   <v type="int" >        4       26       34       36       37 </v>
   <v type="int" >        4       22       23       25       33 </v>
   <v type="int" >        4       23       25       26       33 </v>
   <v type="int" >        4       25       26       33       36 </v>
   <v type="int" >        4       22       25       32       33 </v>
   <v type="int" >        4       25       32       33       35 </v>
   <v type="int" >        4       25       33       35       36 </v>
   <v type="int" >        4       21       22       22       32 </v>
   <v type="int" >        4       22       22       25       32 </v>
   <v type="int" >        4       22       25       32       35 </v>
   <v type="int" >        4       21       22       31       32 </v>
   <v type="int" >        4       22       31       32       32 </v>
   <v type="int" >        4       22       32       32       35 </v>
   <v type="int" >        4       25       26       28       35 </v>
   <v type="int" >        4       26       28       35       36 </v>
   <v type="int" >        4       28       35       36       38 </v>
   <v type="int" >        4       26       27       29       36 </v>
   <v type="int" >        4       26       28       29       36 </v>
   <v type="int" >        4       28       29       36       38 </v>
   <v type="int" >        4       27       29       36       37 </v>
   <v type="int" >        4       29       36       37       39 </v>
   <v type="int" >        4       29       36       38       39 </v>
   <v type="int" >        4       26       27       28       37 </v>
   <v type="int" >        4       27       28       29       37 </v>
   <v type="int" >        4       28       29       37       39 </v>
   <v type="int" >        4       26       28       36       37 </v>
   <v type="int" >        4       28       36       37       38 </v>
   <v type="int" >        4       28       37       38       39 </v>
   <v type="int" >        4       25       26       26       36 </v>
   <v type="int" >        4       26       26       28       36 </v>
   <v type="int" >        4       26       28       36       38 </v>
   <v type="int" >        4       25       26       35       36 </v>
   <v type="int" >        4       26       35       36       36 </v>
   <v type="int" >        4       26       36       36       38 </v>
   <v type="int" >        4       22       23       25       35 </v>
   <v type="int" >        4       23       25       26       35 </v>
   <v type="int" >        4       23       26       35       36 </v>
   <v type="int" >        4       22       23       32       35 </v>
   <v type="int" >        4       23       32       33       35 </v>
   <v type="int" >        4       23       33       35       36 </v>
   <v type="int" >        4       28       29       30       38 </v>
   <v type="int" >        4       29       30       38       39 </v>
   <v type="int" >        4       30       38       39       40 </v>
   <v type="int" >        4       28       29       29       39 </v>
   <v type="int" >        4       29       29       30       39 </v>
   <v type="int" >        4       29       30       39       40 </v>
   <v type="int" >        4       28       29       38       39 </v>
   <v type="int" >        4       29       38       39       39 </v>
   <v type="int" >        4       29       39       39       40 </v>
   <v type="int" >        4       26       27       28       38 </v>
   <v type="int" >        4       27       28       29       38 </v>
   <v type="int" >        4       27       29       38       39 </v>
   <v type="int" >        4       26       27       36       38 </v>
   <v type="int" >        4       27       36       37       38 </v>
   <v type="int" >        4       27       37       38       39 </v>
   <v type="int" >        4       23       24       26       36 </v>
   <v type="int" >        4       24       26       27       36 </v>
   <v type="int" >        4       24       27       36       37 </v>
   <v type="int" >        4       23       24       33       36 </v>
   <v type="int" >        4       24       33       34       36 </v>
   <v type="int" >        4       24       34       36       37 </v>
   <v type="int" >        4       28       29       30       40 </v>
   <v type="int" >        4       28       29       39       40 </v>
   <v type="int" >        4       28       38       39       40 </v>
   <v type="int" >        4       26       27       29       39 </v>
   <v type="int" >        4       26       28       29       39 </v>
   <v type="int" >        4       26       28       38       39 </v>
   <v type="int" >        4       26       27       37       39 </v>
   <v type="int" >        4       26       36       37       39 </v>
   <v type="int" >        4       26       36       38       39 </v>
   <v type="int" >        4       23       24       27       37 </v>
   <v type="int" >        4       23       26       27       37 </v>
   <v type="int" >        4       23       26       36       37 </v>
   <v type="int" >        4       23       24       34       37 </v>
   <v type="int" >        4       23       33       34       37 </v>
   <v type="int" >        4       23       33       36       37 </v>
   <v type="int" >        4       25       26       28       38 </v>
   <v type="int" >        4       25       26       36       38 </v>
   <v type="int" >        4       25       35       36       38 </v>
   <v type="int" >        4       22       23       26       36 </v>
   <v type="int" >        4       22       25       26       36 </v>
   <v type="int" >        4       22       25       35       36 </v>
   <v type="int" >        4       22       23       33       36 </v>
   <v type="int" >        4       22       32       33       36 </v>
   <v type="int" >        4       22       32       35       36 </v>
   <v type="int" >        4       21       22       25       35 </v>
   <v type="int" >        4       21       22       32       35 </v>
   <v type="int" >        4       21       31       32       35 </v>
  </varray>
  <i name="volumeweight">      0.00077160 </i>
 </kpoints>
 <parameters>
  <separator name="general" >
   <i type="string" name="SYSTEM">unknown system</i>
   <i type="logical" name="LCOMPAT"> F  </i>
  </separator>
  <separator name="electronic" >
   <i type="string" name="PREC">accura</i>
   <i name="ENMAX">    520.00000000</i>
   <i name="ENAUG">    605.39200000</i>
   <i name="EDIFF">      0.00025000</i>
   <i type="int" name="IALGO">    68</i>
   <i type="int" name="IWAVPR">    11</i>
   <i type="int" name="NBANDS">    32</i>
   <i name="NELECT">     38.00000000</i>
   <i type="int" name="TURBO">     0</i>
   <i type="int" name="IRESTART">     0</i>
   <i type="int" name="NREBOOT">     0</i>
   <i type="int" name="NMIN">     0</i>
   <i name="EREF">      0.00000000</i>
   <separator name="electronic smearing" >
    <i type="int" name="ISMEAR">    -5</i>
    <i name="SIGMA">      0.05000000</i>
    <i name="KSPACING">      0.50000000</i>
    <i type="logical" name="KGAMMA"> T  </i>
   </separator>
   <separator name="electronic projectors" >
    <i type="logical" name="LREAL"> T  </i>
    <v name="ROPT">     -0.00025000     -0.00025000     -0.00025000</v>
    <i type="int" name="LMAXPAW">  -100</i>
    <i type="int" name="LMAXMIX">     2</i>
    <i type="logical" name="NLSPLINE"> F  </i>
   </separator>
   <separator name="electronic startup" >
    <i type="int" name="ISTART">     0</i>
    <i type="int" name="ICHARG">     1</i>
    <i type="int" name="INIWAV">     1</i>
   </separator>
   <separator name="electronic spin" >
    <i type="int" name="ISPIN">     2</i>
    <i type="logical" name="LNONCOLLINEAR"> F  </i>
    <v name="MAGMOM">      0.60000000      0.60000000      0.60000000      0.60000000      0.60000000</v>
    <i name="NUPDOWN">     -1.00000000</i>
    <i type="logical" name="LSORBIT"> F  </i>
    <v name="SAXIS">      0.00000000      0.00000000      1.00000000</v>
    <i type="logical" name="LSPIRAL"> F  </i>
    <v name="QSPIRAL">      0.00000000      0.00000000      0.00000000</v>
    <i type="logical" name="LZEROZ"> F  </i>
   </separator>
   <separator name="electronic exchange-correlation" >
    <i type="logical" name="LASPH"> F  </i>
    <i type="logical" name="LMETAGGA"> F  </i>
   </separator>
   <separator name="electronic convergence" >
    <i type="int" name="NELM">   100</i>
    <i type="int" name="NELMDL">     0</i>
    <i type="int" name="NELMIN">     2</i>
    <i name="ENINI">    520.00000000</i>
    <separator name="electronic convergence detail" >
     <i type="logical" name="LDIAG"> T  </i>
     <i type="logical" name="LSUBROT"> F  </i>
     <i name="WEIMIN">      0.00100000</i>
     <i name="EBREAK">      0.00000195</i>
     <i name="DEPER">      0.30000000</i>
     <i type="int" name="NRMM">     4</i>
     <i name="TIME">      0.40000000</i>
    </separator>
   </separator>
   <separator name="electronic mixer" >
    <i name="AMIX">      0.40000000</i>
    <i name="BMIX">      1.00000000</i>
    <i name="AMIN">      0.10000000</i>
    <i name="AMIX_MAG">      1.60000000</i>
    <i name="BMIX_MAG">      1.00000000</i>
    <separator name="electronic mixer details" >
     <i type="int" name="IMIX">     4</i>
     <i type="int" name="MAXMIX">   -45</i>
     <i name="WC">    100.00000000</i>
     <i type="int" name="INIMIX">     1</i>
     <i type="int" name="MIXPRE">     1</i>
     <i type="int" name="MREMOVE">     5</i>
    </separator>
   </separator>
   <separator name="electronic dipolcorrection" >
    <i type="logical" name="LDIPOL"> F  </i>
    <i type="logical" name="LMONO"> F  </i>
    <i type="int" name="IDIPOL">     0</i>
    <i name="EPSILON">      1.00000000</i>
    <v name="DIPOL">   -100.00000000   -100.00000000   -100.00000000</v>
    <i name="EFIELD">      0.00000000</i>
   </separator>
  </separator>
  <separator name="grids" >
   <i type="int" name="NGX">    30</i>
   <i type="int" name="NGY">    30</i>
   <i type="int" name="NGZ">    32</i>
   <i type="int" name="NGXF">    60</i>
   <i type="int" name="NGYF">    60</i>
   <i type="int" name="NGZF">    64</i>
   <i type="logical" name="ADDGRID"> F  </i>
  </separator>
  <separator name="ionic" >
   <i type="int" name="NSW">    99</i>
   <i type="int" name="IBRION">     2</i>
   <i type="int" name="ISIF">     3</i>
   <i name="PSTRESS">      0.00000000</i>
   <i name="EDIFFG">      0.00250000</i>
   <i type="int" name="NFREE">     1</i>
   <i name="POTIM">      0.50000000</i>
   <i name="SMASS">     -3.00000000</i>
   <i name="SCALEE">      1.00000000</i>
  </separator>
  <separator name="ionic md" >
   <i name="TEBEG">      0.00010000</i>
   <i name="TEEND">      0.00010000</i>
   <i type="int" name="NBLOCK">     1</i>
   <i type="int" name="KBLOCK">    99</i>
   <i type="int" name="NPACO">   256</i>
   <i name="APACO">     16.00000000</i>
  </separator>
  <separator name="symmetry" >
   <i type="int" name="ISYM">     2</i>
   <i name="SYMPREC">      0.00001000</i>
  </separator>
  <separator name="dos" >
   <i type="logical" name="LORBIT"> F  </i>
   <v name="RWIGS">     -1.00000000     -1.00000000     -1.00000000</v>
   <i type="int" name="NEDOS">   301</i>
   <i name="EMIN">     10.00000000</i>
   <i name="EMAX">    -10.00000000</i>
   <i name="EFERMI">      0.00000000</i>
  </separator>
  <separator name="writing" >
   <i type="int" name="NWRITE">     2</i>
   <i type="logical" name="LWAVE"> F  </i>
   <i type="logical" name="LCHARG"> T  </i>
   <i type="logical" name="LPARD"> F  </i>
   <i type="logical" name="LVTOT"> F  </i>
   <i type="logical" name="LVHAR"> F  </i>
   <i type="logical" name="LELF"> F  </i>
   <i type="logical" name="LOPTICS"> F  </i>
   <v name="STM">      0.00000000      0.00000000      0.00000000      0.00000000      0.00000000      0.00000000      0.00000000</v>
  </separator>
  <separator name="performance" >
   <i type="int" name="NPAR">     8</i>
   <i type="int" name="NSIM">     4</i>
   <i type="int" name="NBLK">    -1</i>
   <i type="logical" name="LPLANE"> T  </i>
   <i type="logical" name="LSCALAPACK"> T  </i>
   <i type="logical" name="LSCAAWARE"> F  </i>
   <i type="logical" name="LSCALU"> F  </i>
   <i type="logical" name="LASYNC"> F  </i>
   <i type="logical" name="LORBITALREAL"> F  </i>
  </separator>
  <separator name="miscellaneous" >
   <i type="int" name="IDIOT">     3</i>
   <i type="logical" name="LMUSIC"> F  </i>
   <v name="POMASS">    137.32700000     47.88000000     16.00000000</v>
   <v name="DARWINR">      0.00000000      0.00000000      0.00000000</v>
   <v name="DARWINV">      1.00000000      1.00000000      1.00000000</v>
   <i type="logical" name="LCORR"> T  </i>
  </separator>
  <i type="logical" name="GGA_COMPAT"> T  </i>
  <i type="logical" name="LBERRY"> F  </i>
  <i type="int" name="ICORELEVEL">     0</i>
  <i type="logical" name="LDAU"> F  </i>
  <i type="int" name="I_CONSTRAINED_M">     0</i>
  <separator name="electronic exchange-correlation" >
   <i type="string" name="GGA">--</i>
   <i type="int" name="VOSKOWN">     0</i>
   <i type="logical" name="LHFCALC"> F  </i>
   <i type="string" name="PRECFOCK"></i>
   <i type="logical" name="LSYMGRAD"> F  </i>
   <i type="logical" name="LHFONE"> F  </i>
   <i type="logical" name="LRHFCALC"> F  </i>
   <i type="logical" name="LTHOMAS"> F  </i>
   <i type="logical" name="LMODELHF"> F  </i>
   <i name="ENCUT4O">     -1.00000000</i>
   <i type="int" name="EXXOEP">     0</i>
   <i type="int" name="FOURORBIT">     0</i>
   <i name="AEXX">      0.00000000</i>
   <i name="HFALPHA">      0.00000000</i>
   <i name="MCALPHA">      0.00000000</i>
   <i name="ALDAX">      1.00000000</i>
   <i name="AGGAX">      1.00000000</i>
   <i name="ALDAC">      1.00000000</i>
   <i name="AGGAC">      1.00000000</i>
   <i type="int" name="NKREDX">     1</i>
   <i type="int" name="NKREDY">     1</i>
   <i type="int" name="NKREDZ">     1</i>
   <i type="logical" name="SHIFTRED"> F  </i>
   <i type="logical" name="ODDONLY"> F  </i>
   <i type="logical" name="EVENONLY"> F  </i>
   <i type="int" name="LMAXFOCK">     0</i>
   <i type="int" name="NMAXFOCKAE">     0</i>
   <i type="logical" name="LFOCKAEDFT"> F  </i>
   <i name="HFSCREEN">      0.00000000</i>
   <i name="HFSCREENC">      0.00000000</i>
   <i type="int" name="NBANDSGWLOW">     0</i>
  </separator>
  <separator name="vdW DFT" >
   <i type="logical" name="LUSE_VDW"> F  </i>
   <i name="Zab_VDW">     -0.84910000</i>
   <i name="PARAM1">      0.12340000</i>
   <i name="PARAM2">      1.00000000</i>
   <i name="PARAM3">      0.00000000</i>
  </separator>
  <separator name="model GW" >
   <i type="int" name="MODEL_GW">     0</i>
   <i name="MODEL_EPS0">      8.08840363</i>
   <i name="MODEL_ALPHA">      1.00000000</i>
  </separator>
  <separator name="linear response parameters" >
   <i type="logical" name="LEPSILON"> F  </i>
   <i type="logical" name="LRPA"> F  </i>
   <i type="logical" name="LNABLA"> F  </i>
   <i type="logical" name="LVEL"> F  </i>
   <i type="int" name="KINTER">     0</i>
   <i name="CSHIFT">      0.10000000</i>
   <i name="OMEGAMAX">     -1.00000000</i>
   <i name="DEG_THRESHOLD">      0.00200000</i>
  </separator>
  <separator name="orbital magnetization" >
   <i type="logical" name="NUCIND"> F  </i>
   <v name="MAGPOS">      0.00000000      0.00000000      0.00000000</v>
   <i type="logical" name="LNICSALL"> T  </i>
   <i type="logical" name="ORBITALMAG"> F  </i>
   <i type="logical" name="LMAGBLOCH"> F  </i>
   <i type="logical" name="LCHIMAG"> F  </i>
   <i type="logical" name="LGAUGE"> T  </i>
   <i type="int" name="MAGATOM">     0</i>
   <v name="MAGDIPOL">      0.00000000      0.00000000      0.00000000</v>
   <v name="AVECCONST">      0.00000000      0.00000000      0.00000000</v>
  </separator>
  <separator name="response functions" >
   <i type="logical" name="LADDER"> F  </i>
   <i type="logical" name="LFXC"> F  </i>
   <i type="logical" name="LHARTREE"> T  </i>
   <i type="int" name="IBSE">     0</i>
   <i type="logical" name="LTCTE"> F  </i>
   <i type="logical" name="LTETE"> F  </i>
   <i type="logical" name="LTRIPLET"> F  </i>
   <i type="logical" name="LFXCEPS"> F  </i>
   <i type="logical" name="LFXHEG"> F  </i>
   <i type="logical" name="L2ORDER"> F  </i>
   <i type="logical" name="LUSEW"> F  </i>
   <i name="ENCUTGW">     -2.00000000</i>
   <i name="ENCUTGWSOFT">     -2.00000000</i>
   <i name="ENCUTLF">     -1.00000000</i>
   <i type="int" name="LMAXMP2">    -1</i>
   <i name="SCISSOR">      0.00000000</i>
   <i type="int" name="NOMEGA">     0</i>
   <i type="int" name="NOMEGAR">     0</i>
   <i type="int" name="NBANDSGW">    -1</i>
   <i type="int" name="NBANDSO">    -1</i>
   <i type="int" name="NBANDSV">    -1</i>
   <i type="int" name="NELM">   100</i>
   <i type="int" name="DIM">     3</i>
   <i type="int" name="ANTIRES">     0</i>
   <i name="OMEGAMAX">    -30.00000000</i>
   <i name="OMEGAMIN">    -30.00000000</i>
   <i name="OMEGATL">   -200.00000000</i>
   <i type="int" name="OMEGAGRID">     0</i>
   <i name="CSHIFT">     -0.10000000</i>
   <i type="logical" name="SELFENERGY"> F  </i>
   <i type="logical" name="LSPECTRAL"> F  </i>
   <i type="logical" name="ODDONLYGW"> F  </i>
   <i type="logical" name="EVENONLYGW"> F  </i>
   <i type="int" name="NKREDLFX">     1</i>
   <i type="int" name="NKREDLFY">     1</i>
   <i type="int" name="NKREDLFZ">     1</i>
   <i type="int" name="MAXMEM">  1800</i>
   <i type="int" name="TELESCOPE">     0</i>
   <i type="int" name="TAUPAR">     1</i>
  </separator>
  <separator name="External order field" >
   <i name="OFIELD_KAPPA">      0.00000000</i>
   <v name="OFIELD_K">      0.00000000      0.00000000      0.00000000</v>
   <i name="OFIELD_Q6_NEAR">      0.00000000</i>
   <i name="OFIELD_Q6_FAR">      0.00000000</i>
   <i name="OFIELD_A">      0.00000000</i>
  </separator>
 </parameters>
 <atominfo>
  <atoms>       5 </atoms>
  <types>       3 </types>
  <array name="atoms" >
   <dimension dim="1">ion</dimension>
   <field type="string">element</field>
   <field type="int">atomtype</field>
   <set>
    <rc><c>Ba</c><c>   1</c></rc>
    <rc><c>Ti</c><c>   2</c></rc>
    <rc><c>O </c><c>   3</c></rc>
    <rc><c>O </c><c>   3</c></rc>
    <rc><c>O </c><c>   3</c></rc>
   </set>
  </array>
  <array name="atomtypes" >
   <dimension dim="1">type</dimension>
   <field type="int">atomspertype</field>
   <field type="string">element</field>
   <field>mass</field>
   <field>valence</field>
   <field type="string">pseudopotential</field>
   <set>
    <rc><c>   1</c><c>Ba</c><c>    137.32700000</c><c>     10.00000000</c><c>  PAW_PBE Ba_sv 06Sep2000               </c></rc>
    <rc><c>   1</c><c>Ti</c><c>     47.88000000</c><c>     10.00000000</c><c>  PAW_PBE Ti_pv 07Sep2000               </c></rc>
    <rc><c>   3</c><c>O </c><c>     16.00000000</c><c>      6.00000000</c><c>  PAW_PBE O 08Apr2002                   </c></rc>
   </set>
  </array>
 </atominfo>
 <structure name="initialpos" >
  <crystal>
   <varray name="basis" >
    <v>       3.99959604       0.00000000       0.00000000 </v>
    <v>       0.00000000       3.99959604       0.00000000 </v>
    <v>       0.00000000       0.00000000       4.21356125 </v>
   </varray>
   <i name="volume">     67.40336360 </i>
   <varray name="rec_basis" >
    <v>       0.25002525       0.00000000       0.00000000 </v>
    <v>       0.00000000       0.25002525       0.00000000 </v>
    <v>       0.00000000       0.00000000       0.23732893 </v>
   </varray>
  </crystal>
  <varray name="positions" >
   <v>       0.00000000       0.00000000       0.02025324 </v>
   <v>       0.50000000       0.50000000       0.53893418 </v>
   <v>       0.00000000       0.50000000       0.49202229 </v>
   <v>       0.50000000       0.00000000       0.49202229 </v>
   <v>       0.50000000       0.50000000       0.97076701 </v>
  </varray>
 </structure>
 <calculation>
  <scstep>
   <time name="dav">    8.55    8.58</time>
   <time name="total">    8.72    8.74</time>
   <energy>
    <i name="alphaZ">    248.59648671 </i>
    <i name="ewald">  -2471.33680366 </i>
    <i name="hartreedc">   -660.49238387 </i>
    <i name="XCdc">    146.56018586 </i>
    <i name="pawpsdc">   3656.79466687 </i>
    <i name="pawaedc">  -3666.03589653 </i>
    <i name="eentropy">      0.00000000 </i>
    <i name="bandstr">     49.11392452 </i>
    <i name="atom">   3040.52701931 </i>
    <i name="e_fr_energy">    343.72719921 </i>
    <i name="e_wo_entrp">    343.72719921 </i>
    <i name="e_0_energy">    343.72719921 </i>
   </energy>
  </scstep>
  <scstep>
   <time name="dav">    9.62    9.62</time>
   <time name="total">    9.63    9.64</time>
   <energy>
    <i name="e_fr_energy">    -13.13405854 </i>
    <i name="e_wo_entrp">    -13.13405854 </i>
    <i name="e_0_energy">    -13.13405854 </i>
   </energy>
  </scstep>
  <scstep>
   <time name="dav">   10.05   10.06</time>
   <time name="total">   10.06   10.08</time>
   <energy>
    <i name="e_fr_energy">    -39.36299140 </i>
    <i name="e_wo_entrp">    -39.36299140 </i>
    <i name="e_0_energy">    -39.36299140 </i>
   </energy>
  </scstep>
  <scstep>
   <time name="dav">   10.37   10.39</time>
   <time name="total">   10.38   10.40</time>
   <energy>
    <i name="e_fr_energy">    -39.93346512 </i>
    <i name="e_wo_entrp">    -39.93346512 </i>
    <i name="e_0_energy">    -39.93346512 </i>
   </energy>
  </scstep>
  <scstep>
   <time name="dav">   10.05   10.07</time>
   <time name="total">   10.53   10.55</time>
   <energy>
    <i name="e_fr_energy">    -39.94542670 </i>
    <i name="e_wo_entrp">    -39.94542670 </i>
    <i name="e_0_energy">    -39.94542670 </i>
   </energy>
  </scstep>
  <scstep>
   <time name="diag">    1.41    1.42</time>
   <time name="diis">    4.09    4.10</time>
   <time name="orth">    0.08    0.08</time>
   <time name="total">    6.17    7.62</time>
   <energy>
    <i name="e_fr_energy">    -39.94281926 </i>
    <i name="e_wo_entrp">    -39.94281926 </i>
    <i name="e_0_energy">    -39.94281926 </i>
   </energy>
  </scstep>
  <scstep>
   <time name="diag">    1.41    1.42</time>
   <time name="diis">    3.26    3.26</time>
   <time name="orth">    0.08    0.08</time>
   <time name="total">    4.87    4.88</time>
   <energy>
    <i name="alphaZ">    248.59648671 </i>
    <i name="ewald">  -2471.33680366 </i>
    <i name="hartreedc">   -660.45207198 </i>
    <i name="XCdc">    146.55913458 </i>
    <i name="pawpsdc">   3657.51791744 </i>
    <i name="pawaedc">  -3666.76527520 </i>
    <i name="eentropy">      0.00000000 </i>
    <i name="bandstr">   -334.58921478 </i>
    <i name="atom">   3040.52701931 </i>
    <i name="e_fr_energy">    -39.94280758 </i>
    <i name="e_wo_entrp">    -39.94280758 </i>
    <i name="e_0_energy">    -39.94280758 </i>
   </energy>
  </scstep>
  <structure>
   <crystal>
    <varray name="basis" >
     <v>       3.99959604       0.00000000       0.00000000 </v>
     <v>       0.00000000       3.99959604       0.00000000 </v>
     <v>       0.00000000       0.00000000       4.21356125 </v>
    </varray>
    <i name="volume">     67.40336360 </i>
    <varray name="rec_basis" >
     <v>       0.25002525       0.00000000       0.00000000 </v>
     <v>       0.00000000       0.25002525       0.00000000 </v>
     <v>       0.00000000       0.00000000       0.23732893 </v>
    </varray>
   </crystal>
   <varray name="positions" >
    <v>       0.00000000       0.00000000       0.02025324 </v>
    <v>       0.50000000       0.50000000       0.53893418 </v>
    <v>       0.00000000       0.50000000       0.49202229 </v>
    <v>       0.50000000       0.00000000       0.49202229 </v>
    <v>       0.50000000       0.50000000       0.97076701 </v>
   </varray>
  </structure>
  <varray name="forces" >
   <v>       0.00000000      -0.00000000       0.00390217 </v>
   <v>       0.00000000      -0.00000000      -0.01635546 </v>
   <v>       0.00000000      -0.00000000       0.00002022 </v>
   <v>      -0.00000000       0.00000000       0.00002022 </v>
   <v>       0.00000000       0.00000000       0.01241284 </v>
  </varray>
  <varray name="stress" >
   <v>       2.49341987       0.00000000       0.00000000 </v>
   <v>       0.00000000       2.49341987       0.00000000 </v>
   <v>       0.00000000      -0.00000000       2.91500261 </v>
  </varray>
  <energy>
   <i name="e_fr_energy">    -39.94280758 </i>
   <i name="e_wo_entrp">    -39.94280758 </i>
   <i name="e_0_energy">      0.00000000 </i>
  </energy>
  <time name="totalsc">   73.40   75.08</time>
 </calculation>
 <calculation>
  <scstep>
   <time name="dav">   10.25   10.27</time>
   <time name="total">   10.82   10.86</time>
   <energy>
    <i name="alphaZ">    247.80082911 </i>
    <i name="ewald">  -2468.81451027 </i>
    <i name="hartreedc">   -659.66140631 </i>
    <i name="XCdc">    146.39994357 </i>
    <i name="pawpsdc">   3657.45914433 </i>
    <i name="pawaedc">  -3666.70611551 </i>
    <i name="eentropy">      0.00000000 </i>
    <i name="bandstr">   -336.94979030 </i>
    <i name="atom">   3040.52701931 </i>
    <i name="e_fr_energy">    -39.94488607 </i>
    <i name="e_wo_entrp">    -39.94488607 </i>
    <i name="e_0_energy">    -39.94488607 </i>
   </energy>
  </scstep>
  <scstep>
   <time name="diag">    1.41    1.41</time>
   <time name="diis">    4.40    4.40</time>
   <time name="orth">    0.08    0.08</time>
   <time name="total">    6.48    6.48</time>
   <energy>
    <i name="e_fr_energy">    -39.94311610 </i>
    <i name="e_wo_entrp">    -39.94311610 </i>
    <i name="e_0_energy">    -39.94311610 </i>
   </energy>
  </scstep>
  <scstep>
   <time name="diag">    1.41    1.41</time>
   <time name="diis">    4.01    4.01</time>
   <time name="orth">    0.08    0.08</time>
   <time name="total">    6.08    6.09</time>
   <energy>
    <i name="e_fr_energy">    -39.94274192 </i>
    <i name="e_wo_entrp">    -39.94274192 </i>
    <i name="e_0_energy">    -39.94274192 </i>
   </energy>
  </scstep>
  <scstep>
   <time name="diag">    1.41    1.41</time>
   <time name="diis">    2.96    2.96</time>
   <time name="orth">    0.08    0.08</time>
   <time name="total">    4.57    4.58</time>
   <energy>
    <i name="alphaZ">    247.80082911 </i>
    <i name="ewald">  -2468.81451027 </i>
    <i name="hartreedc">   -661.34800589 </i>
    <i name="XCdc">    146.51170126 </i>
    <i name="pawpsdc">   3641.09228676 </i>
    <i name="pawaedc">  -3650.31699418 </i>
    <i name="eentropy">      0.00000000 </i>
    <i name="bandstr">   -335.39505129 </i>
    <i name="atom">   3040.52701931 </i>
    <i name="e_fr_energy">    -39.94272519 </i>
    <i name="e_wo_entrp">    -39.94272519 </i>
    <i name="e_0_energy">    -39.94272519 </i>
   </energy>
  </scstep>
  <structure>
   <crystal>
    <varray name="basis" >
     <v>       4.00364407       0.00000000       0.00000000 </v>
     <v>       0.00000000       4.00364407       0.00000000 </v>
     <v>       0.00000000      -0.00000000       4.21854688 </v>
    </varray>
    <i name="volume">     67.61978741 </i>
    <varray name="rec_basis" >
     <v>       0.24977245       0.00000000       0.00000000 </v>
     <v>       0.00000000       0.24977245       0.00000000 </v>
     <v>       0.00000000       0.00000000       0.23704845 </v>
    </varray>
   </crystal>
   <varray name="positions" >
    <v>       0.00000000      -0.00000000       0.02029792 </v>
    <v>       0.50000000       0.50000000       0.53874692 </v>
    <v>       0.00000000       0.50000000       0.49202252 </v>
    <v>       0.50000000       0.00000000       0.49202252 </v>
    <v>       0.50000000       0.50000000       0.97090913 </v>
   </varray>
  </structure>
  <varray name="forces" >
   <v>       0.00000000       0.00000000      -0.00145590 </v>
   <v>      -0.00000000      -0.00000000       0.04963856 </v>
   <v>      -0.00000000      -0.00000000       0.00090402 </v>
   <v>      -0.00000000      -0.00000000       0.00090402 </v>
   <v>      -0.00000000       0.00000000      -0.04999069 </v>
  </varray>
  <varray name="stress" >
   <v>      -3.01618203       0.00000000       0.00000000 </v>
   <v>       0.00000000      -3.01618203       0.00000000 </v>
   <v>       0.00000000       0.00000000      -3.18597260 </v>
  </varray>
  <energy>
   <i name="e_fr_energy">    -39.94272519 </i>
   <i name="e_wo_entrp">    -39.94272519 </i>
   <i name="e_0_energy">      0.00000000 </i>
  </energy>
  <time name="totalsc">   39.97   40.04</time>
 </calculation>
 <calculation>
  <scstep>
   <time name="dav">   10.23   10.24</time>
   <time name="total">   10.81   10.82</time>
   <energy>
    <i name="alphaZ">    248.24776412 </i>
    <i name="ewald">  -2470.23218321 </i>
    <i name="hartreedc">   -661.75232706 </i>
    <i name="XCdc">    146.59903223 </i>
    <i name="pawpsdc">   3641.05104986 </i>
    <i name="pawaedc">  -3650.27412989 </i>
    <i name="eentropy">      0.00000000 </i>
    <i name="bandstr">   -334.10973183 </i>
    <i name="atom">   3040.52701931 </i>
    <i name="e_fr_energy">    -39.94350648 </i>
    <i name="e_wo_entrp">    -39.94350648 </i>
    <i name="e_0_energy">    -39.94350648 </i>
   </energy>
  </scstep>
  <scstep>
   <time name="diag">    1.41    1.42</time>
   <time name="diis">    4.26    4.26</time>
   <time name="orth">    0.08    0.08</time>
   <time name="total">    6.34    6.34</time>
   <energy>
    <i name="e_fr_energy">    -39.94298222 </i>
    <i name="e_wo_entrp">    -39.94298222 </i>
    <i name="e_0_energy">    -39.94298222 </i>
   </energy>
  </scstep>
  <scstep>
   <time name="diag">    1.41    1.41</time>
   <time name="diis">    2.92    2.92</time>
   <time name="orth">    0.08    0.08</time>
   <time name="total">    4.53    4.55</time>
   <energy>
    <i name="alphaZ">    248.24776412 </i>
    <i name="ewald">  -2470.23218321 </i>
    <i name="hartreedc">   -660.81144845 </i>
    <i name="XCdc">    146.53853322 </i>
    <i name="pawpsdc">   3649.99180409 </i>
    <i name="pawaedc">  -3659.23032547 </i>
    <i name="eentropy">      0.00000000 </i>
    <i name="bandstr">   -334.97403304 </i>
    <i name="atom">   3040.52701931 </i>
    <i name="e_fr_energy">    -39.94286944 </i>
    <i name="e_wo_entrp">    -39.94286944 </i>
    <i name="e_0_energy">    -39.94286944 </i>
   </energy>
  </scstep>
  <structure>
   <crystal>
    <varray name="basis" >
     <v>       4.00136808       0.00000000       0.00000000 </v>
     <v>       0.00000000       4.00136808       0.00000000 </v>
     <v>       0.00000000      -0.00000000       4.21574374 </v>
    </varray>
    <i name="volume">     67.49804754 </i>
    <varray name="rec_basis" >
     <v>       0.24991452       0.00000000       0.00000000 </v>
     <v>       0.00000000       0.24991452       0.00000000 </v>
     <v>       0.00000000       0.00000000       0.23720607 </v>
    </varray>
   </crystal>
   <varray name="positions" >
    <v>       0.00000000      -0.00000000       0.02027283 </v>
    <v>       0.50000000       0.50000000       0.53885208 </v>
    <v>       0.00000000       0.50000000       0.49202239 </v>
    <v>       0.50000000      -0.00000000       0.49202239 </v>
    <v>       0.50000000       0.50000000       0.97082932 </v>
   </varray>
  </structure>
  <varray name="forces" >
   <v>      -0.00000000      -0.00000000       0.00543039 </v>
   <v>      -0.00000000       0.00000000      -0.00211034 </v>
   <v>      -0.00000000      -0.00000000       0.00659516 </v>
   <v>       0.00000000      -0.00000000       0.00659516 </v>
   <v>      -0.00000000       0.00000000      -0.01651037 </v>
  </varray>
  <varray name="stress" >
   <v>      -1.12371291       0.00000000       0.00000000 </v>
   <v>       0.00000000      -1.12371291       0.00000000 </v>
   <v>       0.00000000       0.00000000      -1.28305481 </v>
  </varray>
  <energy>
   <i name="e_fr_energy">    -39.94286944 </i>
   <i name="e_wo_entrp">    -39.94286944 </i>
   <i name="e_0_energy">      0.00000000 </i>
  </energy>
  <time name="totalsc">   32.55   32.60</time>
  <eigenvalues>
   <array>
    <dimension dim="1">band</dimension>
    <dimension dim="2">kpoint</dimension>
    <dimension dim="3">spin</dimension>
    <field>eigene</field>
    <field>occ</field>
    <set>
     <set comment="spin 1">
      <set comment="kpoint 1">
       <r>  -30.0476    1.0000 </r>
       <r>  -29.9129    1.0000 </r>
       <r>  -29.9129    1.0000 </r>
       <r>  -22.1827    1.0000 </r>
       <r>  -13.9703    1.0000 </r>
       <r>  -13.3750    1.0000 </r>
       <r>  -13.2030    1.0000 </r>
       <r>   -7.3811    1.0000 </r>
       <r>   -7.3100    1.0000 </r>
       <r>   -7.3100    1.0000 </r>
       <r>    0.4450    1.0000 </r>
       <r>    0.5759    1.0000 </r>
       <r>    0.5759    1.0000 </r>
       <r>    1.3249    1.0000 </r>
       <r>    1.3249    1.0000 </r>
       <r>    1.7346    1.0000 </r>
       <r>    2.1142    1.0000 </r>
       <r>    2.4800    1.0000 </r>
       <r>    2.4800    1.0000 </r>
       <r>    4.7629    0.0000 </r>
       <r>    5.3837    0.0000 </r>
       <r>    5.3837    0.0000 </r>
       <r>    6.9171    0.0000 </r>
       <r>    7.1194    0.0000 </r>
       <r>    7.5196    0.0000 </r>
       <r>    8.0861    0.0000 </r>
       <r>    9.5838    0.0000 </r>
       <r>   11.0304    0.0000 </r>
       <r>   11.0304    0.0000 </r>
       <r>   11.1906    0.0000 </r>
       <r>   16.3313    0.0000 </r>
       <r>   19.3272    0.0000 </r>
      </set>
      <set comment="kpoint 2">
       <r>  -30.0471    1.0000 </r>
       <r>  -29.9254    1.0000 </r>
       <r>  -29.9125    1.0000 </r>
       <r>  -22.1573    1.0000 </r>
       <r>  -13.9810    1.0000 </r>
       <r>  -13.3545    1.0000 </r>
       <r>  -13.1848    1.0000 </r>
       <r>   -7.3487    1.0000 </r>
       <r>   -7.2702    1.0000 </r>
       <r>   -7.2458    1.0000 </r>
       <r>    0.1417    1.0000 </r>
       <r>    0.4100    1.0000 </r>
       <r>    0.5312    1.0000 </r>
       <r>    0.9808    1.0000 </r>
       <r>    1.1693    1.0000 </r>
       <r>    1.6295    1.0000 </r>
       <r>    1.8817    1.0000 </r>
       <r>    2.1671    1.0000 </r>
       <r>    2.2732    1.0000 </r>
       <r>    5.2228    0.0000 </r>
       <r>    5.4221    0.0000 </r>
       <r>    5.4403    0.0000 </r>
       <r>    7.0672    0.0000 </r>
       <r>    7.5800    0.0000 </r>
       <r>    8.0337    0.0000 </r>
       <r>    8.5739    0.0000 </r>
       <r>   10.2330    0.0000 </r>
       <r>   10.9692    0.0000 </r>
       <r>   11.2940    0.0000 </r>
       <r>   11.4792    0.0000 </r>
       <r>   16.4360    0.0000 </r>
       <r>   18.8882    0.0000 </r>
      </set>
      <set comment="kpoint 3">
       <r>  -30.0460    1.0000 </r>
       <r>  -29.9502    1.0000 </r>
       <r>  -29.9115    1.0000 </r>
       <r>  -22.1056    1.0000 </r>
       <r>  -14.0727    1.0000 </r>
       <r>  -13.3048    1.0000 </r>
       <r>  -13.0705    1.0000 </r>
       <r>   -7.2780    1.0000 </r>
       <r>   -7.1878    1.0000 </r>
       <r>   -7.1228    1.0000 </r>
       <r>   -0.6315    1.0000 </r>
       <r>    0.2541    1.0000 </r>
       <r>    0.3153    1.0000 </r>
       <r>    0.5534    1.0000 </r>
       <r>    1.0413    1.0000 </r>
       <r>    1.2753    1.0000 </r>
       <r>    1.4774    1.0000 </r>
       <r>    1.7045    1.0000 </r>
       <r>    1.8709    1.0000 </r>
       <r>    5.4239    0.0000 </r>
       <r>    6.0314    0.0000 </r>
       <r>    6.0476    0.0000 </r>
       <r>    7.0442    0.0000 </r>
       <r>    8.2195    0.0000 </r>
       <r>    9.1519    0.0000 </r>
       <r>    9.6283    0.0000 </r>
       <r>   10.8548    0.0000 </r>
       <r>   11.5203    0.0000 </r>
       <r>   12.0130    0.0000 </r>
       <r>   12.2138    0.0000 </r>
       <r>   16.2541    0.0000 </r>
       <r>   18.4343    0.0000 </r>
      </set>
      <set comment="kpoint 4">
       <r>  -30.0455    1.0000 </r>
       <r>  -29.9625    1.0000 </r>
       <r>  -29.9111    1.0000 </r>
       <r>  -22.0793    1.0000 </r>
       <r>  -14.1391    1.0000 </r>
       <r>  -13.2871    1.0000 </r>
       <r>  -12.9775    1.0000 </r>
       <r>   -7.2403    1.0000 </r>
       <r>   -7.1449    1.0000 </r>
       <r>   -7.0633    1.0000 </r>
       <r>   -0.9970    1.0000 </r>
       <r>    0.1598    1.0000 </r>
       <r>    0.1638    1.0000 </r>
       <r>    0.3607    1.0000 </r>
       <r>    1.0800    1.0000 </r>
       <r>    1.0821    1.0000 </r>
       <r>    1.3301    1.0000 </r>
       <r>    1.4748    1.0000 </r>
       <r>    1.7109    1.0000 </r>
       <r>    5.4543    0.0000 </r>
       <r>    6.3643    0.0000 </r>
       <r>    6.4658    0.0000 </r>
       <r>    6.9899    0.0000 </r>
       <r>    8.3858    0.0000 </r>
       <r>    9.7345    0.0000 </r>
       <r>   10.2940    0.0000 </r>
       <r>   10.8006    0.0000 </r>
       <r>   11.8573    0.0000 </r>
       <r>   12.2588    0.0000 </r>
       <r>   14.0464    0.0000 </r>
       <r>   15.4785    0.0000 </r>
       <r>   16.2305    0.0000 </r>
      </set>
      <set comment="kpoint 5">
       <r>  -30.0465    1.0000 </r>
       <r>  -29.9251    1.0000 </r>
       <r>  -29.9246    1.0000 </r>
       <r>  -22.1339    1.0000 </r>
       <r>  -13.9619    1.0000 </r>
       <r>  -13.3203    1.0000 </r>
       <r>  -13.1884    1.0000 </r>
       <r>   -7.3624    1.0000 </r>
       <r>   -7.3116    1.0000 </r>
       <r>   -7.1314    1.0000 </r>
       <r>   -0.0595    1.0000 </r>
       <r>    0.2631    1.0000 </r>
       <r>    0.3895    1.0000 </r>
       <r>    0.7968    1.0000 </r>
       <r>    0.9399    1.0000 </r>
       <r>    1.1874    1.0000 </r>
       <r>    1.7652    1.0000 </r>
       <r>    2.1349    1.0000 </r>
       <r>    2.4135    1.0000 </r>
       <r>    5.3188    0.0000 </r>
       <r>    5.5510    0.0000 </r>
       <r>    5.5590    0.0000 </r>
       <r>    7.3117    0.0000 </r>
       <r>    7.9918    0.0000 </r>
       <r>    8.5567    0.0000 </r>
       <r>    8.9280    0.0000 </r>
       <r>   10.5480    0.0000 </r>
       <r>   11.2111    0.0000 </r>
       <r>   11.2863    0.0000 </r>
       <r>   11.8301    0.0000 </r>
       <r>   16.5322    0.0000 </r>
       <r>   18.7204    0.0000 </r>
      </set>
      <set comment="kpoint 6">
       <r>  -30.0455    1.0000 </r>
       <r>  -29.9495    1.0000 </r>
       <r>  -29.9238    1.0000 </r>
       <r>  -22.0863    1.0000 </r>
       <r>  -13.9914    1.0000 </r>
       <r>  -13.2626    1.0000 </r>
       <r>  -13.1053    1.0000 </r>
       <r>   -7.3459    1.0000 </r>
       <r>   -7.2360    1.0000 </r>
       <r>   -7.1081    1.0000 </r>
       <r>   -0.7036    1.0000 </r>
       <r>    0.0271    1.0000 </r>
       <r>    0.2433    1.0000 </r>
       <r>    0.3711    1.0000 </r>
       <r>    0.6022    1.0000 </r>
       <r>    0.8816    1.0000 </r>
       <r>    1.6055    1.0000 </r>
       <r>    1.9127    1.0000 </r>
       <r>    2.2521    1.0000 </r>
       <r>    5.4573    0.0000 </r>
       <r>    6.0695    0.0000 </r>
       <r>    6.1267    0.0000 </r>
       <r>    7.3039    0.0000 </r>
       <r>    8.6976    0.0000 </r>
       <r>    9.6069    0.0000 </r>
       <r>    9.9004    0.0000 </r>
       <r>   11.1662    0.0000 </r>
       <r>   11.2746    0.0000 </r>
       <r>   11.8333    0.0000 </r>
       <r>   12.7250    0.0000 </r>
       <r>   16.4252    0.0000 </r>
       <r>   18.1529    0.0000 </r>
      </set>
      <set comment="kpoint 7">
       <r>  -30.0450    1.0000 </r>
       <r>  -29.9618    1.0000 </r>
       <r>  -29.9233    1.0000 </r>
       <r>  -22.0621    1.0000 </r>
       <r>  -14.0315    1.0000 </r>
       <r>  -13.2487    1.0000 </r>
       <r>  -13.0167    1.0000 </r>
       <r>   -7.2727    1.0000 </r>
       <r>   -7.1838    1.0000 </r>
       <r>   -7.1773    1.0000 </r>
       <r>   -1.0447    1.0000 </r>
       <r>   -0.0248    1.0000 </r>
       <r>    0.0519    1.0000 </r>
       <r>    0.1538    1.0000 </r>
       <r>    0.4697    1.0000 </r>
       <r>    1.0385    1.0000 </r>
       <r>    1.3298    1.0000 </r>
       <r>    1.8570    1.0000 </r>
       <r>    2.1203    1.0000 </r>
       <r>    5.4948    0.0000 </r>
       <r>    6.4190    0.0000 </r>
       <r>    6.4811    0.0000 </r>
       <r>    7.2247    0.0000 </r>
       <r>    8.9180    0.0000 </r>
       <r>   10.1143    0.0000 </r>
       <r>   10.6499    0.0000 </r>
       <r>   11.1342    0.0000 </r>
       <r>   11.4861    0.0000 </r>
       <r>   12.0894    0.0000 </r>
       <r>   14.4416    0.0000 </r>
       <r>   15.3547    0.0000 </r>
       <r>   16.4145    0.0000 </r>
      </set>
      <set comment="kpoint 8">
       <r>  -30.0445    1.0000 </r>
       <r>  -29.9485    1.0000 </r>
       <r>  -29.9480    1.0000 </r>
       <r>  -22.0472    1.0000 </r>
       <r>  -13.8534    1.0000 </r>
       <r>  -13.1636    1.0000 </r>
       <r>  -13.1567    1.0000 </r>
       <r>   -7.4667    1.0000 </r>
       <r>   -7.2659    1.0000 </r>
       <r>   -7.1442    1.0000 </r>
       <r>   -0.9309    1.0000 </r>
       <r>   -0.4489    1.0000 </r>
       <r>   -0.4340    1.0000 </r>
       <r>    0.1576    1.0000 </r>
       <r>    0.3692    1.0000 </r>
       <r>    0.9346    1.0000 </r>
       <r>    1.6641    1.0000 </r>
       <r>    1.8185    1.0000 </r>
       <r>    2.6742    1.0000 </r>
       <r>    5.9145    0.0000 </r>
       <r>    6.1979    0.0000 </r>
       <r>    6.4372    0.0000 </r>
       <r>    7.3226    0.0000 </r>
       <r>    9.5766    0.0000 </r>
       <r>   10.2394    0.0000 </r>
       <r>   11.0417    0.0000 </r>
       <r>   11.0572    0.0000 </r>
       <r>   11.7435    0.0000 </r>
       <r>   11.8326    0.0000 </r>
       <r>   13.4333    0.0000 </r>
       <r>   16.8256    0.0000 </r>
       <r>   17.0320    0.0000 </r>
      </set>
      <set comment="kpoint 9">
       <r>  -30.0440    1.0000 </r>
       <r>  -29.9603    1.0000 </r>
       <r>  -29.9476    1.0000 </r>
       <r>  -22.0274    1.0000 </r>
       <r>  -13.8041    1.0000 </r>
       <r>  -13.1739    1.0000 </r>
       <r>  -13.0977    1.0000 </r>
       <r>   -7.4410    1.0000 </r>
       <r>   -7.4110    1.0000 </r>
       <r>   -7.1097    1.0000 </r>
       <r>   -1.1684    1.0000 </r>
       <r>   -0.7621    1.0000 </r>
       <r>   -0.5430    1.0000 </r>
       <r>    0.0779    1.0000 </r>
       <r>    0.2385    1.0000 </r>
       <r>    1.0644    1.0000 </r>
       <r>    1.6590    1.0000 </r>
       <r>    1.7678    1.0000 </r>
       <r>    2.7777    1.0000 </r>
       <r>    6.0450    0.0000 </r>
       <r>    6.4882    0.0000 </r>
       <r>    6.6597    0.0000 </r>
       <r>    7.2096    0.0000 </r>
       <r>    9.9113    0.0000 </r>
       <r>   10.7214    0.0000 </r>
       <r>   10.7703    0.0000 </r>
       <r>   11.7265    0.0000 </r>
       <r>   12.0124    0.0000 </r>
       <r>   12.0477    0.0000 </r>
       <r>   15.0663    0.0000 </r>
       <r>   15.1871    0.0000 </r>
       <r>   16.7068    0.0000 </r>
      </set>
      <set comment="kpoint 10">
       <r>  -30.0435    1.0000 </r>
       <r>  -29.9596    1.0000 </r>
       <r>  -29.9596    1.0000 </r>
       <r>  -22.0098    1.0000 </r>
       <r>  -13.6823    1.0000 </r>
       <r>  -13.1398    1.0000 </r>
       <r>  -13.1398    1.0000 </r>
       <r>   -7.5175    1.0000 </r>
       <r>   -7.5175    1.0000 </r>
       <r>   -7.0707    1.0000 </r>
       <r>   -1.3355    1.0000 </r>
       <r>   -1.0330    1.0000 </r>
       <r>   -0.7743    1.0000 </r>
       <r>    0.0806    1.0000 </r>
       <r>    0.0806    1.0000 </r>
       <r>    0.9872    1.0000 </r>
       <r>    1.8647    1.0000 </r>
       <r>    1.8647    1.0000 </r>
       <r>    2.9742    1.0000 </r>
       <r>    6.5004    0.0000 </r>
       <r>    6.5004    0.0000 </r>
       <r>    6.8301    0.0000 </r>
       <r>    7.0251    0.0000 </r>
       <r>   10.3291    0.0000 </r>
       <r>   10.3860    0.0000 </r>
       <r>   11.0952    0.0000 </r>
       <r>   12.0398    0.0000 </r>
       <r>   12.0398    0.0000 </r>
       <r>   13.3995    0.0000 </r>
       <r>   15.3699    0.0000 </r>
       <r>   15.3699    0.0000 </r>
       <r>   16.2471    0.0000 </r>
      </set>
      <set comment="kpoint 11">
       <r>  -30.0543    1.0000 </r>
       <r>  -29.9127    1.0000 </r>
       <r>  -29.9127    1.0000 </r>
       <r>  -22.1655    1.0000 </r>
       <r>  -13.9738    1.0000 </r>
       <r>  -13.3833    1.0000 </r>
       <r>  -13.1974    1.0000 </r>
       <r>   -7.2867    1.0000 </r>
       <r>   -7.2867    1.0000 </r>
       <r>   -7.2733    1.0000 </r>
       <r>    0.0645    1.0000 </r>
       <r>    0.5025    1.0000 </r>
       <r>    0.5025    1.0000 </r>
       <r>    1.1721    1.0000 </r>
       <r>    1.1721    1.0000 </r>
       <r>    1.5479    1.0000 </r>
       <r>    1.7686    1.0000 </r>
       <r>    2.4374    1.0000 </r>
       <r>    2.4374    1.0000 </r>
       <r>    4.7913    0.0000 </r>
       <r>    5.6399    0.0000 </r>
       <r>    5.6399    0.0000 </r>
       <r>    6.9158    0.0000 </r>
       <r>    7.6044    0.0000 </r>
       <r>    7.9385    0.0000 </r>
       <r>    8.4832    0.0000 </r>
       <r>   10.1805    0.0000 </r>
       <r>   11.1213    0.0000 </r>
       <r>   11.2866    0.0000 </r>
       <r>   11.2866    0.0000 </r>
       <r>   16.1695    0.0000 </r>
       <r>   19.3587    0.0000 </r>
      </set>
      <set comment="kpoint 12">
       <r>  -30.0537    1.0000 </r>
       <r>  -29.9251    1.0000 </r>
       <r>  -29.9122    1.0000 </r>
       <r>  -22.1418    1.0000 </r>
       <r>  -13.9514    1.0000 </r>
       <r>  -13.3805    1.0000 </r>
       <r>  -13.1797    1.0000 </r>
       <r>   -7.3445    1.0000 </r>
       <r>   -7.2455    1.0000 </r>
       <r>   -7.1765    1.0000 </r>
       <r>   -0.0688    1.0000 </r>
       <r>    0.1559    1.0000 </r>
       <r>    0.4824    1.0000 </r>
       <r>    0.7524    1.0000 </r>
       <r>    1.0003    1.0000 </r>
       <r>    1.5991    1.0000 </r>
       <r>    1.7740    1.0000 </r>
       <r>    2.1164    1.0000 </r>
       <r>    2.2359    1.0000 </r>
       <r>    5.2576    0.0000 </r>
       <r>    5.6242    0.0000 </r>
       <r>    5.6579    0.0000 </r>
       <r>    7.2750    0.0000 </r>
       <r>    7.8832    0.0000 </r>
       <r>    8.3915    0.0000 </r>
       <r>    8.9650    0.0000 </r>
       <r>   10.4893    0.0000 </r>
       <r>   11.2203    0.0000 </r>
       <r>   11.4580    0.0000 </r>
       <r>   11.6381    0.0000 </r>
       <r>   16.3466    0.0000 </r>
       <r>   18.4609    0.0000 </r>
      </set>
      <set comment="kpoint 13">
       <r>  -30.0526    1.0000 </r>
       <r>  -29.9498    1.0000 </r>
       <r>  -29.9113    1.0000 </r>
       <r>  -22.0936    1.0000 </r>
       <r>  -13.9894    1.0000 </r>
       <r>  -13.3284    1.0000 </r>
       <r>  -13.0948    1.0000 </r>
       <r>   -7.3127    1.0000 </r>
       <r>   -7.1598    1.0000 </r>
       <r>   -7.1330    1.0000 </r>
       <r>   -0.6887    1.0000 </r>
       <r>   -0.1148    1.0000 </r>
       <r>    0.2571    1.0000 </r>
       <r>    0.2933    1.0000 </r>
       <r>    0.8639    1.0000 </r>
       <r>    1.3676    1.0000 </r>
       <r>    1.6272    1.0000 </r>
       <r>    1.6280    1.0000 </r>
       <r>    2.0040    1.0000 </r>
       <r>    5.6624    0.0000 </r>
       <r>    6.0467    0.0000 </r>
       <r>    6.1078    0.0000 </r>
       <r>    7.3686    0.0000 </r>
       <r>    8.4684    0.0000 </r>
       <r>    9.3579    0.0000 </r>
       <r>   10.0489    0.0000 </r>
       <r>   11.1629    0.0000 </r>
       <r>   11.1748    0.0000 </r>
       <r>   12.0072    0.0000 </r>
       <r>   12.6736    0.0000 </r>
       <r>   16.3256    0.0000 </r>
       <r>   18.0229    0.0000 </r>
      </set>
      <set comment="kpoint 14">
       <r>  -30.0520    1.0000 </r>
       <r>  -29.9621    1.0000 </r>
       <r>  -29.9108    1.0000 </r>
       <r>  -22.0691    1.0000 </r>
       <r>  -14.0379    1.0000 </r>
       <r>  -13.2962    1.0000 </r>
       <r>  -13.0218    1.0000 </r>
       <r>   -7.2541    1.0000 </r>
       <r>   -7.1553    1.0000 </r>
       <r>   -7.1152    1.0000 </r>
       <r>   -1.0320    1.0000 </r>
       <r>   -0.1887    1.0000 </r>
       <r>    0.0252    1.0000 </r>
       <r>    0.1356    1.0000 </r>
       <r>    0.9133    1.0000 </r>
       <r>    1.2874    1.0000 </r>
       <r>    1.3840    1.0000 </r>
       <r>    1.5695    1.0000 </r>
       <r>    1.8490    1.0000 </r>
       <r>    5.6891    0.0000 </r>
       <r>    6.3776    0.0000 </r>
       <r>    6.4716    0.0000 </r>
       <r>    7.3564    0.0000 </r>
       <r>    8.6340    0.0000 </r>
       <r>    9.9027    0.0000 </r>
       <r>   10.7520    0.0000 </r>
       <r>   11.1502    0.0000 </r>
       <r>   11.3531    0.0000 </r>
       <r>   12.2632    0.0000 </r>
       <r>   14.4479    0.0000 </r>
       <r>   15.3605    0.0000 </r>
       <r>   16.3274    0.0000 </r>
      </set>
      <set comment="kpoint 15">
       <r>  -30.0532    1.0000 </r>
       <r>  -29.9248    1.0000 </r>
       <r>  -29.9244    1.0000 </r>
       <r>  -22.1198    1.0000 </r>
       <r>  -13.9122    1.0000 </r>
       <r>  -13.3565    1.0000 </r>
       <r>  -13.1767    1.0000 </r>
       <r>   -7.3790    1.0000 </r>
       <r>   -7.3456    1.0000 </r>
       <r>   -7.0463    1.0000 </r>
       <r>   -0.2664    1.0000 </r>
       <r>    0.1254    1.0000 </r>
       <r>    0.2155    1.0000 </r>
       <r>    0.6770    1.0000 </r>
       <r>    0.7735    1.0000 </r>
       <r>    1.1783    1.0000 </r>
       <r>    1.8653    1.0000 </r>
       <r>    2.0300    1.0000 </r>
       <r>    2.3329    1.0000 </r>
       <r>    5.4888    0.0000 </r>
       <r>    5.6878    0.0000 </r>
       <r>    5.6933    0.0000 </r>
       <r>    7.8490    0.0000 </r>
       <r>    7.9759    0.0000 </r>
       <r>    8.8275    0.0000 </r>
       <r>    9.2612    0.0000 </r>
       <r>   10.4954    0.0000 </r>
       <r>   11.4143    0.0000 </r>
       <r>   11.5556    0.0000 </r>
       <r>   12.0816    0.0000 </r>
       <r>   16.4487    0.0000 </r>
       <r>   18.6182    0.0000 </r>
      </set>
      <set comment="kpoint 16">
       <r>  -30.0521    1.0000 </r>
       <r>  -29.9492    1.0000 </r>
       <r>  -29.9235    1.0000 </r>
       <r>  -22.0750    1.0000 </r>
       <r>  -13.9060    1.0000 </r>
       <r>  -13.2835    1.0000 </r>
       <r>  -13.1137    1.0000 </r>
       <r>   -7.3978    1.0000 </r>
       <r>   -7.3518    1.0000 </r>
       <r>   -7.0386    1.0000 </r>
       <r>   -0.7636    1.0000 </r>
       <r>   -0.2032    1.0000 </r>
       <r>    0.1397    1.0000 </r>
       <r>    0.3535    1.0000 </r>
       <r>    0.4835    1.0000 </r>
       <r>    0.8155    1.0000 </r>
       <r>    1.8051    1.0000 </r>
       <r>    1.9013    1.0000 </r>
       <r>    2.2138    1.0000 </r>
       <r>    5.7019    0.0000 </r>
       <r>    6.1319    0.0000 </r>
       <r>    6.1745    0.0000 </r>
       <r>    7.8144    0.0000 </r>
       <r>    8.7456    0.0000 </r>
       <r>    9.7445    0.0000 </r>
       <r>   10.1174    0.0000 </r>
       <r>   10.9263    0.0000 </r>
       <r>   11.4849    0.0000 </r>
       <r>   11.7193    0.0000 </r>
       <r>   13.1962    0.0000 </r>
       <r>   16.4730    0.0000 </r>
       <r>   17.9649    0.0000 </r>
      </set>
      <set comment="kpoint 17">
       <r>  -30.0515    1.0000 </r>
       <r>  -29.9614    1.0000 </r>
       <r>  -29.9230    1.0000 </r>
       <r>  -22.0523    1.0000 </r>
       <r>  -13.9326    1.0000 </r>
       <r>  -13.2515    1.0000 </r>
       <r>  -13.0419    1.0000 </r>
       <r>   -7.3918    1.0000 </r>
       <r>   -7.2841    1.0000 </r>
       <r>   -7.1254    1.0000 </r>
       <r>   -1.0696    1.0000 </r>
       <r>   -0.2409    1.0000 </r>
       <r>   -0.0279    1.0000 </r>
       <r>    0.1556    1.0000 </r>
       <r>    0.4034    1.0000 </r>
       <r>    0.8390    1.0000 </r>
       <r>    1.7447    1.0000 </r>
       <r>    1.7952    1.0000 </r>
       <r>    2.0979    1.0000 </r>
       <r>    5.7399    0.0000 </r>
       <r>    6.4484    0.0000 </r>
       <r>    6.5082    0.0000 </r>
       <r>    7.7558    0.0000 </r>
       <r>    8.9798    0.0000 </r>
       <r>   10.2646    0.0000 </r>
       <r>   10.6223    0.0000 </r>
       <r>   11.1657    0.0000 </r>
       <r>   11.6589    0.0000 </r>
       <r>   11.7818    0.0000 </r>
       <r>   14.9060    0.0000 </r>
       <r>   15.3140    0.0000 </r>
       <r>   16.5715    0.0000 </r>
      </set>
      <set comment="kpoint 18">
       <r>  -30.0510    1.0000 </r>
       <r>  -29.9481    1.0000 </r>
       <r>  -29.9477    1.0000 </r>
       <r>  -22.0373    1.0000 </r>
       <r>  -13.7653    1.0000 </r>
       <r>  -13.1785    1.0000 </r>
       <r>  -13.1332    1.0000 </r>
       <r>   -7.5574    1.0000 </r>
       <r>   -7.4611    1.0000 </r>
       <r>   -7.1258    1.0000 </r>
       <r>   -0.9530    1.0000 </r>
       <r>   -0.4495    1.0000 </r>
       <r>   -0.3659    1.0000 </r>
       <r>    0.1665    1.0000 </r>
       <r>    0.3767    1.0000 </r>
       <r>    0.5920    1.0000 </r>
       <r>    1.7502    1.0000 </r>
       <r>    1.9713    1.0000 </r>
       <r>    2.6527    1.0000 </r>
       <r>    6.1251    0.0000 </r>
       <r>    6.2827    0.0000 </r>
       <r>    6.4776    0.0000 </r>
       <r>    7.9047    0.0000 </r>
       <r>    9.5498    0.0000 </r>
       <r>   10.3238    0.0000 </r>
       <r>   10.7640    0.0000 </r>
       <r>   10.8364    0.0000 </r>
       <r>   11.4912    0.0000 </r>
       <r>   11.8193    0.0000 </r>
       <r>   14.0253    0.0000 </r>
       <r>   16.7196    0.0000 </r>
       <r>   17.5675    0.0000 </r>
      </set>
      <set comment="kpoint 19">
       <r>  -30.0505    1.0000 </r>
       <r>  -29.9600    1.0000 </r>
       <r>  -29.9473    1.0000 </r>
       <r>  -22.0182    1.0000 </r>
       <r>  -13.7144    1.0000 </r>
       <r>  -13.1584    1.0000 </r>
       <r>  -13.0860    1.0000 </r>
       <r>   -7.5775    1.0000 </r>
       <r>   -7.5278    1.0000 </r>
       <r>   -7.2121    1.0000 </r>
       <r>   -1.1746    1.0000 </r>
       <r>   -0.5608    1.0000 </r>
       <r>   -0.5359    1.0000 </r>
       <r>    0.0847    1.0000 </r>
       <r>    0.2727    1.0000 </r>
       <r>    0.6463    1.0000 </r>
       <r>    1.8415    1.0000 </r>
       <r>    1.8842    1.0000 </r>
       <r>    2.7730    1.0000 </r>
       <r>    6.2283    0.0000 </r>
       <r>    6.5593    0.0000 </r>
       <r>    6.6950    0.0000 </r>
       <r>    7.8137    0.0000 </r>
       <r>    9.8876    0.0000 </r>
       <r>   10.5871    0.0000 </r>
       <r>   10.8291    0.0000 </r>
       <r>   11.1380    0.0000 </r>
       <r>   11.3296    0.0000 </r>
       <r>   12.3901    0.0000 </r>
       <r>   15.3102    0.0000 </r>
       <r>   15.6420    0.0000 </r>
       <r>   16.9107    0.0000 </r>
      </set>
      <set comment="kpoint 20">
       <r>  -30.0500    1.0000 </r>
       <r>  -29.9593    1.0000 </r>
       <r>  -29.9593    1.0000 </r>
       <r>  -22.0009    1.0000 </r>
       <r>  -13.6012    1.0000 </r>
       <r>  -13.1101    1.0000 </r>
       <r>  -13.1101    1.0000 </r>
       <r>   -7.6428    1.0000 </r>
       <r>   -7.6428    1.0000 </r>
       <r>   -7.2734    1.0000 </r>
       <r>   -1.3364    1.0000 </r>
       <r>   -0.7716    1.0000 </r>
       <r>   -0.6876    1.0000 </r>
       <r>    0.1908    1.0000 </r>
       <r>    0.1908    1.0000 </r>
       <r>    0.4542    1.0000 </r>
       <r>    1.9921    1.0000 </r>
       <r>    1.9921    1.0000 </r>
       <r>    2.9891    1.0000 </r>
       <r>    6.5889    0.0000 </r>
       <r>    6.5889    0.0000 </r>
       <r>    6.8675    0.0000 </r>
       <r>    7.6730    0.0000 </r>
       <r>   10.2866    0.0000 </r>
       <r>   10.3270    0.0000 </r>
       <r>   11.1669    0.0000 </r>
       <r>   11.1669    0.0000 </r>
       <r>   11.3092    0.0000 </r>
       <r>   13.2803    0.0000 </r>
       <r>   15.8679    0.0000 </r>
       <r>   16.0470    0.0000 </r>
       <r>   16.0470    0.0000 </r>
      </set>
      <set comment="kpoint 21">
       <r>  -30.0678    1.0000 </r>
       <r>  -29.9122    1.0000 </r>
       <r>  -29.9122    1.0000 </r>
       <r>  -22.1307    1.0000 </r>
       <r>  -14.0356    1.0000 </r>
       <r>  -13.3342    1.0000 </r>
       <r>  -13.1860    1.0000 </r>
       <r>   -7.2390    1.0000 </r>
       <r>   -7.2390    1.0000 </r>
       <r>   -7.0592    1.0000 </r>
       <r>   -0.6325    1.0000 </r>
       <r>    0.3211    1.0000 </r>
       <r>    0.3211    1.0000 </r>
       <r>    0.9521    1.0000 </r>
       <r>    0.9521    1.0000 </r>
       <r>    1.2144    1.0000 </r>
       <r>    1.2211    1.0000 </r>
       <r>    2.3474    1.0000 </r>
       <r>    2.3474    1.0000 </r>
       <r>    4.8497    0.0000 </r>
       <r>    6.1280    0.0000 </r>
       <r>    6.1280    0.0000 </r>
       <r>    6.9161    0.0000 </r>
       <r>    8.3838    0.0000 </r>
       <r>    8.7865    0.0000 </r>
       <r>    9.3848    0.0000 </r>
       <r>   10.9808    0.0000 </r>
       <r>   11.7896    0.0000 </r>
       <r>   11.7948    0.0000 </r>
       <r>   11.7948    0.0000 </r>
       <r>   15.6273    0.0000 </r>
       <r>   17.4753    0.0000 </r>
      </set>
      <set comment="kpoint 22">
       <r>  -30.0671    1.0000 </r>
       <r>  -29.9245    1.0000 </r>
       <r>  -29.9118    1.0000 </r>
       <r>  -22.1104    1.0000 </r>
       <r>  -13.9433    1.0000 </r>
       <r>  -13.3748    1.0000 </r>
       <r>  -13.1675    1.0000 </r>
       <r>   -7.3022    1.0000 </r>
       <r>   -7.1947    1.0000 </r>
       <r>   -7.0778    1.0000 </r>
       <r>   -0.6828    1.0000 </r>
       <r>   -0.0757    1.0000 </r>
       <r>    0.3412    1.0000 </r>
       <r>    0.3822    1.0000 </r>
       <r>    0.7523    1.0000 </r>
       <r>    1.3446    1.0000 </r>
       <r>    1.7873    1.0000 </r>
       <r>    2.0128    1.0000 </r>
[...]
        <r>  0.0000  0.0000  0.0000  0.0864  0.0000  0.0000  0.0000  0.0000  0.0000 </r>
        <r>  0.0028  0.1240  0.0019  0.0000  0.0000  0.0000  0.0000  0.0000  0.0000 </r>
        <r>  0.0035  0.0003  0.0175  0.0000  0.0000  0.0000  0.0000  0.0000  0.0000 </r>
       </set>
       <set comment="band 27">
        <r>  0.0000  0.0000  0.0000  0.0019  0.3198  0.0000  0.0000  0.0110  0.0000 </r>
        <r>  0.0005  0.0008  0.0000  0.0000  0.0000  0.0042  0.2769  0.0000  0.0442 </r>
        <r>  0.0000  0.0000  0.0000  0.0617  0.0000  0.0000  0.0000  0.0000  0.0000 </r>
        <r>  0.0017  0.0011  0.0013  0.0000  0.0000  0.0000  0.0000  0.0000  0.0000 </r>
        <r>  0.0403  0.0199  0.0395  0.0000  0.0000  0.0000  0.0000  0.0000  0.0000 </r>
       </set>
       <set comment="band 28">
        <r>  0.0000  0.0039  0.0002  0.0000  0.0000  0.0021  0.3092  0.0000  0.3714 </r>
        <r>  0.0000  0.0000  0.0000  0.0004  0.0004  0.0000  0.0000  0.0026  0.0000 </r>
        <r>  0.0000  0.0004  0.0217  0.0000  0.0000  0.0000  0.0000  0.0000  0.0000 </r>
        <r>  0.0000  0.0000  0.0000  0.0002  0.0000  0.0000  0.0000  0.0000  0.0000 </r>
        <r>  0.0000  0.0000  0.0000  0.0397  0.0000  0.0000  0.0000  0.0000  0.0000 </r>
       </set>
       <set comment="band 29">
        <r>  0.0125  0.0002  0.0006  0.0000  0.0000  0.0012  0.4425  0.0000  0.3218 </r>
        <r>  0.0000  0.0000  0.0000  0.0000  0.0016  0.0000  0.0000  0.0001  0.0000 </r>
        <r>  0.0001  0.0000  0.0172  0.0000  0.0000  0.0000  0.0000  0.0000  0.0000 </r>
        <r>  0.0000  0.0000  0.0000  0.0001  0.0000  0.0000  0.0000  0.0000  0.0000 </r>
        <r>  0.0000  0.0000  0.0000  0.0000  0.0000  0.0000  0.0000  0.0000  0.0000 </r>
       </set>
       <set comment="band 30">
        <r>  0.3891  0.0000  0.0087  0.0000  0.0000  0.0002  0.0111  0.0000  0.0379 </r>
        <r>  0.0000  0.0000  0.0000  0.0001  0.0070  0.0000  0.0000  0.0040  0.0000 </r>
        <r>  0.0001  0.0025  0.0208  0.0000  0.0000  0.0000  0.0000  0.0000  0.0000 </r>
        <r>  0.0000  0.0000  0.0000  0.0033  0.0000  0.0000  0.0000  0.0000  0.0000 </r>
        <r>  0.0000  0.0000  0.0000  0.0278  0.0000  0.0000  0.0000  0.0000  0.0000 </r>
       </set>
       <set comment="band 31">
        <r>  0.0000  0.0000  0.0000  0.1174  0.0118  0.0000  0.0000  0.0015  0.0000 </r>
        <r>  0.0004  0.0089  0.0036  0.0000  0.0000  0.0037  0.0006  0.0000  0.0001 </r>
        <r>  0.0000  0.0000  0.0000  0.0008  0.0000  0.0000  0.0000  0.0000  0.0000 </r>
        <r>  0.0012  0.0034  0.0913  0.0000  0.0000  0.0000  0.0000  0.0000  0.0000 </r>
        <r>  0.0061  0.0697  0.0006  0.0000  0.0000  0.0000  0.0000  0.0000  0.0000 </r>
       </set>
       <set comment="band 32">
        <r>  0.0188  0.0008  0.0483  0.0010  0.0077  0.0074  0.0014  0.0000  0.0026 </r>
        <r>  0.0525  0.0046  0.0274  0.0030  0.0012  0.0003  0.0048  0.0008  0.0001 </r>
        <r>  0.0041  0.0412  0.0009  0.0471  0.0000  0.0000  0.0000  0.0000  0.0000 </r>
        <r>  0.0002  0.0505  0.0015  0.0616  0.0000  0.0000  0.0000  0.0000  0.0000 </r>
        <r>  0.0004  0.0022  0.0406  0.0022  0.0000  0.0000  0.0000  0.0000  0.0000 </r>
       </set>
      </set>
      <set comment="kpoint 40">
       <set comment="band 1">
        <r>  0.0000  0.0000  0.0000  0.0000  0.0001  0.0000  0.0000  0.0000  0.0000 </r>
        <r>  0.0001  0.0000  0.9777  0.0000  0.0000  0.0000  0.0003  0.0000  0.0000 </r>
        <r>  0.0000  0.0000  0.0000  0.0001  0.0000  0.0000  0.0000  0.0000  0.0000 </r>
        <r>  0.0000  0.0001  0.0000  0.0000  0.0000  0.0000  0.0000  0.0000  0.0000 </r>
        <r>  0.0090  0.0000  0.0028  0.0000  0.0000  0.0000  0.0000  0.0000  0.0000 </r>
       </set>
       <set comment="band 2">
        <r>  0.0000  0.0000  0.0000  0.0000  0.0000  0.0000  0.0000  0.0000  0.0000 </r>
        <r>  0.0000  0.7188  0.0000  0.2603  0.0000  0.0000  0.0000  0.0000  0.0000 </r>
        <r>  0.0020  0.0000  0.0000  0.0000  0.0000  0.0000  0.0000  0.0000  0.0000 </r>
        <r>  0.0055  0.0000  0.0000  0.0000  0.0000  0.0000  0.0000  0.0000  0.0000 </r>
        <r>  0.0000  0.0001  0.0000  0.0000  0.0000  0.0000  0.0000  0.0000  0.0000 </r>
       </set>
       <set comment="band 3">
        <r>  0.0000  0.0000  0.0000  0.0000  0.0000  0.0000  0.0000  0.0000  0.0000 </r>
        <r>  0.0000  0.2603  0.0000  0.7188  0.0000  0.0000  0.0000  0.0000  0.0000 </r>
        <r>  0.0055  0.0000  0.0000  0.0000  0.0000  0.0000  0.0000  0.0000  0.0000 </r>
        <r>  0.0020  0.0000  0.0000  0.0000  0.0000  0.0000  0.0000  0.0000  0.0000 </r>
        <r>  0.0000  0.0000  0.0000  0.0001  0.0000  0.0000  0.0000  0.0000  0.0000 </r>
       </set>
       <set comment="band 4">
        <r>  0.9814  0.0000  0.0000  0.0000  0.0000  0.0000  0.0000  0.0000  0.0000 </r>
        <r>  0.0000  0.0000  0.0000  0.0000  0.0000  0.0000  0.0000  0.0000  0.0000 </r>
        <r>  0.0000  0.0000  0.0000  0.0000  0.0000  0.0000  0.0000  0.0000  0.0000 </r>
        <r>  0.0000  0.0000  0.0000  0.0000  0.0000  0.0000  0.0000  0.0000  0.0000 </r>
        <r>  0.0000  0.0000  0.0000  0.0000  0.0000  0.0000  0.0000  0.0000  0.0000 </r>
       </set>
       <set comment="band 5">
        <r>  0.0000  0.0000  0.0000  0.0000  0.0066  0.0000  0.0000  0.0000  0.0000 </r>
        <r>  0.0075  0.0000  0.0408  0.0000  0.0000  0.0000  0.0166  0.0000  0.0000 </r>
        <r>  0.0000  0.0000  0.0000  0.0000  0.0000  0.0000  0.0000  0.0000  0.0000 </r>
        <r>  0.0000  0.0000  0.0000  0.0000  0.0000  0.0000  0.0000  0.0000  0.0000 </r>
        <r>  0.7700  0.0000  0.0011  0.0000  0.0000  0.0000  0.0000  0.0000  0.0000 </r>
       </set>
       <set comment="band 6">
        <r>  0.0000  0.0010  0.0000  0.0006  0.0000  0.0032  0.0000  0.0019  0.0000 </r>
        <r>  0.0000  0.0155  0.0000  0.0254  0.0000  0.0005  0.0000  0.0008  0.0000 </r>
        <r>  0.4786  0.0000  0.0000  0.0000  0.0000  0.0000  0.0000  0.0000  0.0000 </r>
        <r>  0.2922  0.0000  0.0000  0.0000  0.0000  0.0000  0.0000  0.0000  0.0000 </r>
        <r>  0.0000  0.0000  0.0000  0.0000  0.0000  0.0000  0.0000  0.0000  0.0000 </r>
       </set>
       <set comment="band 7">
        <r>  0.0000  0.0006  0.0000  0.0010  0.0000  0.0019  0.0000  0.0032  0.0000 </r>
        <r>  0.0000  0.0254  0.0000  0.0155  0.0000  0.0008  0.0000  0.0005  0.0000 </r>
        <r>  0.2922  0.0000  0.0000  0.0000  0.0000  0.0000  0.0000  0.0000  0.0000 </r>
        <r>  0.4786  0.0000  0.0000  0.0000  0.0000  0.0000  0.0000  0.0000  0.0000 </r>
        <r>  0.0000  0.0000  0.0000  0.0000  0.0000  0.0000  0.0000  0.0000  0.0000 </r>
       </set>
       <set comment="band 8">
        <r>  0.0000  0.7691  0.0000  0.0370  0.0000  0.0001  0.0000  0.0000  0.0000 </r>
        <r>  0.0000  0.0000  0.0000  0.0008  0.0000  0.0003  0.0000  0.0062  0.0000 </r>
        <r>  0.0018  0.0000  0.0127  0.0000  0.0000  0.0000  0.0000  0.0000  0.0000 </r>
        <r>  0.0001  0.0000  0.0006  0.0000  0.0000  0.0000  0.0000  0.0000  0.0000 </r>
        <r>  0.0000  0.0008  0.0000  0.0172  0.0000  0.0000  0.0000  0.0000  0.0000 </r>
       </set>
       <set comment="band 9">
        <r>  0.0000  0.0370  0.0000  0.7691  0.0000  0.0000  0.0000  0.0001  0.0000 </r>
        <r>  0.0000  0.0008  0.0000  0.0000  0.0000  0.0062  0.0000  0.0003  0.0000 </r>
        <r>  0.0001  0.0000  0.0006  0.0000  0.0000  0.0000  0.0000  0.0000  0.0000 </r>
        <r>  0.0018  0.0000  0.0127  0.0000  0.0000  0.0000  0.0000  0.0000  0.0000 </r>
        <r>  0.0000  0.0172  0.0000  0.0008  0.0000  0.0000  0.0000  0.0000  0.0000 </r>
       </set>
       <set comment="band 10">
        <r>  0.0000  0.0000  0.8203  0.0000  0.0000  0.0000  0.0000  0.0000  0.0000 </r>
        <r>  0.0000  0.0000  0.0000  0.0000  0.0071  0.0000  0.0000  0.0000  0.0000 </r>
        <r>  0.0000  0.0143  0.0000  0.0000  0.0000  0.0000  0.0000  0.0000  0.0000 </r>
        <r>  0.0000  0.0000  0.0000  0.0143  0.0000  0.0000  0.0000  0.0000  0.0000 </r>
        <r>  0.0000  0.0000  0.0000  0.0000  0.0000  0.0000  0.0000  0.0000  0.0000 </r>
       </set>
       <set comment="band 11">
        <r>  0.0000  0.0000  0.0000  0.0000  0.0015  0.0000  0.0000  0.0000  0.0000 </r>
        <r>  0.2195  0.0000  0.0000  0.0000  0.0000  0.0000  0.0012  0.0000  0.0000 </r>
        <r>  0.0000  0.0000  0.0000  0.1906  0.0000  0.0000  0.0000  0.0000  0.0000 </r>
        <r>  0.0000  0.1906  0.0000  0.0000  0.0000  0.0000  0.0000  0.0000  0.0000 </r>
        <r>  0.0001  0.0000  0.1397  0.0000  0.0000  0.0000  0.0000  0.0000  0.0000 </r>
       </set>
       <set comment="band 12">
        <r>  0.0000  0.0000  0.0000  0.0000  0.0000  0.0000  0.0000  0.0000  0.0000 </r>
        <r>  0.0000  0.0000  0.0000  0.0000  0.0000  0.0000  0.0000  0.0000  0.3940 </r>
        <r>  0.0000  0.0000  0.0000  0.2511  0.0000  0.0000  0.0000  0.0000  0.0000 </r>
        <r>  0.0000  0.2511  0.0000  0.0000  0.0000  0.0000  0.0000  0.0000  0.0000 </r>
        <r>  0.0000  0.0000  0.0000  0.0000  0.0000  0.0000  0.0000  0.0000  0.0000 </r>
       </set>
       <set comment="band 13">
        <r>  0.0000  0.0000  0.0000  0.0000  0.0020  0.0000  0.0000  0.0000  0.0000 </r>
        <r>  0.0001  0.0000  0.0073  0.0000  0.0000  0.0000  0.3739  0.0000  0.0000 </r>
        <r>  0.0000  0.0000  0.0000  0.0690  0.0000  0.0000  0.0000  0.0000  0.0000 </r>
        <r>  0.0000  0.0690  0.0000  0.0000  0.0000  0.0000  0.0000  0.0000  0.0000 </r>
        <r>  0.0010  0.0000  0.3668  0.0000  0.0000  0.0000  0.0000  0.0000  0.0000 </r>
       </set>
       <set comment="band 14">
        <r>  0.0003  0.0000  0.1298  0.0000  0.0000  0.0000  0.0002  0.0000  0.0000 </r>
        <r>  0.0000  0.0000  0.0000  0.0000  0.1654  0.0000  0.0000  0.0000  0.0000 </r>
        <r>  0.0000  0.2198  0.0000  0.0000  0.0000  0.0000  0.0000  0.0000  0.0000 </r>
        <r>  0.0000  0.0000  0.0000  0.2198  0.0000  0.0000  0.0000  0.0000  0.0000 </r>
        <r>  0.0000  0.0000  0.0000  0.0000  0.0000  0.0000  0.0000  0.0000  0.0000 </r>
       </set>
       <set comment="band 15">
        <r>  0.0000  0.1307  0.0000  0.0062  0.0000  0.0003  0.0000  0.0000  0.0000 </r>
        <r>  0.0000  0.0002  0.0000  0.0033  0.0000  0.0077  0.0000  0.1609  0.0000 </r>
        <r>  0.0001  0.0000  0.1895  0.0000  0.0000  0.0000  0.0000  0.0000  0.0000 </r>
        <r>  0.0000  0.0000  0.0090  0.0000  0.0000  0.0000  0.0000  0.0000  0.0000 </r>
        <r>  0.0000  0.0113  0.0000  0.2378  0.0000  0.0000  0.0000  0.0000  0.0000 </r>
       </set>
       <set comment="band 16">
        <r>  0.0000  0.0062  0.0000  0.1307  0.0000  0.0000  0.0000  0.0003  0.0000 </r>
        <r>  0.0000  0.0033  0.0000  0.0002  0.0000  0.1609  0.0000  0.0077  0.0000 </r>
        <r>  0.0000  0.0000  0.0090  0.0000  0.0000  0.0000  0.0000  0.0000  0.0000 </r>
        <r>  0.0001  0.0000  0.1895  0.0000  0.0000  0.0000  0.0000  0.0000  0.0000 </r>
        <r>  0.0000  0.2378  0.0000  0.0113  0.0000  0.0000  0.0000  0.0000  0.0000 </r>
       </set>
       <set comment="band 17">
        <r>  0.0000  0.0000  0.0000  0.0000  0.0000  0.0027  0.0000  0.0006  0.0000 </r>
        <r>  0.0000  0.0000  0.0000  0.0001  0.0000  0.0001  0.0000  0.0003  0.0000 </r>
        <r>  0.0002  0.0000  0.3274  0.0000  0.0000  0.0000  0.0000  0.0000  0.0000 </r>
        <r>  0.0000  0.0000  0.0695  0.0000  0.0000  0.0000  0.0000  0.0000  0.0000 </r>
        <r>  0.0000  0.0611  0.0000  0.2881  0.0000  0.0000  0.0000  0.0000  0.0000 </r>
       </set>
       <set comment="band 18">
        <r>  0.0000  0.0000  0.0000  0.0000  0.0000  0.0006  0.0000  0.0027  0.0000 </r>
        <r>  0.0000  0.0001  0.0000  0.0000  0.0000  0.0003  0.0000  0.0001  0.0000 </r>
        <r>  0.0000  0.0000  0.0695  0.0000  0.0000  0.0000  0.0000  0.0000  0.0000 </r>
        <r>  0.0002  0.0000  0.3274  0.0000  0.0000  0.0000  0.0000  0.0000  0.0000 </r>
        <r>  0.0000  0.2881  0.0000  0.0611  0.0000  0.0000  0.0000  0.0000  0.0000 </r>
       </set>
       <set comment="band 19">
        <r>  0.0000  0.0000  0.0000  0.0000  0.0000  0.0000  0.0000  0.0000  0.0009 </r>
        <r>  0.0000  0.0000  0.0000  0.0000  0.0000  0.0000  0.0000  0.0000  0.0000 </r>
        <r>  0.0000  0.3815  0.0000  0.0000  0.0000  0.0000  0.0000  0.0000  0.0000 </r>
        <r>  0.0000  0.0000  0.0000  0.3815  0.0000  0.0000  0.0000  0.0000  0.0000 </r>
        <r>  0.0000  0.0000  0.0000  0.0000  0.0000  0.0000  0.0000  0.0000  0.0000 </r>
       </set>
       <set comment="band 20">
        <r>  0.0000  0.0045  0.0000  0.0013  0.0000  0.0020  0.0000  0.0006  0.0000 </r>
        <r>  0.0000  0.0001  0.0000  0.0005  0.0000  0.1767  0.0000  0.5922  0.0000 </r>
        <r>  0.0002  0.0000  0.0611  0.0000  0.0000  0.0000  0.0000  0.0000  0.0000 </r>
        <r>  0.0001  0.0000  0.0182  0.0000  0.0000  0.0000  0.0000  0.0000  0.0000 </r>
        <r>  0.0000  0.0175  0.0000  0.0585  0.0000  0.0000  0.0000  0.0000  0.0000 </r>
       </set>
       <set comment="band 21">
        <r>  0.0000  0.0013  0.0000  0.0045  0.0000  0.0006  0.0000  0.0020  0.0000 </r>
        <r>  0.0000  0.0005  0.0000  0.0001  0.0000  0.5922  0.0000  0.1767  0.0000 </r>
        <r>  0.0001  0.0000  0.0182  0.0000  0.0000  0.0000  0.0000  0.0000  0.0000 </r>
        <r>  0.0002  0.0000  0.0611  0.0000  0.0000  0.0000  0.0000  0.0000  0.0000 </r>
        <r>  0.0000  0.0585  0.0000  0.0175  0.0000  0.0000  0.0000  0.0000  0.0000 </r>
       </set>
       <set comment="band 22">
        <r>  0.0021  0.0000  0.0039  0.0000  0.0000  0.0000  0.0008  0.0000  0.0000 </r>
        <r>  0.0000  0.0000  0.0000  0.0000  0.7768  0.0000  0.0000  0.0000  0.0000 </r>
        <r>  0.0000  0.0757  0.0000  0.0000  0.0000  0.0000  0.0000  0.0000  0.0000 </r>
        <r>  0.0000  0.0000  0.0000  0.0757  0.0000  0.0000  0.0000  0.0000  0.0000 </r>
        <r>  0.0000  0.0000  0.0000  0.0000  0.0000  0.0000  0.0000  0.0000  0.0000 </r>
       </set>
       <set comment="band 23">
        <r>  0.0000  0.0000  0.0000  0.0000  0.2907  0.0000  0.0000  0.0000  0.0000 </r>
        <r>  0.0010  0.0000  0.0641  0.0000  0.0000  0.0000  0.1946  0.0000  0.0000 </r>
        <r>  0.0000  0.0000  0.0000  0.0113  0.0000  0.0000  0.0000  0.0000  0.0000 </r>
        <r>  0.0000  0.0113  0.0000  0.0000  0.0000  0.0000  0.0000  0.0000  0.0000 </r>
        <r>  0.0407  0.0000  0.1134  0.0000  0.0000  0.0000  0.0000  0.0000  0.0000 </r>
       </set>
       <set comment="band 24">
        <r>  0.0000  0.0000  0.0000  0.0000  0.0000  0.4864  0.0000  0.0203  0.0000 </r>
        <r>  0.0000  0.0010  0.0000  0.0234  0.0000  0.0002  0.0000  0.0052  0.0000 </r>
        <r>  0.0659  0.0000  0.0008  0.0000  0.0000  0.0000  0.0000  0.0000  0.0000 </r>
        <r>  0.0027  0.0000  0.0000  0.0000  0.0000  0.0000  0.0000  0.0000  0.0000 </r>
        <r>  0.0000  0.0002  0.0000  0.0043  0.0000  0.0000  0.0000  0.0000  0.0000 </r>
       </set>
       <set comment="band 25">
        <r>  0.0000  0.0000  0.0000  0.0000  0.0000  0.0203  0.0000  0.4864  0.0000 </r>
        <r>  0.0000  0.0234  0.0000  0.0010  0.0000  0.0052  0.0000  0.0002  0.0000 </r>
        <r>  0.0027  0.0000  0.0000  0.0000  0.0000  0.0000  0.0000  0.0000  0.0000 </r>
        <r>  0.0659  0.0000  0.0008  0.0000  0.0000  0.0000  0.0000  0.0000  0.0000 </r>
        <r>  0.0000  0.0043  0.0000  0.0002  0.0000  0.0000  0.0000  0.0000  0.0000 </r>
       </set>
       <set comment="band 26">
        <r>  0.0000  0.0000  0.0000  0.0000  0.0000  0.0000  0.0000  0.0000  0.0000 </r>
        <r>  0.0000  0.0000  0.0000  0.0000  0.0000  0.0000  0.0000  0.0000  0.6675 </r>
        <r>  0.0000  0.0000  0.0000  0.1501  0.0000  0.0000  0.0000  0.0000  0.0000 </r>
        <r>  0.0000  0.1501  0.0000  0.0000  0.0000  0.0000  0.0000  0.0000  0.0000 </r>
        <r>  0.0000  0.0000  0.0000  0.0000  0.0000  0.0000  0.0000  0.0000  0.0000 </r>
       </set>
       <set comment="band 27">
        <r>  0.0000  0.0000  0.0000  0.0000  0.2334  0.0000  0.0000  0.0000  0.0000 </r>
        <r>  0.0010  0.0000  0.0038  0.0000  0.0000  0.0000  0.4533  0.0000  0.0000 </r>
        <r>  0.0000  0.0000  0.0000  0.0282  0.0000  0.0000  0.0000  0.0000  0.0000 </r>
        <r>  0.0000  0.0282  0.0000  0.0000  0.0000  0.0000  0.0000  0.0000  0.0000 </r>
        <r>  0.0358  0.0000  0.0932  0.0000  0.0000  0.0000  0.0000  0.0000  0.0000 </r>
       </set>
       <set comment="band 28">
        <r>  0.0130  0.0000  0.0010  0.0000  0.0000  0.0000  0.7622  0.0000  0.0000 </r>
        <r>  0.0000  0.0000  0.0000  0.0000  0.0023  0.0000  0.0000  0.0000  0.0000 </r>
        <r>  0.0000  0.0000  0.0000  0.0000  0.0000  0.0000  0.0000  0.0000  0.0000 </r>
        <r>  0.0000  0.0000  0.0000  0.0000  0.0000  0.0000  0.0000  0.0000  0.0000 </r>
        <r>  0.0000  0.0000  0.0000  0.0000  0.0000  0.0000  0.0000  0.0000  0.0000 </r>
       </set>
       <set comment="band 29">
        <r>  0.0000  0.0000  0.0000  0.0000  0.0000  0.0000  0.0000  0.0000  0.8263 </r>
        <r>  0.0000  0.0000  0.0000  0.0000  0.0000  0.0000  0.0000  0.0000  0.0000 </r>
        <r>  0.0000  0.0004  0.0000  0.0000  0.0000  0.0000  0.0000  0.0000  0.0000 </r>
        <r>  0.0000  0.0000  0.0000  0.0004  0.0000  0.0000  0.0000  0.0000  0.0000 </r>
        <r>  0.0000  0.0000  0.0000  0.0000  0.0000  0.0000  0.0000  0.0000  0.0000 </r>
       </set>
       <set comment="band 30">
        <r>  0.4310  0.0000  0.0075  0.0000  0.0000  0.0000  0.0396  0.0000  0.0000 </r>
        <r>  0.0000  0.0000  0.0000  0.0000  0.0100  0.0000  0.0000  0.0000  0.0000 </r>
        <r>  0.0000  0.0021  0.0000  0.0000  0.0000  0.0000  0.0000  0.0000  0.0000 </r>
        <r>  0.0000  0.0000  0.0000  0.0021  0.0000  0.0000  0.0000  0.0000  0.0000 </r>
        <r>  0.0000  0.0000  0.0000  0.0000  0.0000  0.0000  0.0000  0.0000  0.0000 </r>
       </set>
       <set comment="band 31">
        <r>  0.0000  0.0034  0.0000  0.0748  0.0047  0.0000  0.0000  0.0010  0.0000 </r>
        <r>  0.0493  0.0026  0.0238  0.0001  0.0000  0.0041  0.0048  0.0002  0.0000 </r>
        <r>  0.0000  0.0000  0.0024  0.0449  0.0000  0.0000  0.0000  0.0000  0.0000 </r>
        <r>  0.0006  0.0449  0.0539  0.0000  0.0000  0.0000  0.0000  0.0000  0.0000 </r>
        <r>  0.0001  0.0582  0.0392  0.0026  0.0000  0.0000  0.0000  0.0000  0.0000 </r>
       </set>
       <set comment="band 32">
        <r>  0.0000  0.1195  0.0000  0.0055  0.0000  0.0017  0.0000  0.0001  0.0000 </r>
        <r>  0.0000  0.0002  0.0000  0.0042  0.0000  0.0003  0.0000  0.0066  0.0000 </r>
        <r>  0.0010  0.0000  0.0862  0.0000  0.0000  0.0000  0.0000  0.0000  0.0000 </r>
        <r>  0.0000  0.0000  0.0039  0.0000  0.0000  0.0000  0.0000  0.0000  0.0000 </r>
        <r>  0.0000  0.0042  0.0000  0.0929  0.0000  0.0000  0.0000  0.0000  0.0000 </r>
       </set>
      </set>
     </set>
    </set>
   </array>
  </projected>
 </calculation>
 <structure name="finalpos" >
  <crystal>
   <varray name="basis" >
    <v>       4.00136808       0.00000000       0.00000000 </v>
    <v>       0.00000000       4.00136808       0.00000000 </v>
    <v>       0.00000000      -0.00000000       4.21574374 </v>
   </varray>
   <i name="volume">     67.49804754 </i>
   <varray name="rec_basis" >
    <v>       0.24991452       0.00000000       0.00000000 </v>
    <v>       0.00000000       0.24991452       0.00000000 </v>
    <v>       0.00000000       0.00000000       0.23720607 </v>
   </varray>
  </crystal>
  <varray name="positions" >
   <v>       0.00000000      -0.00000000       0.02027283 </v>
   <v>       0.50000000       0.50000000       0.53885208 </v>
   <v>       0.00000000       0.50000000       0.49202239 </v>
   <v>       0.50000000      -0.00000000       0.49202239 </v>
   <v>       0.50000000       0.50000000       0.97082932 </v>
  </varray>
 </structure>
</modeling>
