
Running Job 1 of 1 mol.qin
qchem mol.qin_18186.0 /tmp/chain_scratch/ 1
/global/common/cori/software/qchem/5.1/exe/qcprog.exe mol.qin_18186.0 /tmp/chain_scratch/
Check license passed

                  Welcome to Q-Chem
     A Quantum Leap Into The Future Of Chemistry


 Q-Chem 5.1, Q-Chem, Inc., Pleasanton, CA (2018)

 Yihan Shao,  Zhengting Gan,  E. Epifanovsky,  A. T. B. Gilbert,  M. Wormit,  
 J. Kussmann,  A. W. Lange,  A. Behn,  Jia Deng,  Xintian Feng,  D. Ghosh,  
 M. Goldey,  P. R. Horn,  L. D. Jacobson,  I. Kaliman,  T. Kus,  A. Landau,  
 Jie Liu,  E. I. Proynov,  R. M. Richard,  R. P. Steele,  E. J. Sundstrom,  
 H. L. Woodcock III,  P. M. Zimmerman,  D. Zuev,  B. Albrecht,  E. Alguire,  
 S. A. Baeppler,  D. Barton,  Z. Benda,  Y. A. Bernard,  E. J. Berquist,  
 K. B. Bravaya,  H. Burton,  D. Casanova,  Chun-Min Chang,  Yunqing Chen,  
 A. Chien,  K. D. Closser,  M. P. Coons,  S. Coriani,  S. Dasgupta,  
 A. L. Dempwolff,  M. Diedenhofen,  Hainam Do,  R. G. Edgar,  Po-Tung Fang,  
 S. Faraji,  S. Fatehi,  Qingguo Feng,  K. D. Fenk,  J. Fosso-Tande,  
 Qinghui Ge,  A. Ghysels,  G. Gidofalvi,  J. Gomes,  J. Gonthier,  A. Gunina,  
 D. Hait,  M. W. D. Hanson-Heine,  P. H. P. Harbach,  A. W. Hauser,  
 J. E. Herr,  E. G. Hohenstein,  Z. C. Holden,  Kerwin Hui,  B. C. Huynh,  
 T.-C. Jagau,  Hyunjun Ji,  B. Kaduk,  K. Khistyaev,  Jaehoon Kim,  
 P. Klunzinger,  K. Koh,  D. Kosenkov,  L. Koulias,  T. Kowalczyk,  
 C. M. Krauter,  A. Kunitsa,  Ka Un Lao,  A. Laurent,  K. V. Lawler,  
 Joonho Lee,  D. Lefrancois,  S. Lehtola,  D. S. Levine,  Yi-Pei Li,  
 You-Sheng Lin,  Fenglai Liu,  E. Livshits,  A. Luenser,  P. Manohar,  
 E. Mansoor,  S. F. Manzer,  Shan-Ping Mao,  Yuezhi Mao,  N. Mardirossian,  
 A. V. Marenich,  T. Markovich,  L. A. Martinez-Martinez,  S. A. Maurer,  
 N. J. Mayhall,  S. C. McKenzie,  J.-M. Mewes,  A. F. Morrison,  
 J. W. Mullinax,  K. Nanda,  T. S. Nguyen-Beck,  R. Olivares-Amaya,  
 J. A. Parkhill,  T. M. Perrine,  F. Plasser,  P. Pokhilko,  S. Prager,  
 A. Prociuk,  E. Ramos,  D. R. Rehn,  F. Rob,  M. Schneider,  N. Sergueev,  
 S. M. Sharada,  S. Sharma,  D. W. Small,  T. Stauch,  T. Stein,  
 Yu-Chuan Su,  A. J. W. Thom,  A. Tkatchenko,  T. Tsuchimochi,  N. M. Tubman,  
 L. Vogt,  M. L. Vidal,  O. Vydrov,  M. A. Watson,  J. Wenzel,  
 M. de Wergifosse,  T. A. Wesolowski,  A. White,  J. Witte,  A. Yamada,  
 Jun Yang,  K. Yao,  S. Yeganeh,  S. R. Yost,  Zhi-Qiang You,  A. Zech,  
 Igor Ying Zhang,  Xing Zhang,  Yan Zhao,  Ying Zhu,  B. R. Brooks,  
 G. K. L. Chan,  C. J. Cramer,  M. S. Gordon,  W. J. Hehre,  A. Klamt,  
 M. W. Schmidt,  C. D. Sherrill,  D. G. Truhlar,  A. Aspuru-Guzik,  R. Baer,  
 A. T. Bell,  N. A. Besley,  Jeng-Da Chai,  R. A. DiStasio Jr.,  A. Dreuw,  
 B. D. Dunietz,  T. R. Furlani,  Chao-Ping Hsu,  Yousung Jung,  Jing Kong,  
 D. S. Lambrecht,  WanZhen Liang,  C. Ochsenfeld,  V. A. Rassolov,  
 L. V. Slipchenko,  J. E. Subotnik,  T. Van Voorhis,  J. M. Herbert,  
 A. I. Krylov,  P. M. W. Gill,  M. Head-Gordon

 Contributors to earlier versions of Q-Chem not listed above: 
 R. D. Adamson,  B. Austin,  J. Baker,  G. J. O. Beran,  K. Brandhorst,  
 S. T. Brown,  E. F. C. Byrd,  A. K. Chakraborty,  C.-L. Cheng,  
 Siu Hung Chien,  D. M. Chipman,  D. L. Crittenden,  H. Dachsel,  
 R. J. Doerksen,  A. D. Dutoi,  L. Fusti-Molnar,  W. A. Goddard III,  
 A. Golubeva-Zadorozhnaya,  S. R. Gwaltney,  G. Hawkins,  A. Heyden,  
 S. Hirata,  G. Kedziora,  F. J. Keil,  C. Kelley,  Jihan Kim,  R. A. King,  
 R. Z. Khaliullin,  P. P. Korambath,  W. Kurlancheek,  A. M. Lee,  M. S. Lee,  
 S. V. Levchenko,  Ching Yeh Lin,  D. Liotard,  R. C. Lochan,  I. Lotan,  
 P. E. Maslen,  N. Nair,  D. P. O'Neill,  D. Neuhauser,  E. Neuscamman,  
 C. M. Oana,  R. Olson,  B. Peters,  R. Peverati,  P. A. Pieniazek,  
 Y. M. Rhee,  J. Ritchie,  M. A. Rohrdanz,  E. Rosta,  N. J. Russ,  
 H. F. Schaefer III,  N. E. Schultz,  N. Shenvi,  A. C. Simmonett,  A. Sodt,  
 D. Stuck,  K. S. Thanthiriwatte,  V. Vanovschi,  Tao Wang,  A. Warshel,  
 C. F. Williams,  Q. Wu,  X. Xu,  W. Zhang

 Please cite Q-Chem as follows:
 Y. Shao et al., Mol. Phys. 113, 184-215 (2015)
 DOI: 10.1080/00268976.2014.952696

 Q-Chem 5.1.0 for Intel X86 EM64T Linux

 Parts of Q-Chem use Armadillo 8.300.2 (Tropical Shenanigans).
 http://arma.sourceforge.net/

 Q-Chem begins on Fri Dec 28 13:31:13 2018  

Host: cori08
0

     Scratch files written to /tmp/chain_scratch//
 Jun2518 |scratch|qcdevops|jenkins|workspace|build_RNUM -1
Processing $rem in /global/common/cori/software/qchem/5.1/config/preferences.
 MEM_TOTAL  96000 
The previous job contains 0 fragments, simply inherited here
Symmetry turned off for PCM/SM12/SMD calculation

Checking the input file for inconsistencies... 	...done.

--------------------------------------------------------------
User input:
--------------------------------------------------------------
$molecule
read
$end

$rem
job_type = opt
basis = 6-31++g**
max_scf_cycles = 200
gen_scfman = true
xc_grid = 3
scf_algorithm = diis_gdm
method = wb97xd
geom_opt_max_cycles = 200
solvent_method = smd
ideriv = 1
scf_guess = read
geom_opt_hessian = read
$end

$smx
solvent acetonitrile
$end
--------------------------------------------------------------
 ----------------------------------------------------------------
             Standard Nuclear Orientation (Angstroms)
    I     Atom           X                Y                Z
 ----------------------------------------------------------------
    1      Li      3.1363248309     0.0204339684    -0.0854314542
    2      C      -1.8550148150     0.7574588382    -0.0166357913
    3      O      -0.5109658361     1.0979653044     0.4720945387
    4      C      -1.8631937726    -0.7594697741     0.0088339634
    5      S       0.5230183782    -0.0067313227     0.0318602857
    6      O      -0.5018942310    -1.1181541048    -0.4138509288
    7      O       1.3424977048     0.3905444236    -1.1114809438
    8      O       1.3515840613    -0.3951759689     1.1664567189
    9      H      -2.5566597853     1.2010870734     0.6849607822
   10      H      -1.9652995791     1.1721956793    -1.0182718757
   11      H      -2.0249748379    -1.1630190386     1.0040410558
   12      H      -2.5369945796    -1.1970288166    -0.7232472399
 ----------------------------------------------------------------
 Nuclear Repulsion Energy =   484.1595460300 hartrees
 There are       33 alpha and       33 beta electrons
 Requested basis set is 6-31++G(d,p)
 There are 57 shells and 180 basis functions

 Total QAlloc Memory Limit  96000 MB
 Mega-Array Size       188 MB
 MEM_STATIC part       192 MB
 A cutoff of  1.0D-12 yielded   1574 shell pairs
 There are     16206 function pairs
 
 -------------------------------------------------------
 OpenMP Integral Computing Module                       
 Release: version 1.0, May 2013, Q-Chem Inc. Pittsburgh 
 -------------------------------------------------------
 Integral Job Info:
 Integral job number is                      11
 Integral operator is                         1
 short-range coefficients              22203600
 long-range coefficients              100000000
 Omega coefficients                         200
 if combine SR and LR in K                    1
 Integral screening is                        0
 Integral computing path is                   2
 max size of driver memory is            800000
 size of driver memory is                593474
 size of scratch memory is             15604072
 max col of scratch BK array               1296
 max len of scratch array in speh3          155
 max len of scratch index in speh4           18
 max int batch size is                      520
 min int batch size is                       52
 fixed nKL is                                52
 max L of basis functions is                  2
 order of int derivative is                   0
 number of shells is                         57
 number of basis is                         180
 number of cartesian basis is               180
 number of contracted shell pairs          1574
 number of primitive shell pairs           5390
 maxK2 (contraction) of shell pair           36
 max number of K2 of shell pair               1
 max number of CS2 of shell pair            176
 max number of PS2 of shell pair           1056
 mem total for path MDJ                  537180
 -------------------------------------------------------
 Smallest overlap matrix eigenvalue = 1.31E-04

 Scale SEOQF with 1.000000e-02/1.000000e-02/1.000000e-02

 Standard Electronic Orientation quadrupole field applied
 Nucleus-field energy     =     0.0000000004 hartrees

 -----------------------------------------------------------------------
  General SCF calculation program by
  Eric Jon Sundstrom, Paul Horn, Yuezhi Mao, Dmitri Zuev, Alec White,
  David Stuck, Shaama M.S., Shane Yost, Joonho Lee, David Small,
  Daniel Levine, Susi Lehtola, Hugh Burton, Evgeny Epifanovsky
 -----------------------------------------------------------------------
 Exchange:     0.2220 Hartree-Fock + 1.0000 wB97X-D + LR-HF
 Correlation:  1.0000 wB97X-D
 Using SG-3 standard quadrature grid
 Dispersion:   Grimme D
 
 Citation of the SMD model:
 Marenich, A.V.; Cramer, C.J.; Truhlar, D.G.
 J. Phys. Chem. B 2009, 113, 6378-6396.
 iSolventCode=          53
 Solvent: acetonitrile                                                    
 
 vradii
            1           2           3           4           5           6
    1   2.1476001   1.8500000   2.1680000   1.8500000   2.4900000   2.1680000
            7           8           9          10          11          12
    1   2.1680000   2.1680000   1.2000000   1.2000000   1.2000000   1.2000000
Changing PCM_TESSEL_METHOD to VTN
Changing PCM_VDW_RADII to SMD_RADIUS
 Discretize the solute cavity surface with Lebedev spheres
	Using 302 Lebedev grid points for each H atom
	Using 302 Lebedev grid points for other atoms
	Atomic van der Waals radii will be scaled by 1.20
 Removing interior tesserae...
 Keep 1147 surface tesserae and discard 2477 interior tesserae
 Molecular Surface Area = 164.475 Angst**2
 
 Citation of the SMD model:
 Marenich, A.V.; Cramer, C.J.; Truhlar, D.G.
 J. Phys. Chem. B 2009, 113, 6378-6396.
 iSolventCode=          53
 Solvent: acetonitrile                                                    
 
 vradii
            1           2           3           4           5           6
    1   2.1476001   1.8500000   2.1680000   1.8500000   2.4900000   2.1680000
            7           8           9          10          11          12
    1   2.1680000   2.1680000   1.2000000   1.2000000   1.2000000   1.2000000
 
 Citation of the SMD model:
 Marenich, A.V.; Cramer, C.J.; Truhlar, D.G.
 J. Phys. Chem. B 2009, 113, 6378-6396.
 iSolventCode=          53
 Solvent: acetonitrile                                                    
 
 vradii
            1           2           3           4           5           6
    1   2.1476001   1.8500000   2.1680000   1.8500000   2.4900000   2.1680000
            7           8           9          10          11          12
    1   2.1680000   2.1680000   1.2000000   1.2000000   1.2000000   1.2000000
 using 32 threads for integral computing
 -------------------------------------------------------
 OpenMP Integral computing Module                
 Release: version 1.0, May 2013, Q-Chem Inc. Pittsburgh 
 -------------------------------------------------------
 using 32 threads for integral computing
 -------------------------------------------------------
 OpenMP Integral computing Module                
 Release: version 1.0, May 2013, Q-Chem Inc. Pittsburgh 
 -------------------------------------------------------
 -------------------------------------------------------
 OpenMP BLAS3 based DFT computing Module                
 Release: version 1.0, May 2013, Q-Chem Inc. Pittsburgh 
 -------------------------------------------------------
 A restricted SCF calculation will be
 performed using DIIS, GDM
 SCF converges when RMS gradient is below 1.0e-08
 ---------------------------------------
  Cycle       Energy         DIIS error
 ---------------------------------------
    1    -784.8385197517      4.04e-04  
    2    -784.9324411394      4.42e-04  Done DIIS. Switching to GDM
 ---------------------------------------
  Cycle       Energy        RMS Gradient
 ---------------------------------------
    1    -784.9324411394      6.43e-03   Normal BFGS step
    2    -784.9334160446      2.96e-03   Normal BFGS step
    3    -784.9336510491      1.19e-03   Normal BFGS step
    4    -784.9336901498      5.17e-04   Normal BFGS step
    5    -784.9336940977      2.53e-04   Normal BFGS step
    6    -784.9336953814      9.41e-05   Normal BFGS step
    7    -784.9336955434      5.58e-05   Normal BFGS step
    8    -784.9336955965      8.41e-06   Normal BFGS step
    9    -784.9336955987      7.45e-06   Normal BFGS step
   10    -784.9336955992      2.80e-06   Normal BFGS step
   11    -784.9336955994      8.48e-07   Normal BFGS step
   12    -784.9336955994      1.49e-07   Normal BFGS step
   13    -784.9336955994      3.34e-08   Normal BFGS step
   14    -784.9336955994      9.88e-09  Convergence criterion met
 ---------------------------------------
 SCF time:   CPU 579.15s  wall 22.00s 
(0)  E-EN(g) gas-phase elect-nuc energy                    0.000000000 a.u.
(3)  G-ENP(liq) elect-nuc-pol free energy of system     -784.933695599 a.u.
(4)  G-CDS(liq) cavity-dispersion-solvent structure 
     free energy                                               -0.3973 kcal/mol
(6)  G-S(liq) free energy of system                     -784.934328677 a.u.
(9)  DeltaG-S(liq) free energy of  solvation
     (9) = (6) - (0)                                      -492553.7254 kcal/mol
 SCF   energy in the final basis set =     -784.9336955994
 Total energy in the final basis set =     -784.9343286773
 
 --------------------------------------------------------------
 
                    Orbital Energies (a.u.)
 --------------------------------------------------------------
 
 Alpha MOs
 -- Occupied --
-89.382 -19.389 -19.389 -19.346 -19.345 -10.399 -10.399  -8.366
 -6.318  -6.316  -6.315  -2.163  -1.354  -1.227  -1.208  -1.177
 -0.926  -0.814  -0.778  -0.678  -0.671  -0.637  -0.622  -0.593
 -0.571  -0.540  -0.523  -0.510  -0.489  -0.487  -0.485  -0.440
 -0.428
 -- Virtual --
  0.008   0.017   0.017   0.019   0.042   0.062   0.066   0.068
  0.070   0.086   0.089   0.090   0.093   0.115   0.122   0.133
  0.135   0.135   0.140   0.149   0.171   0.175   0.179   0.195
  0.203   0.204   0.212   0.215   0.216   0.220   0.239   0.247
  0.265   0.272   0.276   0.278   0.292   0.307   0.320   0.342
  0.346   0.351   0.354   0.364   0.383   0.393   0.404   0.405
  0.415   0.422   0.427   0.444   0.471   0.501   0.568   0.581
  0.610   0.644   0.665   0.675   0.684   0.732   0.743   0.764
  0.770   0.783   0.828   0.849   0.865   0.901   1.014   1.018
  1.062   1.103   1.114   1.132   1.143   1.173   1.183   1.238
  1.248   1.251   1.307   1.321   1.332   1.378   1.381   1.405
  1.409   1.425   1.447   1.489   1.493   1.522   1.584   1.642
  1.655   1.667   1.692   1.756   1.798   1.836   1.846   1.862
  1.904   1.914   1.958   1.983   1.987   2.000   2.034   2.062
  2.096   2.111   2.176   2.194   2.213   2.267   2.280   2.346
  2.392   2.411   2.509   2.601   2.641   2.648   2.667   2.741
  2.756   2.809   2.835   2.916   2.935   2.940   2.973   3.116
  3.375   3.395   3.533   3.593   4.063   4.211   4.294   4.309
  4.377   4.529   4.756
 --------------------------------------------------------------
 
          Ground-State Mulliken Net Atomic Charges

     Atom                 Charge (a.u.)
  ----------------------------------------
      1 Li                    0.770764
      2 C                    -0.150364
      3 O                    -0.531552
      4 C                    -0.150933
      5 S                     1.793563
      6 O                    -0.534374
      7 O                    -0.593699
      8 O                    -0.589012
      9 H                     0.255392
     10 H                     0.237665
     11 H                     0.238102
     12 H                     0.254448
  ----------------------------------------
  Sum of atomic charges =     1.000000

 -----------------------------------------------------------------
                    Cartesian Multipole Moments
 -----------------------------------------------------------------
    Charge (ESU x 10^10)
                 4.8032
    Dipole Moment (Debye)
         X       3.5130      Y       0.0914      Z      -0.4054
       Tot       3.5374
    Quadrupole Moments (Debye-Ang)
        XX       6.5682     XY       0.2627     YY     -46.1923
        XZ      -1.1454     YZ       0.3338     ZZ     -50.3675
    Octopole Moments (Debye-Ang^2)
       XXX     112.3609    XXY       1.0476    XYY      -2.2355
       YYY       0.7415    XXZ      -4.7786    XYZ       2.8787
       YYZ      -0.9855    XZZ      -6.5401    YZZ       0.1767
       ZZZ      -3.0101
    Hexadecapole Moments (Debye-Ang^3)
      XXXX       5.9550   XXXY       2.8078   XXYY     -97.3840
      XYYY      -0.1327   YYYY    -189.2151   XXXZ     -14.0761
      XXYZ       8.2312   XYYZ      -0.3368   YYYZ      -0.0821
      XXZZ    -110.3571   XYZZ       0.3384   YYZZ     -55.5050
      XZZZ      -1.5269   YZZZ       0.8974   ZZZZ    -161.6885
 -----------------------------------------------------------------
 Calculating analytic gradient of the SCF energy
 Gradient of CDS energy
            1           2           3           4           5           6
    1   0.0000592  -0.0004623   0.0001888  -0.0004437  -0.0000217   0.0001872
    2   0.0000013   0.0010628  -0.0001537  -0.0010696   0.0000110   0.0001552
    3  -0.0000063  -0.0000564  -0.0000837   0.0000690  -0.0000206   0.0000861
            7           8           9          10          11          12
    1  -0.0001274  -0.0001332   0.0001848   0.0002117   0.0001694   0.0001873
    2  -0.0000261   0.0000241  -0.0001067  -0.0001256   0.0001288   0.0000986
    3   0.0000969  -0.0000891   0.0000378   0.0000562  -0.0000669  -0.0000230
 Gradient of SCF Energy
            1           2           3           4           5           6
    1   0.0062733   0.0426020  -0.0265881   0.0437801  -0.0058330  -0.0259509
    2  -0.0001145  -0.0308825   0.0238328   0.0285432  -0.0001230  -0.0239229
    3  -0.0003199   0.0200810   0.0048686  -0.0157666  -0.0005282  -0.0055866
            7           8           9          10          11          12
    1   0.0198041   0.0203264  -0.0313816  -0.0055017  -0.0073987  -0.0301320
    2   0.0142093  -0.0140110   0.0171422   0.0140493  -0.0118481  -0.0168746
    3  -0.0408779   0.0421842   0.0296912  -0.0409507   0.0384133  -0.0312085
 Max gradient component =       4.378E-02
 RMS gradient           =       2.436E-02
 Computing VTN gradient.
 Updating gradient with PCM contributions...
 -- total gradient after adding PCM contribution --
---------------------------------------------------
  Atom         X              Y              Z     
---------------------------------------------------
   1       0.000011      -0.000044      -0.000068
   2      -0.000022      -0.000003       0.000046
   3      -0.000005      -0.000053       0.000104
   4      -0.000005      -0.000027      -0.000081
   5      -0.000053       0.000039      -0.000011
   6       0.000011       0.000020      -0.000050
   7      -0.000002       0.000071       0.000043
   8       0.000023      -0.000049      -0.000029
   9       0.000010      -0.000037       0.000074
  10       0.000020       0.000076       0.000037
  11       0.000013      -0.000027      -0.000014
  12      -0.000001       0.000036      -0.000052
---------------------------------------------------
 Number of fixed atoms: 0
 Gradient time:  CPU 76.66 s  wall 3.50 s
 Geometry Optimization Parameters
   NAtoms,    NIC,     NZ,  NCons,   NDum,   NFix, NCnnct, MaxDiis
       12     104       0       0       0       0       0       0

 Cartesian Hessian read from HESS file


** GEOMETRY OPTIMIZATION IN DELOCALIZED INTERNAL COORDINATES **
   Searching for a Minimum

   Optimization Cycle:   1

                       Coordinates (Angstroms)
     ATOM                X               Y               Z
      1  Li        3.1363248309    0.0204339684   -0.0854314542
      2  C        -1.8550148150    0.7574588382   -0.0166357913
      3  O        -0.5109658361    1.0979653044    0.4720945387
      4  C        -1.8631937726   -0.7594697741    0.0088339634
      5  S         0.5230183782   -0.0067313227    0.0318602857
      6  O        -0.5018942310   -1.1181541048   -0.4138509288
      7  O         1.3424977048    0.3905444236   -1.1114809438
      8  O         1.3515840613   -0.3951759689    1.1664567189
      9  H        -2.5566597853    1.2010870734    0.6849607822
     10  H        -1.9652995791    1.1721956793   -1.0182718757
     11  H        -2.0249748379   -1.1630190386    1.0040410558
     12  H        -2.5369945796   -1.1970288166   -0.7232472399
   Point Group: c1    Number of degrees of freedom:    30


   Energy is   -784.934328677


 Attempting to Generate Delocalized Internal Coordinates

 Transforming Cartesian Hessian to Internal Coordinates
 Hessian Transformation does not Include Derivative of B-matrix

 30 Hessian modes will be used to form the next step
  Hessian Eigenvalues:
    -0.000510    0.001054    0.001648    0.004970    0.010060    0.036016
     0.040965    0.046920    0.052407    0.060037    0.067318    0.071285
     0.088849    0.097926    0.101942    0.131360    0.153396    0.193788
     0.228557    0.243798    0.249865    0.284661    0.344187    0.346953
     0.357768    0.363460    0.367513    0.526058    0.546808    1.085162
**WARNING** Hessian does not have the Desired Local Structure

 Minimum Search - Taking Simple RFO Step
 Searching for Lamda that Minimizes Along All modes
 Value Taken    Lamda =  -0.00051754
 Calculated Step too Large.  Step scaled by  0.036918
 Step Taken.  Stepsize is  0.300000

                             Maximum     Tolerance    Cnvgd?
         Gradient           0.000082      0.000300     YES
         Displacement       0.150732      0.001200      NO
         Energy change     *********      0.000001      NO


 New Cartesian Coordinates Obtained by Inverse Iteration

 Displacement from previous Coordinates is:  0.310824
 ----------------------------------------------------------------
             Standard Nuclear Orientation (Angstroms)
    I     Atom           X                Y                Z
 ----------------------------------------------------------------
    1      Li      3.1329763664     0.0017231845     0.0124068707
    2      C      -1.8595103462     0.7589995887    -0.0114097140
    3      O      -0.5004363732     1.1163086269     0.4135936385
    4      C      -1.8560110575    -0.7597554065     0.0087011577
    5      S       0.5268513307    -0.0021622933    -0.0050077763
    6      O      -0.5031635203    -1.1107269644    -0.4431856068
    7      O       1.3646892758     0.3719886626    -1.1408918411
    8      O       1.3402318221    -0.3815438268     1.1465162804
    9      H      -2.5309655588     1.1893046138     0.7271417538
   10      H      -2.0339325438     1.1794936507    -1.0018274867
   11      H      -1.9998669024    -1.1658146164     1.0046331642
   12      H      -2.5424349542    -1.1977089582    -0.7113413294
 ----------------------------------------------------------------
 Nuclear Repulsion Energy =   484.1046588991 hartrees
 There are       33 alpha and       33 beta electrons
 Discretize the solute cavity surface with Lebedev spheres
	Using 302 Lebedev grid points for each H atom
	Using 302 Lebedev grid points for other atoms
	Atomic van der Waals radii will be scaled by 1.20
 Removing interior tesserae...
 Keep 1150 surface tesserae and discard 2474 interior tesserae
 Molecular Surface Area = 164.501 Angst**2
 Nucleus-field energy     =     0.0000000004 hartrees
 Requested basis set is 6-31++G(d,p)
 There are 57 shells and 180 basis functions
 A cutoff of  1.0D-12 yielded   1573 shell pairs
 There are     16202 function pairs
 Smallest overlap matrix eigenvalue = 1.32E-04

 -----------------------------------------------------------------------
  General SCF calculation program by
  Eric Jon Sundstrom, Paul Horn, Yuezhi Mao, Dmitri Zuev, Alec White,
  David Stuck, Shaama M.S., Shane Yost, Joonho Lee, David Small,
  Daniel Levine, Susi Lehtola, Hugh Burton, Evgeny Epifanovsky
 -----------------------------------------------------------------------
 Exchange:     0.2220 Hartree-Fock + 1.0000 wB97X-D + LR-HF
 Correlation:  1.0000 wB97X-D
 Using SG-3 standard quadrature grid
 Dispersion:   Grimme D
 using 32 threads for integral computing
 -------------------------------------------------------
 OpenMP Integral computing Module                
 Release: version 1.0, May 2013, Q-Chem Inc. Pittsburgh 
 -------------------------------------------------------
 using 32 threads for integral computing
 -------------------------------------------------------
 OpenMP Integral computing Module                
 Release: version 1.0, May 2013, Q-Chem Inc. Pittsburgh 
 -------------------------------------------------------
 -------------------------------------------------------
 OpenMP BLAS3 based DFT computing Module                
 Release: version 1.0, May 2013, Q-Chem Inc. Pittsburgh 
 -------------------------------------------------------
 A restricted SCF calculation will be
 performed using DIIS, GDM
 SCF converges when RMS gradient is below 1.0e-08
 ---------------------------------------
  Cycle       Energy         DIIS error
 ---------------------------------------
    1    -784.9296563334      5.85e-04  
    2    -784.9334116296      1.58e-04  Done DIIS. Switching to GDM
 ---------------------------------------
  Cycle       Energy        RMS Gradient
 ---------------------------------------
    1    -784.9334116296      2.26e-03   Normal BFGS step
    2    -784.9335098141      3.52e-03   Normal BFGS step
    3    -784.9335863474      3.76e-04   Normal BFGS step
    4    -784.9335907809      6.76e-05   Normal BFGS step
    5    -784.9335910115      4.16e-05   Normal BFGS step
    6    -784.9335910364      2.20e-05   Normal BFGS step
    7    -784.9335910507      4.85e-06   Normal BFGS step
    8    -784.9335910514      2.30e-06   Normal BFGS step
    9    -784.9335910516      4.92e-07   Normal BFGS step
   10    -784.9335910516      2.66e-07   Normal BFGS step
   11    -784.9335910516      7.50e-08   Normal BFGS step
   12    -784.9335910516      3.64e-08   Normal BFGS step
   13    -784.9335910516      1.29e-08   Normal BFGS step
   14    -784.9335910516      7.00e-09  Convergence criterion met
 ---------------------------------------
 SCF time:   CPU 575.67s  wall 22.00s 
(0)  E-EN(g) gas-phase elect-nuc energy                    0.000000000 a.u.
(3)  G-ENP(liq) elect-nuc-pol free energy of system     -784.933591052 a.u.
(4)  G-CDS(liq) cavity-dispersion-solvent structure 
     free energy                                               -0.3973 kcal/mol
(6)  G-S(liq) free energy of system                     -784.934224130 a.u.
(9)  DeltaG-S(liq) free energy of  solvation
     (9) = (6) - (0)                                      -492553.6598 kcal/mol
 SCF   energy in the final basis set =     -784.9335910516
 Total energy in the final basis set =     -784.9342241295
 
 --------------------------------------------------------------
 
                    Orbital Energies (a.u.)
 --------------------------------------------------------------
 
 Alpha MOs
 -- Occupied --
-89.382 -19.390 -19.389 -19.346 -19.346 -10.399 -10.399  -8.366
 -6.318  -6.317  -6.316  -2.163  -1.354  -1.228  -1.208  -1.177
 -0.927  -0.815  -0.779  -0.677  -0.672  -0.637  -0.623  -0.593
 -0.571  -0.541  -0.523  -0.511  -0.489  -0.487  -0.486  -0.441
 -0.428
 -- Virtual --
  0.008   0.017   0.017   0.019   0.042   0.062   0.066   0.068
  0.070   0.085   0.090   0.090   0.093   0.115   0.122   0.133
  0.135   0.135   0.140   0.149   0.171   0.176   0.179   0.195
  0.203   0.204   0.212   0.215   0.216   0.220   0.239   0.248
  0.267   0.272   0.277   0.278   0.293   0.306   0.319   0.343
  0.347   0.351   0.355   0.364   0.383   0.393   0.404   0.406
  0.414   0.422   0.427   0.444   0.470   0.500   0.568   0.580
  0.609   0.644   0.665   0.674   0.685   0.735   0.743   0.766
  0.771   0.782   0.831   0.848   0.866   0.903   1.014   1.016
  1.062   1.100   1.114   1.129   1.144   1.176   1.179   1.240
  1.246   1.252   1.306   1.321   1.331   1.379   1.381   1.405
  1.409   1.426   1.446   1.490   1.491   1.523   1.586   1.643
  1.657   1.667   1.694   1.756   1.797   1.838   1.846   1.863
  1.906   1.913   1.957   1.979   1.993   1.995   2.037   2.060
  2.094   2.108   2.177   2.195   2.209   2.268   2.283   2.345
  2.394   2.409   2.513   2.604   2.639   2.646   2.667   2.743
  2.751   2.804   2.836   2.916   2.935   2.940   2.974   3.116
  3.373   3.398   3.529   3.595   4.062   4.210   4.291   4.313
  4.374   4.528   4.753
 --------------------------------------------------------------
 
          Ground-State Mulliken Net Atomic Charges

     Atom                 Charge (a.u.)
  ----------------------------------------
      1 Li                    0.767631
      2 C                    -0.149792
      3 O                    -0.534635
      4 C                    -0.156480
      5 S                     1.801389
      6 O                    -0.530910
      7 O                    -0.590732
      8 O                    -0.590904
      9 H                     0.253684
     10 H                     0.237665
     11 H                     0.239060
     12 H                     0.254024
  ----------------------------------------
  Sum of atomic charges =     1.000000

 -----------------------------------------------------------------
                    Cartesian Multipole Moments
 -----------------------------------------------------------------
    Charge (ESU x 10^10)
                 4.8032
    Dipole Moment (Debye)
         X       3.4565      Y       0.0030      Z       0.0604
       Tot       3.4570
    Quadrupole Moments (Debye-Ang)
        XX       6.3722     XY       0.0307     YY     -46.1737
        XZ       0.2147     YZ       0.3242     ZZ     -50.3832
    Octopole Moments (Debye-Ang^2)
       XXX     111.3105    XXY       0.0962    XYY      -2.2949
       YYY       0.0975    XXZ       0.7812    XYZ       2.8146
       YYZ       0.1567    XZZ      -7.0095    YZZ       0.1428
       ZZZ       0.5415
    Hexadecapole Moments (Debye-Ang^3)
      XXXX       1.9431   XXXY       0.5495   XXYY     -97.5974
      XYYY       0.2040   YYYY    -189.2303   XXXZ       2.5503
      XXYZ       7.9014   XYYZ       0.1312   YYYZ      -0.3824
      XXZZ    -110.7285   XYZZ      -0.0178   YYZZ     -55.3518
      XZZZ      -0.0177   YZZZ       0.7003   ZZZZ    -161.4435
 -----------------------------------------------------------------
 Calculating analytic gradient of the SCF energy
 Gradient of CDS energy
            1           2           3           4           5           6
    1   0.0000592  -0.0004623   0.0001888  -0.0004437  -0.0000217   0.0001872
    2   0.0000013   0.0010628  -0.0001537  -0.0010696   0.0000110   0.0001552
    3  -0.0000063  -0.0000564  -0.0000837   0.0000690  -0.0000206   0.0000861
            7           8           9          10          11          12
    1  -0.0001274  -0.0001332   0.0001848   0.0002117   0.0001694   0.0001873
    2  -0.0000261   0.0000241  -0.0001067  -0.0001256   0.0001288   0.0000986
    3   0.0000969  -0.0000891   0.0000378   0.0000562  -0.0000669  -0.0000230
 Gradient of SCF Energy
            1           2           3           4           5           6
    1   0.0057731   0.0461160  -0.0262378   0.0432099  -0.0050288  -0.0262843
    2   0.0001049  -0.0312982   0.0239537   0.0283348  -0.0000293  -0.0239121
    3   0.0000107   0.0167582   0.0056230  -0.0156065  -0.0003808  -0.0051888
            7           8           9          10          11          12
    1   0.0208191   0.0195044  -0.0297401  -0.0099284  -0.0073267  -0.0308763
    2   0.0134247  -0.0135252   0.0165789   0.0147233  -0.0114918  -0.0168636
    3  -0.0416402   0.0422982   0.0310234  -0.0403200   0.0381703  -0.0307477
 Max gradient component =       4.612E-02
 RMS gradient           =       2.446E-02
 Computing VTN gradient.
 Updating gradient with PCM contributions...
 -- total gradient after adding PCM contribution --
---------------------------------------------------
  Atom         X              Y              Z     
---------------------------------------------------
   1      -0.000205       0.000046       0.000004
   2       0.001482      -0.000577       0.000202
   3      -0.000209      -0.000249       0.000252
   4      -0.002404       0.009971      -0.010511
   5      -0.000116      -0.000057       0.000156
   6      -0.000022       0.000045      -0.000030
   7       0.000361       0.000034      -0.000315
   8       0.000064       0.000082       0.000283
   9       0.000161       0.000053      -0.000124
  10      -0.001443       0.000716      -0.000163
  11       0.002350      -0.010120       0.010358
  12      -0.000019       0.000056      -0.000111
---------------------------------------------------
 Number of fixed atoms: 0
 Gradient time:  CPU 77.21 s  wall 3.47 s
 Geometry Optimization Parameters
   NAtoms,    NIC,     NZ,  NCons,   NDum,   NFix, NCnnct, MaxDiis
       12     104       0       0       0       0       0       0

 Cartesian Hessian Update
 Hessian Updated using BFGS Update


** GEOMETRY OPTIMIZATION IN DELOCALIZED INTERNAL COORDINATES **
   Searching for a Minimum

   Optimization Cycle:   2

                       Coordinates (Angstroms)
     ATOM                X               Y               Z
      1  Li        3.1329763664    0.0017231845    0.0124068707
      2  C        -1.8595103462    0.7589995887   -0.0114097140
      3  O        -0.5004363732    1.1163086269    0.4135936385
      4  C        -1.8560110575   -0.7597554065    0.0087011577
      5  S         0.5268513307   -0.0021622933   -0.0050077763
      6  O        -0.5031635203   -1.1107269644   -0.4431856068
      7  O         1.3646892758    0.3719886626   -1.1408918411
      8  O         1.3402318221   -0.3815438268    1.1465162804
      9  H        -2.5309655588    1.1893046138    0.7271417538
     10  H        -2.0339325438    1.1794936507   -1.0018274867
     11  H        -1.9998669024   -1.1658146164    1.0046331642
     12  H        -2.5424349542   -1.1977089582   -0.7113413294
   Point Group: c1    Number of degrees of freedom:    30


   Energy is   -784.934224130

 Hessian Updated using BFGS Update

 30 Hessian modes will be used to form the next step
  Hessian Eigenvalues:
     0.000576    0.001640    0.001910    0.006254    0.010104    0.036122
     0.043229    0.047139    0.053063    0.060619    0.068091    0.076585
     0.088925    0.097926    0.103911    0.135837    0.166841    0.197387
     0.236979    0.247764    0.250213    0.285658    0.344556    0.349080
     0.359081    0.363465    0.367523    0.526245    0.546880    1.873297

 Minimum Search - Taking Simple RFO Step
 Searching for Lamda that Minimizes Along All modes
 Value Taken    Lamda =  -0.00025751
 Step Taken.  Stepsize is  0.187080

                             Maximum     Tolerance    Cnvgd?
         Gradient           0.007439      0.000300      NO
         Displacement       0.085830      0.001200      NO
         Energy change      0.000105      0.000001      NO


 New Cartesian Coordinates Obtained by Inverse Iteration

 Displacement from previous Coordinates is:  0.210179
 ----------------------------------------------------------------
             Standard Nuclear Orientation (Angstroms)
    I     Atom           X                Y                Z
 ----------------------------------------------------------------
    1      Li      3.1346776187     0.0244257085    -0.0441960018
    2      C      -1.8549913819     0.7578892830    -0.0139064772
    3      O      -0.5051752275     1.1010424071     0.4548925900
    4      C      -1.8622947176    -0.7597025951     0.0092787468
    5      S       0.5246410199    -0.0081300204     0.0167595697
    6      O      -0.5036379976    -1.1197934040    -0.4191279547
    7      O       1.3445824495     0.3815273015    -1.1279108799
    8      O       1.3542297854    -0.3921647469     1.1534398463
    9      H      -2.5466667116     1.1980332267     0.6997607788
   10      H      -1.9837179995     1.1748229579    -1.0123347225
   11      H      -2.0238280108    -1.1629377550     1.0038653106
   12      H      -2.5393912883    -1.1949061018    -0.7211916951
 ----------------------------------------------------------------
 Nuclear Repulsion Energy =   484.1463735319 hartrees
 There are       33 alpha and       33 beta electrons
 Discretize the solute cavity surface with Lebedev spheres
	Using 302 Lebedev grid points for each H atom
	Using 302 Lebedev grid points for other atoms
	Atomic van der Waals radii will be scaled by 1.20
 Removing interior tesserae...
 Keep 1150 surface tesserae and discard 2474 interior tesserae
 Molecular Surface Area = 164.654 Angst**2
 Nucleus-field energy     =     0.0000000004 hartrees
 Requested basis set is 6-31++G(d,p)
 There are 57 shells and 180 basis functions
 A cutoff of  1.0D-12 yielded   1573 shell pairs
 There are     16202 function pairs
 Smallest overlap matrix eigenvalue = 1.32E-04

 -----------------------------------------------------------------------
  General SCF calculation program by
  Eric Jon Sundstrom, Paul Horn, Yuezhi Mao, Dmitri Zuev, Alec White,
  David Stuck, Shaama M.S., Shane Yost, Joonho Lee, David Small,
  Daniel Levine, Susi Lehtola, Hugh Burton, Evgeny Epifanovsky
 -----------------------------------------------------------------------
 Exchange:     0.2220 Hartree-Fock + 1.0000 wB97X-D + LR-HF
 Correlation:  1.0000 wB97X-D
 Using SG-3 standard quadrature grid
 Dispersion:   Grimme D
 using 32 threads for integral computing
 -------------------------------------------------------
 OpenMP Integral computing Module                
 Release: version 1.0, May 2013, Q-Chem Inc. Pittsburgh 
 -------------------------------------------------------
 using 32 threads for integral computing
 -------------------------------------------------------
 OpenMP Integral computing Module                
 Release: version 1.0, May 2013, Q-Chem Inc. Pittsburgh 
 -------------------------------------------------------
 -------------------------------------------------------
 OpenMP BLAS3 based DFT computing Module                
 Release: version 1.0, May 2013, Q-Chem Inc. Pittsburgh 
 -------------------------------------------------------
 A restricted SCF calculation will be
 performed using DIIS, GDM
 SCF converges when RMS gradient is below 1.0e-08
 ---------------------------------------
  Cycle       Energy         DIIS error
 ---------------------------------------
    1    -784.9321764657      4.37e-04  
    2    -784.9335720728      1.02e-04  Done DIIS. Switching to GDM
 ---------------------------------------
  Cycle       Energy        RMS Gradient
 ---------------------------------------
    1    -784.9335720728      1.63e-03   Normal BFGS step
    2    -784.9336371752      1.62e-03   Normal BFGS step
    3    -784.9336530712      6.71e-04   Normal BFGS step
    4    -784.9336594713      5.07e-05   Normal BFGS step
    5    -784.9336595518      4.50e-05   Normal BFGS step
    6    -784.9336595868      8.89e-06   Normal BFGS step
    7    -784.9336595898      4.58e-06   Normal BFGS step
    8    -784.9336595906      2.17e-06   Normal BFGS step
    9    -784.9336595907      1.36e-06   Normal BFGS step
   10    -784.9336595907      2.36e-07   Normal BFGS step
   11    -784.9336595907      1.00e-07   Normal BFGS step
   12    -784.9336595907      2.35e-08   Normal BFGS step
   13    -784.9336595907      1.10e-08   Normal BFGS step
   14    -784.9336595907      2.78e-09  Convergence criterion met
 ---------------------------------------
 SCF time:   CPU 577.99s  wall 22.00s 
(0)  E-EN(g) gas-phase elect-nuc energy                    0.000000000 a.u.
(3)  G-ENP(liq) elect-nuc-pol free energy of system     -784.933659591 a.u.
(4)  G-CDS(liq) cavity-dispersion-solvent structure 
     free energy                                               -0.3973 kcal/mol
(6)  G-S(liq) free energy of system                     -784.934292669 a.u.
(9)  DeltaG-S(liq) free energy of  solvation
     (9) = (6) - (0)                                      -492553.7028 kcal/mol
 SCF   energy in the final basis set =     -784.9336595907
 Total energy in the final basis set =     -784.9342926686
 
 --------------------------------------------------------------
 
                    Orbital Energies (a.u.)
 --------------------------------------------------------------
 
 Alpha MOs
 -- Occupied --
-89.382 -19.389 -19.389 -19.346 -19.346 -10.399 -10.399  -8.366
 -6.318  -6.317  -6.315  -2.163  -1.354  -1.228  -1.208  -1.177
 -0.927  -0.815  -0.779  -0.678  -0.671  -0.637  -0.623  -0.593
 -0.571  -0.540  -0.523  -0.510  -0.489  -0.487  -0.486  -0.440
 -0.428
 -- Virtual --
  0.008   0.017   0.017   0.019   0.042   0.062   0.066   0.068
  0.070   0.085   0.089   0.090   0.093   0.115   0.122   0.133
  0.135   0.135   0.140   0.149   0.171   0.175   0.179   0.195
  0.203   0.204   0.212   0.216   0.216   0.220   0.239   0.248
  0.266   0.272   0.277   0.278   0.293   0.306   0.320   0.342
  0.346   0.351   0.354   0.364   0.383   0.393   0.404   0.405
  0.415   0.422   0.427   0.444   0.471   0.501   0.568   0.581
  0.609   0.644   0.665   0.674   0.684   0.733   0.743   0.765
  0.770   0.782   0.829   0.848   0.866   0.902   1.015   1.017
  1.063   1.102   1.114   1.130   1.143   1.174   1.181   1.239
  1.247   1.251   1.307   1.321   1.331   1.379   1.381   1.405
  1.409   1.425   1.447   1.490   1.492   1.522   1.585   1.643
  1.656   1.667   1.693   1.756   1.797   1.838   1.846   1.862
  1.905   1.914   1.958   1.982   1.991   1.997   2.035   2.061
  2.092   2.109   2.176   2.194   2.211   2.268   2.281   2.346
  2.393   2.410   2.511   2.602   2.641   2.647   2.667   2.742
  2.754   2.807   2.835   2.916   2.936   2.941   2.973   3.116
  3.375   3.397   3.532   3.593   4.063   4.211   4.293   4.311
  4.376   4.529   4.755
 --------------------------------------------------------------
 
          Ground-State Mulliken Net Atomic Charges

     Atom                 Charge (a.u.)
  ----------------------------------------
      1 Li                    0.769136
      2 C                    -0.153195
      3 O                    -0.531740
      4 C                    -0.150483
      5 S                     1.797258
      6 O                    -0.533798
      7 O                    -0.592556
      8 O                    -0.590008
      9 H                     0.254673
     10 H                     0.238091
     11 H                     0.238514
     12 H                     0.254108
  ----------------------------------------
  Sum of atomic charges =     1.000000

 -----------------------------------------------------------------
                    Cartesian Multipole Moments
 -----------------------------------------------------------------
    Charge (ESU x 10^10)
                 4.8032
    Dipole Moment (Debye)
         X       3.4831      Y       0.1159      Z      -0.2095
       Tot       3.4913
    Quadrupole Moments (Debye-Ang)
        XX       6.4722     XY       0.3418     YY     -46.1906
        XZ      -0.5969     YZ       0.3309     ZZ     -50.3775
    Octopole Moments (Debye-Ang^2)
       XXX     111.8675    XXY       1.3283    XYY      -2.2488
       YYY       0.8438    XXZ      -2.4789    XYZ       2.8505
       YYZ      -0.5500    XZZ      -6.7801    YZZ       0.2325
       ZZZ      -1.5701
    Hexadecapole Moments (Debye-Ang^3)
      XXXX       4.0598   XXXY       3.7127   XXYY     -97.5059
      XYYY      -0.0675   YYYY    -189.2659   XXXZ      -7.3941
      XXYZ       8.1146   XYYZ      -0.1834   YYYZ      -0.1882
      XXZZ    -110.5953   XYZZ       0.2204   YYZZ     -55.4309
      XZZZ      -0.8130   YZZZ       0.8260   ZZZZ    -161.4577
 -----------------------------------------------------------------
 Calculating analytic gradient of the SCF energy
 Gradient of CDS energy
            1           2           3           4           5           6
    1   0.0000592  -0.0004623   0.0001888  -0.0004437  -0.0000217   0.0001872
    2   0.0000013   0.0010628  -0.0001537  -0.0010696   0.0000110   0.0001552
    3  -0.0000063  -0.0000564  -0.0000837   0.0000690  -0.0000206   0.0000861
            7           8           9          10          11          12
    1  -0.0001274  -0.0001332   0.0001848   0.0002117   0.0001694   0.0001873
    2  -0.0000261   0.0000241  -0.0001067  -0.0001256   0.0001288   0.0000986
    3   0.0000969  -0.0000891   0.0000378   0.0000562  -0.0000669  -0.0000230
 Gradient of SCF Energy
            1           2           3           4           5           6
    1   0.0060520   0.0431726  -0.0263582   0.0441367  -0.0051806  -0.0260520
    2   0.0001501  -0.0310897   0.0240377   0.0281786  -0.0004028  -0.0239386
    3  -0.0001177   0.0191431   0.0050044  -0.0154568  -0.0001251  -0.0055124
            7           8           9          10          11          12
    1   0.0197826   0.0201707  -0.0309094  -0.0066511  -0.0078568  -0.0303065
    2   0.0139117  -0.0138734   0.0169698   0.0141936  -0.0114356  -0.0167014
    3  -0.0413917   0.0418258   0.0302725  -0.0407600   0.0381911  -0.0310732
 Max gradient component =       4.414E-02
 RMS gradient           =       2.435E-02
 Computing VTN gradient.
 Updating gradient with PCM contributions...
 -- total gradient after adding PCM contribution --
---------------------------------------------------
  Atom         X              Y              Z     
---------------------------------------------------
   1      -0.000071       0.000121       0.000136
   2       0.000071      -0.000117       0.000162
   3      -0.000011       0.000012      -0.000088
   4       0.000310      -0.000989       0.001175
   5       0.000156      -0.000127      -0.000045
   6      -0.000030       0.000016      -0.000061
   7       0.000039       0.000064      -0.000138
   8      -0.000040      -0.000082      -0.000050
   9       0.000010      -0.000044       0.000100
  10      -0.000179       0.000137       0.000091
  11      -0.000242       0.000944      -0.001236
  12      -0.000014       0.000065      -0.000047
---------------------------------------------------
 Number of fixed atoms: 0
 Gradient time:  CPU 77.49 s  wall 3.47 s
 Geometry Optimization Parameters
   NAtoms,    NIC,     NZ,  NCons,   NDum,   NFix, NCnnct, MaxDiis
       12     104       0       0       0       0       0       0

 Cartesian Hessian Update
 Hessian Updated using BFGS Update


** GEOMETRY OPTIMIZATION IN DELOCALIZED INTERNAL COORDINATES **
   Searching for a Minimum

   Optimization Cycle:   3

                       Coordinates (Angstroms)
     ATOM                X               Y               Z
      1  Li        3.1346776187    0.0244257085   -0.0441960018
      2  C        -1.8549913819    0.7578892830   -0.0139064772
      3  O        -0.5051752275    1.1010424071    0.4548925900
      4  C        -1.8622947176   -0.7597025951    0.0092787468
      5  S         0.5246410199   -0.0081300204    0.0167595697
      6  O        -0.5036379976   -1.1197934040   -0.4191279547
      7  O         1.3445824495    0.3815273015   -1.1279108799
      8  O         1.3542297854   -0.3921647469    1.1534398463
      9  H        -2.5466667116    1.1980332267    0.6997607788
     10  H        -1.9837179995    1.1748229579   -1.0123347225
     11  H        -2.0238280108   -1.1629377550    1.0038653106
     12  H        -2.5393912883   -1.1949061018   -0.7211916951
   Point Group: c1    Number of degrees of freedom:    30


   Energy is   -784.934292669

 Hessian Updated using BFGS Update

 30 Hessian modes will be used to form the next step
  Hessian Eigenvalues:
     0.000488    0.001514    0.001766    0.006443    0.010092    0.036110
     0.042883    0.047309    0.053054    0.060659    0.068418    0.077236
     0.088899    0.097945    0.103780    0.135852    0.168564    0.197649
     0.236204    0.248863    0.251087    0.285906    0.344452    0.348882
     0.358944    0.363462    0.367528    0.526109    0.546915    2.219924

 Minimum Search - Taking Simple RFO Step
 Searching for Lamda that Minimizes Along All modes
 Value Taken    Lamda =  -0.00010794
 Calculated Step too Large.  Step scaled by  0.808017
 Step Taken.  Stepsize is  0.300000

                             Maximum     Tolerance    Cnvgd?
         Gradient           0.000703      0.000300      NO
         Displacement       0.167223      0.001200      NO
         Energy change     -0.000069      0.000001      NO


 New Cartesian Coordinates Obtained by Inverse Iteration

 Displacement from previous Coordinates is:  0.280723
 ----------------------------------------------------------------
             Standard Nuclear Orientation (Angstroms)
    I     Atom           X                Y                Z
 ----------------------------------------------------------------
    1      Li      3.1348166683     0.0187948210    -0.1393436076
    2      C      -1.8536247739     0.7563720250    -0.0198426442
    3      O      -0.5195887655     1.0895478485     0.5043278630
    4      C      -1.8657226039    -0.7592219679     0.0090086266
    5      S       0.5200839708    -0.0052910762     0.0519949427
    6      O      -0.5004513316    -1.1174922858    -0.4039507775
    7      O       1.3319364378     0.4063182099    -1.0928314671
    8      O       1.3545883448    -0.4005177410     1.1784630016
    9      H      -2.5721176094     1.2074258653     0.6595305635
   10      H      -1.9271828014     1.1663632800    -1.0264312910
   11      H      -2.0299806503    -1.1629942538     1.0047696237
   12      H      -2.5343293469    -1.1991984632    -0.7263657228
 ----------------------------------------------------------------
 Nuclear Repulsion Energy =   484.2246108801 hartrees
 There are       33 alpha and       33 beta electrons
 Discretize the solute cavity surface with Lebedev spheres
	Using 302 Lebedev grid points for each H atom
	Using 302 Lebedev grid points for other atoms
	Atomic van der Waals radii will be scaled by 1.20
 Removing interior tesserae...
 Keep 1145 surface tesserae and discard 2479 interior tesserae
 Molecular Surface Area = 164.328 Angst**2
 Nucleus-field energy     =     0.0000000004 hartrees
 Requested basis set is 6-31++G(d,p)
 There are 57 shells and 180 basis functions
 A cutoff of  1.0D-12 yielded   1574 shell pairs
 There are     16206 function pairs
 Smallest overlap matrix eigenvalue = 1.30E-04

 -----------------------------------------------------------------------
  General SCF calculation program by
  Eric Jon Sundstrom, Paul Horn, Yuezhi Mao, Dmitri Zuev, Alec White,
  David Stuck, Shaama M.S., Shane Yost, Joonho Lee, David Small,
  Daniel Levine, Susi Lehtola, Hugh Burton, Evgeny Epifanovsky
 -----------------------------------------------------------------------
 Exchange:     0.2220 Hartree-Fock + 1.0000 wB97X-D + LR-HF
 Correlation:  1.0000 wB97X-D
 Using SG-3 standard quadrature grid
 Dispersion:   Grimme D
 using 32 threads for integral computing
 -------------------------------------------------------
 OpenMP Integral computing Module                
 Release: version 1.0, May 2013, Q-Chem Inc. Pittsburgh 
 -------------------------------------------------------
 using 32 threads for integral computing
 -------------------------------------------------------
 OpenMP Integral computing Module                
 Release: version 1.0, May 2013, Q-Chem Inc. Pittsburgh 
 -------------------------------------------------------
 -------------------------------------------------------
 OpenMP BLAS3 based DFT computing Module                
 Release: version 1.0, May 2013, Q-Chem Inc. Pittsburgh 
 -------------------------------------------------------
 A restricted SCF calculation will be
 performed using DIIS, GDM
 SCF converges when RMS gradient is below 1.0e-08
 ---------------------------------------
  Cycle       Energy         DIIS error
 ---------------------------------------
    1    -784.9330160984      4.97e-04  
    2    -784.9334552103      1.46e-04  Done DIIS. Switching to GDM
 ---------------------------------------
  Cycle       Energy        RMS Gradient
 ---------------------------------------
    1    -784.9334552103      2.15e-03   Normal BFGS step
    2    -784.9335177948      2.70e-03   Normal BFGS step
    3    -784.9335946877      2.04e-04   Normal BFGS step
    4    -784.9335966619      7.15e-05   Normal BFGS step
    5    -784.9335968263      4.04e-05   Normal BFGS step
    6    -784.9335968542      1.72e-05   Normal BFGS step
    7    -784.9335968631      4.78e-06   Normal BFGS step
    8    -784.9335968633      4.20e-06   Normal BFGS step
    9    -784.9335968636      5.57e-07   Normal BFGS step
   10    -784.9335968636      3.59e-07   Normal BFGS step
   11    -784.9335968637      8.21e-08   Normal BFGS step
   12    -784.9335968637      2.49e-08   Normal BFGS step
   13    -784.9335968637      3.71e-09  Convergence criterion met
 ---------------------------------------
 SCF time:   CPU 543.56s  wall 21.00s 
(0)  E-EN(g) gas-phase elect-nuc energy                    0.000000000 a.u.
(3)  G-ENP(liq) elect-nuc-pol free energy of system     -784.933596864 a.u.
(4)  G-CDS(liq) cavity-dispersion-solvent structure 
     free energy                                               -0.3973 kcal/mol
(6)  G-S(liq) free energy of system                     -784.934229942 a.u.
(9)  DeltaG-S(liq) free energy of  solvation
     (9) = (6) - (0)                                      -492553.6634 kcal/mol
 SCF   energy in the final basis set =     -784.9335968637
 Total energy in the final basis set =     -784.9342299415
 
 --------------------------------------------------------------
 
                    Orbital Energies (a.u.)
 --------------------------------------------------------------
 
 Alpha MOs
 -- Occupied --
-89.382 -19.389 -19.388 -19.346 -19.345 -10.399 -10.399  -8.366
 -6.317  -6.316  -6.315  -2.164  -1.353  -1.227  -1.207  -1.177
 -0.926  -0.814  -0.778  -0.679  -0.671  -0.637  -0.622  -0.592
 -0.571  -0.539  -0.523  -0.510  -0.490  -0.487  -0.485  -0.440
 -0.429
 -- Virtual --
  0.008   0.017   0.017   0.019   0.043   0.062   0.066   0.068
  0.071   0.085   0.089   0.089   0.093   0.115   0.122   0.133
  0.135   0.136   0.141   0.149   0.172   0.174   0.179   0.195
  0.203   0.204   0.212   0.215   0.217   0.220   0.239   0.247
  0.263   0.273   0.275   0.278   0.292   0.308   0.321   0.341
  0.346   0.350   0.354   0.365   0.383   0.392   0.404   0.405
  0.415   0.421   0.428   0.444   0.471   0.501   0.567   0.581
  0.610   0.644   0.665   0.675   0.685   0.730   0.744   0.762
  0.770   0.785   0.827   0.849   0.864   0.901   1.013   1.019
  1.060   1.104   1.114   1.136   1.142   1.170   1.187   1.237
  1.249   1.251   1.307   1.321   1.333   1.376   1.382   1.404
  1.409   1.423   1.448   1.488   1.494   1.522   1.583   1.642
  1.655   1.667   1.690   1.755   1.799   1.832   1.846   1.860
  1.904   1.914   1.960   1.981   1.988   2.003   2.032   2.063
  2.101   2.117   2.175   2.192   2.215   2.266   2.277   2.345
  2.390   2.412   2.506   2.599   2.642   2.650   2.667   2.739
  2.759   2.812   2.834   2.915   2.934   2.940   2.973   3.116
  3.376   3.393   3.535   3.591   4.064   4.212   4.295   4.306
  4.380   4.531   4.758
 --------------------------------------------------------------
 
          Ground-State Mulliken Net Atomic Charges

     Atom                 Charge (a.u.)
  ----------------------------------------
      1 Li                    0.771928
      2 C                    -0.147932
      3 O                    -0.529953
      4 C                    -0.148799
      5 S                     1.786258
      6 O                    -0.536113
      7 O                    -0.594850
      8 O                    -0.587473
      9 H                     0.257102
     10 H                     0.237374
     11 H                     0.236938
     12 H                     0.255519
  ----------------------------------------
  Sum of atomic charges =     1.000000

 -----------------------------------------------------------------
                    Cartesian Multipole Moments
 -----------------------------------------------------------------
    Charge (ESU x 10^10)
                 4.8032
    Dipole Moment (Debye)
         X       3.5272      Y       0.0804      Z      -0.6652
       Tot       3.5903
    Quadrupole Moments (Debye-Ang)
        XX       6.5973     XY       0.2072     YY     -46.1900
        XZ      -1.8889     YZ       0.3414     ZZ     -50.3299
    Octopole Moments (Debye-Ang^2)
       XXX     112.5097    XXY       0.8846    XYY      -2.2248
       YYY       0.7181    XXZ      -7.8438    XYZ       2.9120
       YYZ      -1.5856    XZZ      -6.0885    YZZ       0.0804
       ZZZ      -4.9536
    Hexadecapole Moments (Debye-Ang^3)
      XXXX       6.8365   XXXY       2.0664   XXYY     -97.1358
      XYYY      -0.3573   YYYY    -189.0503   XXXZ     -23.0595
      XXYZ       8.4573   XYYZ      -0.5554   YYYZ       0.0754
      XXZZ    -109.8116   XYZZ       0.4994   YYZZ     -55.6374
      XZZZ      -2.3921   YZZZ       0.9788   ZZZZ    -162.1401
 -----------------------------------------------------------------
 Calculating analytic gradient of the SCF energy
 Gradient of CDS energy
            1           2           3           4           5           6
    1   0.0000592  -0.0004623   0.0001888  -0.0004437  -0.0000217   0.0001872
    2   0.0000013   0.0010628  -0.0001537  -0.0010696   0.0000110   0.0001552
    3  -0.0000063  -0.0000564  -0.0000837   0.0000690  -0.0000206   0.0000861
            7           8           9          10          11          12
    1  -0.0001274  -0.0001332   0.0001848   0.0002117   0.0001694   0.0001873
    2  -0.0000261   0.0000241  -0.0001067  -0.0001256   0.0001288   0.0000986
    3   0.0000969  -0.0000891   0.0000378   0.0000562  -0.0000669  -0.0000230
 Gradient of SCF Energy
            1           2           3           4           5           6
    1   0.0063452   0.0409021  -0.0268980   0.0436694  -0.0067882  -0.0258667
    2  -0.0004131  -0.0305660   0.0236343   0.0289969  -0.0000241  -0.0237940
    3  -0.0005416   0.0216247   0.0046389  -0.0160648  -0.0006134  -0.0059131
            7           8           9          10          11          12
    1   0.0196316   0.0210364  -0.0323832  -0.0028747  -0.0069233  -0.0298508
    2   0.0146722  -0.0140983   0.0175155   0.0135353  -0.0123700  -0.0170887
    3  -0.0403103   0.0420673   0.0288927  -0.0410375   0.0386801  -0.0314228
 Max gradient component =       4.367E-02
 RMS gradient           =       2.433E-02
 Computing VTN gradient.
 Updating gradient with PCM contributions...
 -- total gradient after adding PCM contribution --
---------------------------------------------------
  Atom         X              Y              Z     
---------------------------------------------------
   1      -0.000049      -0.000303      -0.000213
   2      -0.000897       0.000299       0.000158
   3      -0.000039      -0.000000       0.000122
   4      -0.000229       0.001562      -0.001661
   5      -0.000133       0.000076      -0.000044
   6       0.000034       0.000042      -0.000183
   7      -0.000052       0.000122       0.000232
   8       0.000202       0.000115      -0.000050
   9      -0.000045      -0.000058      -0.000016
  10       0.000927      -0.000324       0.000077
  11       0.000166      -0.001506       0.001629
  12       0.000116      -0.000024      -0.000053
---------------------------------------------------
 Number of fixed atoms: 0
 Gradient time:  CPU 78.00 s  wall 3.44 s
 Geometry Optimization Parameters
   NAtoms,    NIC,     NZ,  NCons,   NDum,   NFix, NCnnct, MaxDiis
       12     104       0       0       0       0       0       0

 Cartesian Hessian Update
 Hessian Updated using BFGS Update


** GEOMETRY OPTIMIZATION IN DELOCALIZED INTERNAL COORDINATES **
   Searching for a Minimum

   Optimization Cycle:   4

                       Coordinates (Angstroms)
     ATOM                X               Y               Z
      1  Li        3.1348166683    0.0187948210   -0.1393436076
      2  C        -1.8536247739    0.7563720250   -0.0198426442
      3  O        -0.5195887655    1.0895478485    0.5043278630
      4  C        -1.8657226039   -0.7592219679    0.0090086266
      5  S         0.5200839708   -0.0052910762    0.0519949427
      6  O        -0.5004513316   -1.1174922858   -0.4039507775
      7  O         1.3319364378    0.4063182099   -1.0928314671
      8  O         1.3545883448   -0.4005177410    1.1784630016
      9  H        -2.5721176094    1.2074258653    0.6595305635
     10  H        -1.9271828014    1.1663632800   -1.0264312910
     11  H        -2.0299806503   -1.1629942538    1.0047696237
     12  H        -2.5343293469   -1.1991984632   -0.7263657228
   Point Group: c1    Number of degrees of freedom:    30


   Energy is   -784.934229942

 Hessian Updated using BFGS Update

 30 Hessian modes will be used to form the next step
  Hessian Eigenvalues:
     0.000672    0.001765    0.004172    0.006572    0.010095    0.036127
     0.043883    0.048070    0.053947    0.060827    0.068867    0.077282
     0.089245    0.097959    0.104694    0.135932    0.168580    0.197651
     0.237620    0.248839    0.251155    0.285894    0.344532    0.349080
     0.359302    0.363467    0.367544    0.526309    0.546922    2.249913

 Minimum Search - Taking Simple RFO Step
 Searching for Lamda that Minimizes Along All modes
 Value Taken    Lamda =  -0.00011578
 Step Taken.  Stepsize is  0.158322

                             Maximum     Tolerance    Cnvgd?
         Gradient           0.000954      0.000300      NO
         Displacement       0.074386      0.001200      NO
         Energy change      0.000063      0.000001      NO


 New Cartesian Coordinates Obtained by Inverse Iteration

 Displacement from previous Coordinates is:  0.157258
 ----------------------------------------------------------------
             Standard Nuclear Orientation (Angstroms)
    I     Atom           X                Y                Z
 ----------------------------------------------------------------
    1      Li      3.1392560216     0.0313004979    -0.0952443578
    2      C      -1.8540651795     0.7578070803    -0.0173965448
    3      O      -0.5101409725     1.0968026350     0.4724498692
    4      C      -1.8642319020    -0.7591500087     0.0082740738
    5      S       0.5229021853    -0.0101848078     0.0354611782
    6      O      -0.5030027172    -1.1196234253    -0.4130085914
    7      O       1.3444821455     0.3866323634    -1.1068572036
    8      O       1.3484374503    -0.4000215751     1.1712261907
    9      H      -2.5556149128     1.2019648209     0.6840430611
   10      H      -1.9641543191     1.1726729967    -1.0189348399
   11      H      -2.0273282196    -1.1621074747     1.0035085658
   12      H      -2.5381120415    -1.1959868408    -0.7241922904
 ----------------------------------------------------------------
 Nuclear Repulsion Energy =   484.1266753373 hartrees
 There are       33 alpha and       33 beta electrons
 Discretize the solute cavity surface with Lebedev spheres
	Using 302 Lebedev grid points for each H atom
	Using 302 Lebedev grid points for other atoms
	Atomic van der Waals radii will be scaled by 1.20
 Removing interior tesserae...
 Keep 1147 surface tesserae and discard 2477 interior tesserae
 Molecular Surface Area = 164.642 Angst**2
 Nucleus-field energy     =     0.0000000004 hartrees
 Requested basis set is 6-31++G(d,p)
 There are 57 shells and 180 basis functions
 A cutoff of  1.0D-12 yielded   1574 shell pairs
 There are     16206 function pairs
 Smallest overlap matrix eigenvalue = 1.31E-04

 -----------------------------------------------------------------------
  General SCF calculation program by
  Eric Jon Sundstrom, Paul Horn, Yuezhi Mao, Dmitri Zuev, Alec White,
  David Stuck, Shaama M.S., Shane Yost, Joonho Lee, David Small,
  Daniel Levine, Susi Lehtola, Hugh Burton, Evgeny Epifanovsky
 -----------------------------------------------------------------------
 Exchange:     0.2220 Hartree-Fock + 1.0000 wB97X-D + LR-HF
 Correlation:  1.0000 wB97X-D
 Using SG-3 standard quadrature grid
 Dispersion:   Grimme D
 using 32 threads for integral computing
 -------------------------------------------------------
 OpenMP Integral computing Module                
 Release: version 1.0, May 2013, Q-Chem Inc. Pittsburgh 
 -------------------------------------------------------
 using 32 threads for integral computing
 -------------------------------------------------------
 OpenMP Integral computing Module                
 Release: version 1.0, May 2013, Q-Chem Inc. Pittsburgh 
 -------------------------------------------------------
 -------------------------------------------------------
 OpenMP BLAS3 based DFT computing Module                
 Release: version 1.0, May 2013, Q-Chem Inc. Pittsburgh 
 -------------------------------------------------------
 A restricted SCF calculation will be
 performed using DIIS, GDM
 SCF converges when RMS gradient is below 1.0e-08
 ---------------------------------------
  Cycle       Energy         DIIS error
 ---------------------------------------
    1    -784.9314412413      3.22e-04  
    2    -784.9336420553      7.36e-05  Done DIIS. Switching to GDM
 ---------------------------------------
  Cycle       Energy        RMS Gradient
 ---------------------------------------
    1    -784.9336420553      8.41e-04   Normal BFGS step
    2    -784.9336803309      9.95e-04   Normal BFGS step
    3    -784.9336854368      5.50e-04   Normal BFGS step
    4    -784.9336899310      3.41e-05   Normal BFGS step
    5    -784.9336899687      2.62e-05   Normal BFGS step
    6    -784.9336899827      9.82e-06   Normal BFGS step
    7    -784.9336899842      5.15e-06   Normal BFGS step
    8    -784.9336899848      1.16e-06   Normal BFGS step
    9    -784.9336899849      5.64e-07   Normal BFGS step
   10    -784.9336899849      1.39e-07   Normal BFGS step
   11    -784.9336899849      5.92e-08   Normal BFGS step
   12    -784.9336899849      1.32e-08   Normal BFGS step
   13    -784.9336899849      5.02e-09  Convergence criterion met
 ---------------------------------------
 SCF time:   CPU 539.24s  wall 20.00s 
(0)  E-EN(g) gas-phase elect-nuc energy                    0.000000000 a.u.
(3)  G-ENP(liq) elect-nuc-pol free energy of system     -784.933689985 a.u.
(4)  G-CDS(liq) cavity-dispersion-solvent structure 
     free energy                                               -0.3973 kcal/mol
(6)  G-S(liq) free energy of system                     -784.934323063 a.u.
(9)  DeltaG-S(liq) free energy of  solvation
     (9) = (6) - (0)                                      -492553.7218 kcal/mol
 SCF   energy in the final basis set =     -784.9336899849
 Total energy in the final basis set =     -784.9343230628
 
 --------------------------------------------------------------
 
                    Orbital Energies (a.u.)
 --------------------------------------------------------------
 
 Alpha MOs
 -- Occupied --
-89.382 -19.389 -19.389 -19.346 -19.345 -10.399 -10.399  -8.366
 -6.318  -6.316  -6.315  -2.164  -1.354  -1.227  -1.207  -1.177
 -0.926  -0.814  -0.778  -0.678  -0.671  -0.637  -0.622  -0.593
 -0.571  -0.540  -0.523  -0.510  -0.489  -0.487  -0.485  -0.440
 -0.428
 -- Virtual --
  0.008   0.017   0.017   0.019   0.042   0.062   0.066   0.068
  0.070   0.086   0.089   0.090   0.093   0.115   0.122   0.133
  0.135   0.135   0.140   0.149   0.171   0.175   0.179   0.195
  0.203   0.204   0.212   0.215   0.216   0.220   0.239   0.247
  0.264   0.273   0.276   0.278   0.292   0.307   0.320   0.342
  0.346   0.351   0.354   0.364   0.383   0.393   0.404   0.405
  0.415   0.422   0.427   0.444   0.471   0.501   0.567   0.581
  0.610   0.644   0.664   0.675   0.684   0.732   0.743   0.764
  0.769   0.783   0.828   0.849   0.865   0.901   1.014   1.018
  1.062   1.103   1.114   1.131   1.143   1.172   1.184   1.239
  1.248   1.251   1.307   1.321   1.332   1.378   1.381   1.405
  1.409   1.424   1.447   1.489   1.493   1.522   1.584   1.642
  1.655   1.667   1.691   1.755   1.798   1.835   1.846   1.861
  1.904   1.914   1.959   1.983   1.985   2.000   2.034   2.062
  2.097   2.112   2.176   2.194   2.213   2.268   2.280   2.346
  2.391   2.411   2.509   2.602   2.641   2.647   2.667   2.741
  2.756   2.809   2.835   2.916   2.935   2.940   2.973   3.116
  3.375   3.395   3.533   3.593   4.063   4.211   4.294   4.309
  4.377   4.529   4.756
 --------------------------------------------------------------
 
          Ground-State Mulliken Net Atomic Charges

     Atom                 Charge (a.u.)
  ----------------------------------------
      1 Li                    0.772109
      2 C                    -0.149474
      3 O                    -0.531630
      4 C                    -0.151389
      5 S                     1.792160
      6 O                    -0.534325
      7 O                    -0.594122
      8 O                    -0.588605
      9 H                     0.255289
     10 H                     0.237590
     11 H                     0.237985
     12 H                     0.254413
  ----------------------------------------
  Sum of atomic charges =     1.000000

 -----------------------------------------------------------------
                    Cartesian Multipole Moments
 -----------------------------------------------------------------
    Charge (ESU x 10^10)
                 4.8032
    Dipole Moment (Debye)
         X       3.5376      Y       0.1433      Z      -0.4485
       Tot       3.5688
    Quadrupole Moments (Debye-Ang)
        XX       6.6664     XY       0.4207     YY     -46.1978
        XZ      -1.2649     YZ       0.3311     ZZ     -50.3618
    Octopole Moments (Debye-Ang^2)
       XXX     112.8500    XXY       1.6375    XYY      -2.2061
       YYY       1.0341    XXZ      -5.2957    XYZ       2.8641
       YYZ      -1.0879    XZZ      -6.4977    YZZ       0.3010
       ZZZ      -3.3329
    Hexadecapole Moments (Debye-Ang^3)
      XXXX       7.7462   XXXY       4.5699   XXYY     -97.3765
      XYYY      -0.0545   YYYY    -189.2933   XXXZ     -15.5719
      XXYZ       8.1789   XYYZ      -0.4018   YYYZ      -0.0397
      XXZZ    -110.2644   XYZZ       0.4221   YYZZ     -55.5298
      XZZZ      -1.7393   YZZZ       0.9448   ZZZZ    -161.7458
 -----------------------------------------------------------------
 Calculating analytic gradient of the SCF energy
 Gradient of CDS energy
            1           2           3           4           5           6
    1   0.0000592  -0.0004623   0.0001888  -0.0004437  -0.0000217   0.0001872
    2   0.0000013   0.0010628  -0.0001537  -0.0010696   0.0000110   0.0001552
    3  -0.0000063  -0.0000564  -0.0000837   0.0000690  -0.0000206   0.0000861
            7           8           9          10          11          12
    1  -0.0001274  -0.0001332   0.0001848   0.0002117   0.0001694   0.0001873
    2  -0.0000261   0.0000241  -0.0001067  -0.0001256   0.0001288   0.0000986
    3   0.0000969  -0.0000891   0.0000378   0.0000562  -0.0000669  -0.0000230
 Gradient of SCF Energy
            1           2           3           4           5           6
    1   0.0063937   0.0427947  -0.0264526   0.0436965  -0.0060573  -0.0259620
    2   0.0000046  -0.0308586   0.0238838   0.0284047  -0.0000630  -0.0238316
    3  -0.0003176   0.0198520   0.0048700  -0.0156820  -0.0006709  -0.0055799
            7           8           9          10          11          12
    1   0.0198440   0.0202850  -0.0313429  -0.0056362  -0.0074108  -0.0301521
    2   0.0140942  -0.0142183   0.0171505   0.0140315  -0.0117782  -0.0168197
    3  -0.0406791   0.0422841   0.0296899  -0.0409002   0.0383448  -0.0312111
 Max gradient component =       4.370E-02
 RMS gradient           =       2.434E-02
 Computing VTN gradient.
 Updating gradient with PCM contributions...
 -- total gradient after adding PCM contribution --
---------------------------------------------------
  Atom         X              Y              Z     
---------------------------------------------------
   1       0.000049      -0.000008      -0.000104
   2       0.000092       0.000029      -0.000125
   3       0.000061      -0.000043       0.000114
   4      -0.000017      -0.000236       0.000106
   5      -0.000117       0.000098       0.000023
   6       0.000024       0.000038      -0.000020
   7      -0.000049       0.000042       0.000081
   8       0.000035      -0.000135      -0.000007
   9       0.000007      -0.000037       0.000106
  10      -0.000087       0.000050       0.000080
  11       0.000029       0.000165      -0.000201
  12      -0.000027       0.000037      -0.000053
---------------------------------------------------
 Number of fixed atoms: 0
 Gradient time:  CPU 77.76 s  wall 3.49 s
 Geometry Optimization Parameters
   NAtoms,    NIC,     NZ,  NCons,   NDum,   NFix, NCnnct, MaxDiis
       12     104       0       0       0       0       0       0

 Cartesian Hessian Update
 Hessian Updated using BFGS Update


** GEOMETRY OPTIMIZATION IN DELOCALIZED INTERNAL COORDINATES **
   Searching for a Minimum

   Optimization Cycle:   5

                       Coordinates (Angstroms)
     ATOM                X               Y               Z
      1  Li        3.1392560216    0.0313004979   -0.0952443578
      2  C        -1.8540651795    0.7578070803   -0.0173965448
      3  O        -0.5101409725    1.0968026350    0.4724498692
      4  C        -1.8642319020   -0.7591500087    0.0082740738
      5  S         0.5229021853   -0.0101848078    0.0354611782
      6  O        -0.5030027172   -1.1196234253   -0.4130085914
      7  O         1.3444821455    0.3866323634   -1.1068572036
      8  O         1.3484374503   -0.4000215751    1.1712261907
      9  H        -2.5556149128    1.2019648209    0.6840430611
     10  H        -1.9641543191    1.1726729967   -1.0189348399
     11  H        -2.0273282196   -1.1621074747    1.0035085658
     12  H        -2.5381120415   -1.1959868408   -0.7241922904
   Point Group: c1    Number of degrees of freedom:    30


   Energy is   -784.934323063

 Hessian Updated using BFGS Update

 30 Hessian modes will be used to form the next step
  Hessian Eigenvalues:
     0.000629    0.001761    0.003989    0.006658    0.010129    0.036115
     0.043844    0.048166    0.055058    0.061311    0.068608    0.077429
     0.089590    0.097933    0.105298    0.135887    0.168625    0.197666
     0.237349    0.249023    0.251101    0.285887    0.344457    0.349102
     0.359327    0.363498    0.367567    0.526116    0.546917    2.264976

 Minimum Search - Taking Simple RFO Step
 Searching for Lamda that Minimizes Along All modes
 Value Taken    Lamda =  -0.00000833
 Step Taken.  Stepsize is  0.104288

                             Maximum     Tolerance    Cnvgd?
         Gradient           0.000210      0.000300     YES
         Displacement       0.087373      0.001200      NO
         Energy change     -0.000093      0.000001      NO


 New Cartesian Coordinates Obtained by Inverse Iteration

 Displacement from previous Coordinates is:  0.077535
 ----------------------------------------------------------------
             Standard Nuclear Orientation (Angstroms)
    I     Atom           X                Y                Z
 ----------------------------------------------------------------
    1      Li      3.1354928398     0.0262488820    -0.0645026908
    2      C      -1.8543862029     0.7576125555    -0.0153376107
    3      O      -0.5081099648     1.0975498583     0.4668525966
    4      C      -1.8635798893    -0.7594538238     0.0095814740
    5      S       0.5234583574    -0.0085036202     0.0242283899
    6      O      -0.5037145244    -1.1196872338    -0.4164028944
    7      O       1.3412981587     0.3867119498    -1.1204698041
    8      O       1.3542424979    -0.3955971847     1.1582831121
    9      H      -2.5525965107     1.2011111072     0.6897955652
   10      H      -1.9694400576     1.1727320005    -1.0161553526
   11      H      -2.0246748831    -1.1628427539     1.0046832578
   12      H      -2.5395622822    -1.1957754752    -0.7212269320
 ----------------------------------------------------------------
 Nuclear Repulsion Energy =   484.1645277697 hartrees
 There are       33 alpha and       33 beta electrons
 Discretize the solute cavity surface with Lebedev spheres
	Using 302 Lebedev grid points for each H atom
	Using 302 Lebedev grid points for other atoms
	Atomic van der Waals radii will be scaled by 1.20
 Removing interior tesserae...
 Keep 1148 surface tesserae and discard 2476 interior tesserae
 Molecular Surface Area = 164.323 Angst**2
 Nucleus-field energy     =     0.0000000004 hartrees
 Requested basis set is 6-31++G(d,p)
 There are 57 shells and 180 basis functions
 A cutoff of  1.0D-12 yielded   1574 shell pairs
 There are     16206 function pairs
 Smallest overlap matrix eigenvalue = 1.31E-04

 -----------------------------------------------------------------------
  General SCF calculation program by
  Eric Jon Sundstrom, Paul Horn, Yuezhi Mao, Dmitri Zuev, Alec White,
  David Stuck, Shaama M.S., Shane Yost, Joonho Lee, David Small,
  Daniel Levine, Susi Lehtola, Hugh Burton, Evgeny Epifanovsky
 -----------------------------------------------------------------------
 Exchange:     0.2220 Hartree-Fock + 1.0000 wB97X-D + LR-HF
 Correlation:  1.0000 wB97X-D
 Using SG-3 standard quadrature grid
 Dispersion:   Grimme D
 using 32 threads for integral computing
 -------------------------------------------------------
 OpenMP Integral computing Module                
 Release: version 1.0, May 2013, Q-Chem Inc. Pittsburgh 
 -------------------------------------------------------
 using 32 threads for integral computing
 -------------------------------------------------------
 OpenMP Integral computing Module                
 Release: version 1.0, May 2013, Q-Chem Inc. Pittsburgh 
 -------------------------------------------------------
 -------------------------------------------------------
 OpenMP BLAS3 based DFT computing Module                
 Release: version 1.0, May 2013, Q-Chem Inc. Pittsburgh 
 -------------------------------------------------------
 A restricted SCF calculation will be
 performed using DIIS, GDM
 SCF converges when RMS gradient is below 1.0e-08
 ---------------------------------------
  Cycle       Energy         DIIS error
 ---------------------------------------
    1    -784.9331502539      1.22e-04  
    2    -784.9336403213      5.83e-05  Done DIIS. Switching to GDM
 ---------------------------------------
  Cycle       Energy        RMS Gradient
 ---------------------------------------
    1    -784.9336403213      1.08e-03   Normal BFGS step
    2    -784.9336361057      1.51e-03  Line search: overstep
    3    -784.9336517977      2.62e-04   Normal BFGS step
    4    -784.9336542596      6.00e-05   Normal BFGS step
    5    -784.9336543477      1.29e-05   Normal BFGS step
    6    -784.9336543500      1.34e-05   Normal BFGS step
[...]
            7           8           9          10          11          12
    1  -0.0001274  -0.0001332   0.0001848   0.0002117   0.0001694   0.0001873
    2  -0.0000261   0.0000241  -0.0001067  -0.0001256   0.0001288   0.0000986
    3   0.0000969  -0.0000891   0.0000378   0.0000562  -0.0000669  -0.0000230
 Gradient of SCF Energy
            1           2           3           4           5           6
    1   0.0048789   0.0440105  -0.0262635   0.0422192  -0.0061482  -0.0265743
    2  -0.0005118  -0.0276976   0.0236638   0.0316771   0.0003572  -0.0239616
    3   0.0005186   0.0150579   0.0057556  -0.0205573   0.0009102  -0.0051298
            7           8           9          10          11          12
    1   0.0210707   0.0208195  -0.0303352  -0.0073607  -0.0046953  -0.0316216
    2   0.0146464  -0.0140442   0.0164404   0.0115344  -0.0142993  -0.0178049
    3  -0.0418667   0.0401768   0.0315666  -0.0378973   0.0407260  -0.0292607
 Max gradient component =       4.401E-02
 RMS gradient           =       2.433E-02
 Computing VTN gradient.
 Updating gradient with PCM contributions...
 -- total gradient after adding PCM contribution --
---------------------------------------------------
  Atom         X              Y              Z     
---------------------------------------------------
   1      -0.001062      -0.000275       0.000144
   2       0.000086       0.000005      -0.000062
   3       0.000041       0.000041       0.000115
   4      -0.000061       0.000034      -0.000125
   5      -0.000082      -0.000055       0.000173
   6       0.000013       0.000083      -0.000242
   7       0.000296       0.000117       0.000094
   8       0.000809       0.000142      -0.000246
   9      -0.000104      -0.000050       0.000085
  10       0.000005       0.000065       0.000183
  11      -0.000015       0.000023      -0.000189
  12       0.000075      -0.000129       0.000068
---------------------------------------------------
 Number of fixed atoms: 0
 Gradient time:  CPU 78.34 s  wall 3.48 s
 Geometry Optimization Parameters
   NAtoms,    NIC,     NZ,  NCons,   NDum,   NFix, NCnnct, MaxDiis
       12     104       0       0       0       0       0       0

 Cartesian Hessian Update
 Hessian Updated using BFGS Update


** GEOMETRY OPTIMIZATION IN DELOCALIZED INTERNAL COORDINATES **
   Searching for a Minimum

   Optimization Cycle: 199

                       Coordinates (Angstroms)
     ATOM                X               Y               Z
      1  Li        3.1205063726   -0.0678172803    0.1289282875
      2  C        -1.8691785887    0.7580499026   -0.0070162812
      3  O        -0.5075876213    1.1260777712    0.4102193939
      4  C        -1.8466990449   -0.7584385702    0.0117754948
      5  S         0.5227974714    0.0230321035   -0.0426865505
      6  O        -0.5052729742   -1.0817423391   -0.4957968749
      7  O         1.3566671870    0.4216406582   -1.1686093440
      8  O         1.3389381261   -0.3837228244    1.1014579179
      9  H        -2.5433643566    1.1867147805    0.7300635144
     10  H        -2.0374115501    1.1633231534   -0.9997411897
     11  H        -1.9388882687   -1.1784836519    1.0124716444
     12  H        -2.5520792137   -1.2085274419   -0.6817369017
   Point Group: c1    Number of degrees of freedom:    30


   Energy is   -784.934103868

 Hessian Updated using BFGS Update

 30 Hessian modes will be used to form the next step
  Hessian Eigenvalues:
     0.004790    0.019033    0.025726    0.048516    0.060289    0.071486
     0.081958    0.085898    0.095929    0.121336    0.125752    0.147568
     0.182683    0.209808    0.231341    0.268954    0.289555    0.303151
     0.339284    0.387984    0.390187    0.420429    0.428290    0.451203
     0.603701    0.715795    0.795486    1.167648    2.027914    4.481152

 Minimum Search - Taking Simple RFO Step
 Searching for Lamda that Minimizes Along All modes
 Value Taken    Lamda =  -0.00000186
 Step Taken.  Stepsize is  0.008711

                             Maximum     Tolerance    Cnvgd?
         Gradient           0.000720      0.000300      NO
         Displacement       0.005150      0.001200      NO
         Energy change      0.000009      0.000001      NO


 New Cartesian Coordinates Obtained by Inverse Iteration

 Displacement from previous Coordinates is:  0.008619
 ----------------------------------------------------------------
             Standard Nuclear Orientation (Angstroms)
    I     Atom           X                Y                Z
 ----------------------------------------------------------------
    1      Li      3.1203755191    -0.0654620597     0.1309288714
    2      C      -1.8690128951     0.7580298858    -0.0069609776
    3      O      -0.5071900168     1.1257319180     0.4093124826
    4      C      -1.8469507834    -0.7585898548     0.0118808414
    5      S       0.5227336572     0.0223401369    -0.0435209308
    6      O      -0.5058252930    -1.0817980583    -0.4969830896
    7      O       1.3572717615     0.4207627784    -1.1692541929
    8      O       1.3382203748    -0.3846747293     1.1009671249
    9      H      -2.5426908864     1.1864654442     0.7308976770
   10      H      -2.0372200619     1.1634118960    -0.9997619598
   11      H      -1.9382008671    -1.1782793954     1.0131613565
   12      H      -2.5530829701    -1.2078317001    -0.6813380921
 ----------------------------------------------------------------
 Nuclear Repulsion Energy =   484.3550519176 hartrees
 There are       33 alpha and       33 beta electrons
 Discretize the solute cavity surface with Lebedev spheres
	Using 302 Lebedev grid points for each H atom
	Using 302 Lebedev grid points for other atoms
	Atomic van der Waals radii will be scaled by 1.20
 Removing interior tesserae...
 Keep 1139 surface tesserae and discard 2485 interior tesserae
 Molecular Surface Area = 163.578 Angst**2
 Nucleus-field energy     =     0.0000000004 hartrees
 Requested basis set is 6-31++G(d,p)
 There are 57 shells and 180 basis functions
 A cutoff of  1.0D-12 yielded   1574 shell pairs
 There are     16206 function pairs
 Smallest overlap matrix eigenvalue = 1.31E-04

 -----------------------------------------------------------------------
  General SCF calculation program by
  Eric Jon Sundstrom, Paul Horn, Yuezhi Mao, Dmitri Zuev, Alec White,
  David Stuck, Shaama M.S., Shane Yost, Joonho Lee, David Small,
  Daniel Levine, Susi Lehtola, Hugh Burton, Evgeny Epifanovsky
 -----------------------------------------------------------------------
 Exchange:     0.2220 Hartree-Fock + 1.0000 wB97X-D + LR-HF
 Correlation:  1.0000 wB97X-D
 Using SG-3 standard quadrature grid
 Dispersion:   Grimme D
 using 32 threads for integral computing
 -------------------------------------------------------
 OpenMP Integral computing Module                
 Release: version 1.0, May 2013, Q-Chem Inc. Pittsburgh 
 -------------------------------------------------------
 using 32 threads for integral computing
 -------------------------------------------------------
 OpenMP Integral computing Module                
 Release: version 1.0, May 2013, Q-Chem Inc. Pittsburgh 
 -------------------------------------------------------
 -------------------------------------------------------
 OpenMP BLAS3 based DFT computing Module                
 Release: version 1.0, May 2013, Q-Chem Inc. Pittsburgh 
 -------------------------------------------------------
 A restricted SCF calculation will be
 performed using DIIS, GDM
 SCF converges when RMS gradient is below 1.0e-08
 ---------------------------------------
  Cycle       Energy         DIIS error
 ---------------------------------------
    1    -784.9335048433      1.51e-05  
    2    -784.9334726802      3.57e-06  Done DIIS. Switching to GDM
 ---------------------------------------
  Cycle       Energy        RMS Gradient
 ---------------------------------------
    1    -784.9334726802      6.21e-05   Normal BFGS step
    2    -784.9334727655      3.61e-05   Normal BFGS step
    3    -784.9334727808      1.87e-05   Normal BFGS step
    4    -784.9334727888      2.54e-06   Normal BFGS step
    5    -784.9334727890      1.69e-06   Normal BFGS step
    6    -784.9334727891      6.08e-07   Normal BFGS step
    7    -784.9334727891      2.68e-07   Normal BFGS step
    8    -784.9334727891      5.34e-08   Normal BFGS step
    9    -784.9334727891      2.03e-08   Normal BFGS step
   10    -784.9334727891      9.66e-09  Convergence criterion met
 ---------------------------------------
 SCF time:   CPU 428.26s  wall 17.00s 
(0)  E-EN(g) gas-phase elect-nuc energy                    0.000000000 a.u.
(3)  G-ENP(liq) elect-nuc-pol free energy of system     -784.933472789 a.u.
(4)  G-CDS(liq) cavity-dispersion-solvent structure 
     free energy                                               -0.3973 kcal/mol
(6)  G-S(liq) free energy of system                     -784.934105867 a.u.
(9)  DeltaG-S(liq) free energy of  solvation
     (9) = (6) - (0)                                      -492553.5855 kcal/mol
 SCF   energy in the final basis set =     -784.9334727891
 Total energy in the final basis set =     -784.9341058670
 
 --------------------------------------------------------------
 
                    Orbital Energies (a.u.)
 --------------------------------------------------------------
 
 Alpha MOs
 -- Occupied --
-89.382 -19.390 -19.389 -19.346 -19.345 -10.399 -10.399  -8.366
 -6.318  -6.317  -6.316  -2.163  -1.354  -1.228  -1.208  -1.178
 -0.927  -0.815  -0.779  -0.679  -0.672  -0.638  -0.623  -0.593
 -0.572  -0.540  -0.523  -0.511  -0.490  -0.488  -0.485  -0.441
 -0.429
 -- Virtual --
  0.008   0.017   0.017   0.019   0.042   0.062   0.066   0.068
  0.070   0.085   0.089   0.090   0.093   0.115   0.121   0.133
  0.135   0.135   0.140   0.148   0.172   0.175   0.179   0.195
  0.203   0.204   0.212   0.216   0.216   0.220   0.238   0.247
  0.264   0.274   0.275   0.279   0.292   0.308   0.320   0.343
  0.346   0.350   0.354   0.365   0.383   0.392   0.404   0.406
  0.415   0.421   0.428   0.445   0.471   0.501   0.567   0.581
  0.611   0.643   0.664   0.675   0.687   0.731   0.744   0.765
  0.770   0.789   0.827   0.850   0.865   0.903   1.013   1.019
  1.062   1.104   1.114   1.140   1.143   1.170   1.187   1.238
  1.248   1.251   1.307   1.321   1.333   1.374   1.381   1.404
  1.409   1.423   1.447   1.489   1.492   1.523   1.583   1.643
  1.655   1.666   1.694   1.755   1.799   1.830   1.846   1.861
  1.906   1.913   1.959   1.982   1.985   2.001   2.033   2.063
  2.107   2.129   2.176   2.193   2.213   2.266   2.279   2.345
  2.393   2.411   2.508   2.600   2.642   2.648   2.667   2.740
  2.757   2.810   2.834   2.915   2.935   2.940   2.972   3.116
  3.376   3.394   3.534   3.592   4.063   4.211   4.294   4.307
  4.378   4.530   4.756
 --------------------------------------------------------------
 
          Ground-State Mulliken Net Atomic Charges

     Atom                 Charge (a.u.)
  ----------------------------------------
      1 Li                    0.764500
      2 C                    -0.148499
      3 O                    -0.535622
      4 C                    -0.150615
      5 S                     1.791778
      6 O                    -0.529793
      7 O                    -0.586607
      8 O                    -0.592401
      9 H                     0.255277
     10 H                     0.237753
     11 H                     0.237766
     12 H                     0.256463
  ----------------------------------------
  Sum of atomic charges =     1.000000

 -----------------------------------------------------------------
                    Cartesian Multipole Moments
 -----------------------------------------------------------------
    Charge (ESU x 10^10)
                 4.8032
    Dipole Moment (Debye)
         X       3.4052      Y      -0.3227      Z       0.5959
       Tot       3.4720
    Quadrupole Moments (Debye-Ang)
        XX       6.0898     XY      -0.9025     YY     -46.1547
        XZ       1.7487     YZ       0.3322     ZZ     -50.3061
    Octopole Moments (Debye-Ang^2)
       XXX     109.9272    XXY      -3.5788    XYY      -2.2911
       YYY      -2.2345    XXZ       7.0863    XYZ       2.8089
       YYZ       1.3812    XZZ      -6.3462    YZZ      -0.6430
       ZZZ       4.1339
    Hexadecapole Moments (Debye-Ang^3)
      XXXX      -2.5163   XXXY      -9.9144   XXYY     -97.1336
      XYYY       0.0343   YYYY    -189.1047   XXXZ      20.6524
      XXYZ       8.1225   XYYZ       0.5554   YYYZ      -0.0654
      XXZZ    -109.7710   XYZZ      -0.6721   YYZZ     -55.5496
      XZZZ       1.7732   YZZZ       0.9583   ZZZZ    -161.7413
 -----------------------------------------------------------------
 Calculating analytic gradient of the SCF energy
 Gradient of CDS energy
            1           2           3           4           5           6
    1   0.0000592  -0.0004623   0.0001888  -0.0004437  -0.0000217   0.0001872
    2   0.0000013   0.0010628  -0.0001537  -0.0010696   0.0000110   0.0001552
    3  -0.0000063  -0.0000564  -0.0000837   0.0000690  -0.0000206   0.0000861
            7           8           9          10          11          12
    1  -0.0001274  -0.0001332   0.0001848   0.0002117   0.0001694   0.0001873
    2  -0.0000261   0.0000241  -0.0001067  -0.0001256   0.0001288   0.0000986
    3   0.0000969  -0.0000891   0.0000378   0.0000562  -0.0000669  -0.0000230
 Gradient of SCF Energy
            1           2           3           4           5           6
    1   0.0048799   0.0440329  -0.0262959   0.0420796  -0.0062442  -0.0265423
    2  -0.0004708  -0.0276588   0.0236017   0.0314185   0.0003219  -0.0238694
    3   0.0005320   0.0150107   0.0057035  -0.0207123   0.0010456  -0.0051339
            7           8           9          10          11          12
    1   0.0212363   0.0207479  -0.0303402  -0.0072470  -0.0046397  -0.0316673
    2   0.0146728  -0.0140573   0.0163881   0.0115700  -0.0142783  -0.0176385
    3  -0.0420552   0.0401698   0.0317292  -0.0379950   0.0410066  -0.0293010
 Max gradient component =       4.403E-02
 RMS gradient           =       2.435E-02
 Computing VTN gradient.
 Updating gradient with PCM contributions...
 -- total gradient after adding PCM contribution --
---------------------------------------------------
  Atom         X              Y              Z     
---------------------------------------------------
   1      -0.001063      -0.000270       0.000147
   2       0.000165      -0.000122       0.000087
   3       0.000002      -0.000032       0.000055
   4      -0.000189      -0.000134      -0.000216
   5      -0.000175      -0.000084       0.000341
   6       0.000056       0.000141      -0.000254
   7       0.000438       0.000176      -0.000099
   8       0.000755       0.000158      -0.000250
   9      -0.000142      -0.000069       0.000186
  10       0.000049       0.000243      -0.000057
  11       0.000026       0.000028       0.000015
  12       0.000078      -0.000035       0.000044
---------------------------------------------------
 Number of fixed atoms: 0
 Gradient time:  CPU 78.84 s  wall 3.48 s
 Geometry Optimization Parameters
   NAtoms,    NIC,     NZ,  NCons,   NDum,   NFix, NCnnct, MaxDiis
       12     104       0       0       0       0       0       0

 Cartesian Hessian Update
 Hessian Updated using BFGS Update


** GEOMETRY OPTIMIZATION IN DELOCALIZED INTERNAL COORDINATES **
   Searching for a Minimum

   Optimization Cycle: 200

                       Coordinates (Angstroms)
     ATOM                X               Y               Z
      1  Li        3.1203755191   -0.0654620597    0.1309288714
      2  C        -1.8690128951    0.7580298858   -0.0069609776
      3  O        -0.5071900168    1.1257319180    0.4093124826
      4  C        -1.8469507834   -0.7585898548    0.0118808414
      5  S         0.5227336572    0.0223401369   -0.0435209308
      6  O        -0.5058252930   -1.0817980583   -0.4969830896
      7  O         1.3572717615    0.4207627784   -1.1692541929
      8  O         1.3382203748   -0.3846747293    1.1009671249
      9  H        -2.5426908864    1.1864654442    0.7308976770
     10  H        -2.0372200619    1.1634118960   -0.9997619598
     11  H        -1.9382008671   -1.1782793954    1.0131613565
     12  H        -2.5530829701   -1.2078317001   -0.6813380921
   Point Group: c1    Number of degrees of freedom:    30


   Energy is   -784.934105867

 Hessian Updated using BFGS Update

 30 Hessian modes will be used to form the next step
  Hessian Eigenvalues:
     0.004219    0.018798    0.024268    0.047265    0.059005    0.072424
     0.078321    0.085512    0.091003    0.121077    0.122121    0.145062
     0.184217    0.209154    0.234188    0.262317    0.273408    0.304301
     0.327441    0.376216    0.398016    0.419230    0.428202    0.451107
     0.588772    0.701315    0.842393    1.015220    2.125552    4.332490

 Minimum Search - Taking Simple RFO Step
 Searching for Lamda that Minimizes Along All modes
 Value Taken    Lamda =  -0.00000231
 Step Taken.  Stepsize is  0.011458

                             Maximum     Tolerance    Cnvgd?
         Gradient           0.000721      0.000300      NO
         Displacement       0.006729      0.001200      NO
         Energy change     -0.000002      0.000001      NO


 New Cartesian Coordinates Obtained by Inverse Iteration

 Displacement from previous Coordinates is:  0.011368
 ----------------------------------------------------------------
             Standard Nuclear Orientation (Angstroms)
    I     Atom           X                Y                Z
 ----------------------------------------------------------------
    1      Li      3.1207042114    -0.0628759614     0.1339341323
    2      C      -1.8688644561     0.7580259514    -0.0068507707
    3      O      -0.5066502840     1.1256396272     0.4078963339
    4      C      -1.8470760675    -0.7586419701     0.0118910588
    5      S       0.5226518926     0.0215928250    -0.0446928424
    6      O      -0.5065596632    -1.0818016260    -0.4986627169
    7      O       1.3578924228     0.4198363499    -1.1700220599
    8      O       1.3371533866    -0.3860134814     1.1002772846
    9      H      -2.5418073302     1.1862254221     0.7319157183
   10      H      -2.0374701997     1.1633828832    -0.9997159480
   11      H      -1.9369721449    -1.1781488941     1.0137252074
   12      H      -2.5545742291    -1.2071148641    -0.6803662865
 ----------------------------------------------------------------
 Nuclear Repulsion Energy =   484.3493396062 hartrees
 There are       33 alpha and       33 beta electrons

                       Distance Matrix (Angstroms)
             Li(  1)   C (  2)   O (  3)   C (  4)   S (  5)   O (  6)
   C (  2)  5.058606
   O (  3)  3.826921  1.470640
   C (  4)  5.017751  1.516940  2.346077
   S (  5)  2.605555  2.502622  1.575823  2.495512
   O (  6)  3.820397  2.341521  2.386346  1.470402  1.575704
   O (  7)  2.245177  3.446636  2.542539  3.613524  1.456911  2.486327
   O (  8)  2.054091  3.579540  2.482760  3.385669  1.463049  2.537717
   H (  9)  5.829397  1.087190  2.061680  2.187143  3.369036  3.286412
   H ( 10)  5.421774  1.085598  2.079953  2.180316  2.961415  2.763258
   H ( 11)  5.253376  2.189746  2.778541  1.089834  2.934174  2.083910
   H ( 12)  5.846465  2.187601  3.289385  1.086693  3.373889  2.059875
             O (  7)   O (  8)   H (  9)   H ( 10)   H ( 11)
   O (  8)  2.409166
   H (  9)  4.405948  4.201662
   H ( 10)  3.479993  4.265992  1.803726
   H ( 11)  4.263618  3.369698  2.456727  3.089792
   H ( 12)  4.265458  4.357803  2.778989  2.447170  1.803391
 


 *******************************************
 **  MAXIMUM OPTIMIZATION CYCLES REACHED  **
 *******************************************

 Q-Chem fatal error occurred in module 0, line  456:

 Maximum optimization cycles reached

