   2   2   1   0
  0.2002240E+02  0.3840198E-09  0.3840199E-09  0.3840198E-09  0.5000000E-15
  1.000000000000000E-004
  CAR 
 unknown system                          
     21.70649200     -7.52829606  301      5.63344915      1.00000000
     -7.528  0.0000E+00  0.0000E+00  0.0000E+00  0.0000E+00
     -7.431  0.0000E+00  0.0000E+00  0.0000E+00  0.0000E+00
     -7.333  0.0000E+00  0.0000E+00  0.0000E+00  0.0000E+00
     -7.236  0.0000E+00  0.0000E+00  0.0000E+00  0.0000E+00
     -7.138  0.0000E+00  0.0000E+00  0.0000E+00  0.0000E+00
     -7.041  0.0000E+00  0.0000E+00  0.0000E+00  0.0000E+00
     -6.944  0.0000E+00  0.0000E+00  0.0000E+00  0.0000E+00
     -6.846  0.0000E+00  0.0000E+00  0.0000E+00  0.0000E+00
     -6.749  0.0000E+00  0.0000E+00  0.0000E+00  0.0000E+00
     -6.651  0.0000E+00  0.0000E+00  0.0000E+00  0.0000E+00
     -6.554  0.0000E+00  0.0000E+00  0.0000E+00  0.0000E+00
     -6.456  0.0000E+00  0.0000E+00  0.0000E+00  0.0000E+00
     -6.359  0.0000E+00  0.0000E+00  0.0000E+00  0.0000E+00
     -6.261  0.0000E+00  0.0000E+00  0.0000E+00  0.0000E+00
     -6.164  0.2228E-04  0.2090E-04  0.2632E-06  0.2391E-06
     -6.067  0.3133E-03  0.3081E-03  0.1388E-04  0.1353E-04
     -5.969  0.8439E-03  0.8505E-03  0.7627E-04  0.7532E-04
     -5.872  0.8486E-03  0.8468E-03  0.1537E-03  0.1528E-03
     -5.774  0.1028E-02  0.1026E-02  0.2448E-03  0.2436E-03
     -5.677  0.1256E-02  0.1253E-02  0.3557E-03  0.3543E-03
     -5.579  0.1446E-02  0.1445E-02  0.4886E-03  0.4870E-03
     -5.482  0.1480E-02  0.1481E-02  0.6325E-03  0.6308E-03
     -5.384  0.1590E-02  0.1588E-02  0.7821E-03  0.7802E-03
     -5.287  0.1714E-02  0.1712E-02  0.9430E-03  0.9410E-03
     -5.190  0.1844E-02  0.1843E-02  0.1116E-02  0.1114E-02
     -5.092  0.1983E-02  0.1981E-02  0.1303E-02  0.1300E-02
     -4.995  0.2138E-02  0.2136E-02  0.1503E-02  0.1501E-02
     -4.897  0.2234E-02  0.2232E-02  0.1717E-02  0.1714E-02
     -4.800  0.2352E-02  0.2350E-02  0.1940E-02  0.1937E-02
     -4.702  0.2467E-02  0.2466E-02  0.2175E-02  0.2172E-02
     -4.605  0.2592E-02  0.2591E-02  0.2421E-02  0.2418E-02
     -4.507  0.2740E-02  0.2738E-02  0.2681E-02  0.2678E-02
     -4.410  0.2920E-02  0.2918E-02  0.2956E-02  0.2953E-02
     -4.312  0.3119E-02  0.3116E-02  0.3250E-02  0.3247E-02
     -4.215  0.3336E-02  0.3333E-02  0.3565E-02  0.3561E-02
     -4.118  0.3576E-02  0.3573E-02  0.3901E-02  0.3897E-02
     -4.020  0.4234E-02  0.4221E-02  0.4272E-02  0.4267E-02
     -3.923  0.5013E-02  0.5006E-02  0.4727E-02  0.4721E-02
     -3.825  0.4359E-02  0.4359E-02  0.5215E-02  0.5210E-02
     -3.728  0.4348E-02  0.4349E-02  0.5640E-02  0.5635E-02
     -3.630  0.4270E-02  0.4271E-02  0.6060E-02  0.6055E-02
     -3.533  0.4098E-02  0.4101E-02  0.6469E-02  0.6464E-02
     -3.435  0.3990E-02  0.3989E-02  0.6861E-02  0.6856E-02
     -3.338  0.3702E-02  0.3702E-02  0.7241E-02  0.7236E-02
     -3.241  0.3655E-02  0.3655E-02  0.7599E-02  0.7595E-02
     -3.143  0.3601E-02  0.3604E-02  0.7953E-02  0.7949E-02
     -3.046  0.3377E-02  0.3380E-02  0.8293E-02  0.8289E-02
     -2.948  0.3395E-02  0.3395E-02  0.8616E-02  0.8612E-02
     -2.851  0.3414E-02  0.3414E-02  0.8948E-02  0.8944E-02
     -2.753  0.2880E-02  0.2890E-02  0.9265E-02  0.9261E-02
     -2.656  0.2161E-02  0.2168E-02  0.9509E-02  0.9506E-02
     -2.558  0.1660E-02  0.1665E-02  0.9693E-02  0.9691E-02
     -2.461  0.1302E-02  0.1307E-02  0.9837E-02  0.9836E-02
     -2.363  0.9676E-03  0.9717E-03  0.9948E-02  0.9947E-02
     -2.266  0.6554E-03  0.6592E-03  0.1003E-01  0.1003E-01
     -2.169  0.3655E-03  0.3690E-03  0.1008E-01  0.1008E-01
     -2.071  0.1418E-03  0.1433E-03  0.1010E-01  0.1010E-01
     -1.974  0.2190E-03  0.2159E-03  0.1011E-01  0.1011E-01
     -1.876  0.4801E-03  0.4766E-03  0.1015E-01  0.1015E-01
     -1.779  0.7701E-03  0.7662E-03  0.1021E-01  0.1021E-01
     -1.681  0.1089E-02  0.1085E-02  0.1030E-01  0.1030E-01
     -1.584  0.1436E-02  0.1432E-02  0.1042E-01  0.1042E-01
     -1.486  0.1865E-02  0.1858E-02  0.1058E-01  0.1058E-01
     -1.389  0.2551E-02  0.2541E-02  0.1079E-01  0.1079E-01
     -1.292  0.3512E-02  0.3498E-02  0.1109E-01  0.1108E-01
     -1.194  0.4368E-02  0.4359E-02  0.1148E-01  0.1147E-01
     -1.097  0.5450E-02  0.5432E-02  0.1194E-01  0.1194E-01
     -0.999  0.7861E-02  0.7864E-02  0.1263E-01  0.1262E-01
     -0.902  0.6510E-02  0.6525E-02  0.1334E-01  0.1334E-01
     -0.804  0.5330E-02  0.5343E-02  0.1392E-01  0.1391E-01
     -0.707  0.4368E-02  0.4378E-02  0.1439E-01  0.1439E-01
     -0.609  0.3898E-02  0.3902E-02  0.1479E-01  0.1479E-01
     -0.512  0.3539E-02  0.3543E-02  0.1515E-01  0.1515E-01
     -0.414  0.3216E-02  0.3220E-02  0.1548E-01  0.1548E-01
     -0.317  0.2930E-02  0.2933E-02  0.1578E-01  0.1578E-01
     -0.220  0.2664E-02  0.2667E-02  0.1605E-01  0.1605E-01
     -0.122  0.2444E-02  0.2447E-02  0.1630E-01  0.1630E-01
     -0.025  0.2282E-02  0.2283E-02  0.1653E-01  0.1653E-01
      0.073  0.2142E-02  0.2144E-02  0.1675E-01  0.1674E-01
      0.170  0.2027E-02  0.2028E-02  0.1695E-01  0.1695E-01
      0.268  0.1926E-02  0.1927E-02  0.1714E-01  0.1714E-01
      0.365  0.1829E-02  0.1831E-02  0.1732E-01  0.1732E-01
      0.463  0.1737E-02  0.1738E-02  0.1750E-01  0.1750E-01
      0.560  0.1646E-02  0.1647E-02  0.1766E-01  0.1766E-01
      0.657  0.1557E-02  0.1558E-02  0.1782E-01  0.1782E-01
      0.755  0.1455E-02  0.1456E-02  0.1797E-01  0.1796E-01
      0.852  0.1382E-02  0.1383E-02  0.1810E-01  0.1810E-01
      0.950  0.1311E-02  0.1312E-02  0.1824E-01  0.1823E-01
      1.047  0.1240E-02  0.1241E-02  0.1836E-01  0.1836E-01
      1.145  0.1162E-02  0.1163E-02  0.1848E-01  0.1848E-01
      1.242  0.1094E-02  0.1095E-02  0.1859E-01  0.1859E-01
      1.340  0.1036E-02  0.1036E-02  0.1869E-01  0.1869E-01
      1.437  0.1075E-02  0.1068E-02  0.1879E-01  0.1879E-01
      1.534  0.3160E-02  0.3128E-02  0.1898E-01  0.1897E-01
      1.632  0.7082E-02  0.7032E-02  0.1946E-01  0.1945E-01
      1.729  0.6082E-02  0.6088E-02  0.2014E-01  0.2013E-01
      1.827  0.5746E-02  0.5746E-02  0.2071E-01  0.2070E-01
      1.924  0.5788E-02  0.5787E-02  0.2127E-01  0.2127E-01
      2.022  0.5824E-02  0.5823E-02  0.2184E-01  0.2183E-01
      2.119  0.5806E-02  0.5806E-02  0.2241E-01  0.2240E-01
      2.217  0.5955E-02  0.5948E-02  0.2297E-01  0.2297E-01
      2.314  0.5821E-02  0.5843E-02  0.2362E-01  0.2362E-01
      2.412  0.5494E-02  0.5492E-02  0.2417E-01  0.2416E-01
      2.509  0.5659E-02  0.5656E-02  0.2471E-01  0.2470E-01
      2.606  0.5977E-02  0.5972E-02  0.2528E-01  0.2527E-01
      2.704  0.6448E-02  0.6441E-02  0.2588E-01  0.2587E-01
      2.801  0.7165E-02  0.7156E-02  0.2654E-01  0.2653E-01
      2.899  0.8019E-02  0.8005E-02  0.2728E-01  0.2727E-01
      2.996  0.9020E-02  0.9062E-02  0.2814E-01  0.2813E-01
      3.094  0.7847E-02  0.7847E-02  0.2895E-01  0.2894E-01
      3.191  0.7735E-02  0.7736E-02  0.2971E-01  0.2970E-01
      3.289  0.7636E-02  0.7637E-02  0.3046E-01  0.3045E-01
      3.386  0.7309E-02  0.7312E-02  0.3119E-01  0.3118E-01
      3.483  0.7182E-02  0.7177E-02  0.3189E-01  0.3188E-01
      3.581  0.7210E-02  0.7210E-02  0.3260E-01  0.3259E-01
      3.678  0.7173E-02  0.7173E-02  0.3330E-01  0.3329E-01
      3.776  0.7277E-02  0.7280E-02  0.3400E-01  0.3399E-01
      3.873  0.6985E-02  0.6988E-02  0.3470E-01  0.3469E-01
      3.971  0.6673E-02  0.6677E-02  0.3536E-01  0.3536E-01
      4.068  0.6498E-02  0.6501E-02  0.3601E-01  0.3600E-01
      4.166  0.6684E-02  0.6685E-02  0.3666E-01  0.3665E-01
      4.263  0.6444E-02  0.6449E-02  0.3730E-01  0.3729E-01
      4.361  0.5854E-02  0.5863E-02  0.3790E-01  0.3789E-01
      4.458  0.4549E-02  0.4566E-02  0.3841E-01  0.3841E-01
      4.555  0.3667E-02  0.3673E-02  0.3881E-01  0.3880E-01
      4.653  0.3162E-02  0.3168E-02  0.3914E-01  0.3913E-01
      4.750  0.2689E-02  0.2694E-02  0.3942E-01  0.3942E-01
      4.848  0.2257E-02  0.2262E-02  0.3966E-01  0.3966E-01
      4.945  0.1746E-02  0.1749E-02  0.3985E-01  0.3985E-01
      5.043  0.1485E-02  0.1488E-02  0.4001E-01  0.4000E-01
      5.140  0.1259E-02  0.1262E-02  0.4014E-01  0.4014E-01
      5.238  0.1068E-02  0.1070E-02  0.4025E-01  0.4025E-01
      5.335  0.6183E-03  0.6237E-03  0.4035E-01  0.4035E-01
      5.432  0.2611E-03  0.2645E-03  0.4039E-01  0.4039E-01
      5.530  0.5549E-04  0.5708E-04  0.4040E-01  0.4040E-01
      5.627  0.0000E+00  0.0000E+00  0.4040E-01  0.4040E-01
      5.725  0.0000E+00  0.0000E+00  0.4040E-01  0.4040E-01
      5.822  0.0000E+00  0.0000E+00  0.4040E-01  0.4040E-01
      5.920  0.0000E+00  0.0000E+00  0.4040E-01  0.4040E-01
      6.017  0.0000E+00  0.0000E+00  0.4040E-01  0.4040E-01
      6.115  0.0000E+00  0.0000E+00  0.4040E-01  0.4040E-01
      6.212  0.0000E+00  0.0000E+00  0.4040E-01  0.4040E-01
      6.310  0.4181E-04  0.4059E-04  0.4040E-01  0.4040E-01
      6.407  0.4103E-03  0.4069E-03  0.4042E-01  0.4042E-01
      6.504  0.1088E-02  0.1082E-02  0.4049E-01  0.4049E-01
      6.602  0.8768E-03  0.8750E-03  0.4059E-01  0.4059E-01
      6.699  0.1152E-02  0.1150E-02  0.4069E-01  0.4069E-01
      6.797  0.1461E-02  0.1458E-02  0.4082E-01  0.4082E-01
      6.894  0.1858E-02  0.1855E-02  0.4098E-01  0.4098E-01
      6.992  0.2113E-02  0.2110E-02  0.4118E-01  0.4118E-01
      7.089  0.2467E-02  0.2464E-02  0.4140E-01  0.4140E-01
      7.187  0.2919E-02  0.2915E-02  0.4167E-01  0.4166E-01
      7.284  0.3503E-02  0.3498E-02  0.4198E-01  0.4197E-01
      7.381  0.4189E-02  0.4183E-02  0.4235E-01  0.4235E-01
      7.479  0.4979E-02  0.4971E-02  0.4280E-01  0.4279E-01
      7.576  0.5947E-02  0.5936E-02  0.4333E-01  0.4332E-01
      7.674  0.7306E-02  0.7288E-02  0.4399E-01  0.4398E-01
      7.771  0.9306E-02  0.9288E-02  0.4481E-01  0.4480E-01
      7.869  0.1032E-01  0.1031E-01  0.4578E-01  0.4577E-01
      7.966  0.1070E-01  0.1070E-01  0.4680E-01  0.4679E-01
      8.064  0.1157E-01  0.1158E-01  0.4788E-01  0.4787E-01
      8.161  0.1026E-01  0.1027E-01  0.4894E-01  0.4894E-01
      8.258  0.8714E-02  0.8731E-02  0.4987E-01  0.4987E-01
      8.356  0.6521E-02  0.6541E-02  0.5062E-01  0.5061E-01
      8.453  0.4595E-02  0.4611E-02  0.5115E-01  0.5115E-01
      8.551  0.2780E-02  0.2787E-02  0.5149E-01  0.5149E-01
      8.648  0.2748E-02  0.2741E-02  0.5175E-01  0.5174E-01
      8.746  0.3458E-02  0.3451E-02  0.5205E-01  0.5205E-01
      8.843  0.4453E-02  0.4441E-02  0.5243E-01  0.5243E-01
      8.941  0.5963E-02  0.5947E-02  0.5293E-01  0.5293E-01
      9.038  0.8882E-02  0.8839E-02  0.5363E-01  0.5362E-01
      9.136  0.1664E-01  0.1657E-01  0.5484E-01  0.5482E-01
      9.233  0.1537E-01  0.1546E-01  0.5654E-01  0.5653E-01
      9.330  0.8869E-02  0.8900E-02  0.5765E-01  0.5764E-01
      9.428  0.7240E-02  0.7245E-02  0.5841E-01  0.5840E-01
      9.525  0.7276E-02  0.7276E-02  0.5912E-01  0.5911E-01
      9.623  0.7181E-02  0.7183E-02  0.5982E-01  0.5982E-01
      9.720  0.6761E-02  0.6763E-02  0.6051E-01  0.6050E-01
      9.818  0.6680E-02  0.6679E-02  0.6116E-01  0.6116E-01
      9.915  0.8011E-02  0.8023E-02  0.6195E-01  0.6195E-01
     10.013  0.6098E-02  0.6110E-02  0.6264E-01  0.6263E-01
     10.110  0.4997E-02  0.4999E-02  0.6316E-01  0.6316E-01
     10.207  0.4733E-02  0.4735E-02  0.6364E-01  0.6363E-01
     10.305  0.4609E-02  0.4611E-02  0.6409E-01  0.6409E-01
     10.402  0.4436E-02  0.4437E-02  0.6453E-01  0.6453E-01
     10.500  0.4320E-02  0.4320E-02  0.6496E-01  0.6495E-01
     10.597  0.4462E-02  0.4446E-02  0.6538E-01  0.6537E-01
     10.695  0.6448E-02  0.6429E-02  0.6591E-01  0.6590E-01
     10.792  0.9180E-02  0.9136E-02  0.6666E-01  0.6665E-01
     10.890  0.7577E-02  0.7580E-02  0.6750E-01  0.6749E-01
     10.987  0.6941E-02  0.6948E-02  0.6821E-01  0.6820E-01
     11.085  0.6288E-02  0.6290E-02  0.6885E-01  0.6884E-01
     11.182  0.5951E-02  0.5954E-02  0.6944E-01  0.6944E-01
     11.279  0.5504E-02  0.5506E-02  0.7000E-01  0.7000E-01
     11.377  0.4987E-02  0.4991E-02  0.7051E-01  0.7051E-01
     11.474  0.4872E-02  0.4870E-02  0.7099E-01  0.7098E-01
     11.572  0.5066E-02  0.5065E-02  0.7148E-01  0.7148E-01
     11.669  0.4898E-02  0.4901E-02  0.7197E-01  0.7196E-01
     11.767  0.4464E-02  0.4469E-02  0.7243E-01  0.7242E-01
     11.864  0.4106E-02  0.4106E-02  0.7284E-01  0.7283E-01
     11.962  0.4197E-02  0.4196E-02  0.7324E-01  0.7324E-01
     12.059  0.4632E-02  0.4629E-02  0.7367E-01  0.7366E-01
     12.156  0.5269E-02  0.5267E-02  0.7415E-01  0.7415E-01
     12.254  0.5720E-02  0.5717E-02  0.7469E-01  0.7469E-01
     12.351  0.6167E-02  0.6164E-02  0.7527E-01  0.7526E-01
     12.449  0.6607E-02  0.6604E-02  0.7589E-01  0.7589E-01
     12.546  0.7146E-02  0.7141E-02  0.7656E-01  0.7655E-01
     12.644  0.7784E-02  0.7781E-02  0.7729E-01  0.7728E-01
     12.741  0.7797E-02  0.7797E-02  0.7805E-01  0.7805E-01
     12.839  0.7473E-02  0.7476E-02  0.7880E-01  0.7879E-01
     12.936  0.6864E-02  0.6873E-02  0.7950E-01  0.7950E-01
     13.034  0.6249E-02  0.6248E-02  0.8012E-01  0.8012E-01
     13.131  0.6305E-02  0.6304E-02  0.8073E-01  0.8073E-01
     13.228  0.6374E-02  0.6373E-02  0.8135E-01  0.8135E-01
     13.326  0.6456E-02  0.6455E-02  0.8198E-01  0.8197E-01
     13.423  0.6490E-02  0.6487E-02  0.8261E-01  0.8260E-01
     13.521  0.6901E-02  0.6898E-02  0.8325E-01  0.8324E-01
     13.618  0.6944E-02  0.6947E-02  0.8392E-01  0.8391E-01
     13.716  0.6883E-02  0.6886E-02  0.8459E-01  0.8459E-01
     13.813  0.6132E-02  0.6137E-02  0.8524E-01  0.8524E-01
     13.911  0.5666E-02  0.5669E-02  0.8581E-01  0.8580E-01
     14.008  0.5518E-02  0.5519E-02  0.8635E-01  0.8634E-01
     14.105  0.5562E-02  0.5562E-02  0.8689E-01  0.8688E-01
     14.203  0.5624E-02  0.5624E-02  0.8743E-01  0.8743E-01
     14.300  0.5748E-02  0.5749E-02  0.8798E-01  0.8798E-01
     14.398  0.5776E-02  0.5776E-02  0.8855E-01  0.8854E-01
     14.495  0.5841E-02  0.5841E-02  0.8911E-01  0.8911E-01
     14.593  0.5914E-02  0.5914E-02  0.8969E-01  0.8968E-01
     14.690  0.6018E-02  0.6017E-02  0.9027E-01  0.9026E-01
     14.788  0.6225E-02  0.6223E-02  0.9086E-01  0.9086E-01
     14.885  0.6723E-02  0.6719E-02  0.9149E-01  0.9148E-01
     14.982  0.7361E-02  0.7357E-02  0.9218E-01  0.9217E-01
     15.080  0.7960E-02  0.7955E-02  0.9292E-01  0.9292E-01
     15.177  0.8606E-02  0.8599E-02  0.9373E-01  0.9372E-01
     15.275  0.9346E-02  0.9347E-02  0.9461E-01  0.9461E-01
     15.372  0.9242E-02  0.9241E-02  0.9552E-01  0.9551E-01
     15.470  0.9211E-02  0.9210E-02  0.9642E-01  0.9641E-01
     15.567  0.8709E-02  0.8735E-02  0.9732E-01  0.9731E-01
     15.665  0.8780E-02  0.8783E-02  0.9817E-01  0.9816E-01
     15.762  0.7915E-02  0.7918E-02  0.9897E-01  0.9896E-01
     15.860  0.7636E-02  0.7638E-02  0.9973E-01  0.9972E-01
     15.957  0.7489E-02  0.7490E-02  0.1005E+00  0.1005E+00
     16.054  0.7434E-02  0.7441E-02  0.1012E+00  0.1012E+00
     16.152  0.6302E-02  0.6302E-02  0.1018E+00  0.1018E+00
     16.249  0.6182E-02  0.6191E-02  0.1025E+00  0.1025E+00
     16.347  0.5549E-02  0.5564E-02  0.1030E+00  0.1030E+00
     16.444  0.3747E-02  0.3753E-02  0.1035E+00  0.1035E+00
     16.542  0.3014E-02  0.3017E-02  0.1038E+00  0.1038E+00
     16.639  0.2333E-02  0.2332E-02  0.1040E+00  0.1040E+00
     16.737  0.2875E-02  0.2871E-02  0.1043E+00  0.1043E+00
     16.834  0.3523E-02  0.3520E-02  0.1046E+00  0.1046E+00
     16.931  0.4007E-02  0.4003E-02  0.1050E+00  0.1050E+00
     17.029  0.4079E-02  0.4078E-02  0.1054E+00  0.1054E+00
     17.126  0.4644E-02  0.4644E-02  0.1058E+00  0.1058E+00
     17.224  0.4454E-02  0.4453E-02  0.1062E+00  0.1062E+00
     17.321  0.4781E-02  0.4778E-02  0.1067E+00  0.1067E+00
     17.419  0.5319E-02  0.5316E-02  0.1072E+00  0.1072E+00
     17.516  0.5949E-02  0.5946E-02  0.1077E+00  0.1077E+00
     17.614  0.6478E-02  0.6475E-02  0.1083E+00  0.1083E+00
     17.711  0.7627E-02  0.7626E-02  0.1090E+00  0.1090E+00
     17.809  0.7986E-02  0.7985E-02  0.1098E+00  0.1098E+00
     17.906  0.8472E-02  0.8472E-02  0.1106E+00  0.1106E+00
     18.003  0.8415E-02  0.8415E-02  0.1114E+00  0.1114E+00
     18.101  0.8385E-02  0.8385E-02  0.1122E+00  0.1122E+00
     18.198  0.9066E-02  0.9052E-02  0.1131E+00  0.1131E+00
     18.296  0.9371E-02  0.9387E-02  0.1140E+00  0.1140E+00
     18.393  0.8669E-02  0.8674E-02  0.1149E+00  0.1149E+00
     18.491  0.8240E-02  0.8244E-02  0.1157E+00  0.1157E+00
     18.588  0.8008E-02  0.8009E-02  0.1165E+00  0.1165E+00
     18.686  0.7005E-02  0.7005E-02  0.1172E+00  0.1172E+00
     18.783  0.4473E-02  0.4470E-02  0.1178E+00  0.1178E+00
     18.880  0.3785E-02  0.3782E-02  0.1182E+00  0.1182E+00
     18.978  0.3465E-02  0.3464E-02  0.1185E+00  0.1185E+00
     19.075  0.3191E-02  0.3190E-02  0.1189E+00  0.1188E+00
     19.173  0.2962E-02  0.2962E-02  0.1192E+00  0.1191E+00
     19.270  0.2776E-02  0.2776E-02  0.1194E+00  0.1194E+00
     19.368  0.2604E-02  0.2605E-02  0.1197E+00  0.1197E+00
     19.465  0.2440E-02  0.2441E-02  0.1199E+00  0.1199E+00
     19.563  0.2285E-02  0.2286E-02  0.1202E+00  0.1202E+00
     19.660  0.2140E-02  0.2141E-02  0.1204E+00  0.1204E+00
     19.758  0.2017E-02  0.2009E-02  0.1206E+00  0.1206E+00
     19.855  0.1410E-02  0.1407E-02  0.1208E+00  0.1208E+00
     19.952  0.1202E-02  0.1200E-02  0.1209E+00  0.1209E+00
     20.050  0.9841E-03  0.9858E-03  0.1210E+00  0.1210E+00
     20.147  0.7561E-03  0.7620E-03  0.1211E+00  0.1211E+00
     20.245  0.5102E-03  0.5213E-03  0.1212E+00  0.1212E+00
     20.342  0.6722E-04  0.8640E-04  0.1212E+00  0.1212E+00
     20.440  0.0000E+00  0.0000E+00  0.1212E+00  0.1212E+00
     20.537  0.0000E+00  0.0000E+00  0.1212E+00  0.1212E+00
     20.635  0.0000E+00  0.0000E+00  0.1212E+00  0.1212E+00
     20.732  0.0000E+00  0.0000E+00  0.1212E+00  0.1212E+00
     20.829  0.0000E+00  0.0000E+00  0.1212E+00  0.1212E+00
     20.927  0.0000E+00  0.0000E+00  0.1212E+00  0.1212E+00
     21.024  0.0000E+00  0.0000E+00  0.1212E+00  0.1212E+00
     21.122  0.0000E+00  0.0000E+00  0.1212E+00  0.1212E+00
     21.219  0.0000E+00  0.0000E+00  0.1212E+00  0.1212E+00
     21.317  0.0000E+00  0.0000E+00  0.1212E+00  0.1212E+00
     21.414  0.0000E+00  0.0000E+00  0.1212E+00  0.1212E+00
     21.512  0.0000E+00  0.0000E+00  0.1212E+00  0.1212E+00
     21.609  0.0000E+00  0.0000E+00  0.1212E+00  0.1212E+00
     21.706  0.0000E+00  0.0000E+00  0.1212E+00  0.1212E+00
     21.70649200     -7.52829606  301      5.63344915      1.00000000
     -7.528  0.0000E+00  0.0000E+00  0.0000E+00  0.0000E+00  0.0000E+00  0.0000E+00  0.0000E+00  0.0000E+00  0.0000E+00  0.0000E+00  0.0000E+00  0.0000E+00  0.0000E+00  0.0000E+00  0.0000E+00  0.0000E+00  0.0000E+00  0.0000E+00
     -7.431  0.0000E+00  0.0000E+00  0.0000E+00  0.0000E+00  0.0000E+00  0.0000E+00  0.0000E+00  0.0000E+00  0.0000E+00  0.0000E+00  0.0000E+00  0.0000E+00  0.0000E+00  0.0000E+00  0.0000E+00  0.0000E+00  0.0000E+00  0.0000E+00
     -7.333  0.0000E+00  0.0000E+00  0.0000E+00  0.0000E+00  0.0000E+00  0.0000E+00  0.0000E+00  0.0000E+00  0.0000E+00  0.0000E+00  0.0000E+00  0.0000E+00  0.0000E+00  0.0000E+00  0.0000E+00  0.0000E+00  0.0000E+00  0.0000E+00
     -7.236  0.0000E+00  0.0000E+00  0.0000E+00  0.0000E+00  0.0000E+00  0.0000E+00  0.0000E+00  0.0000E+00  0.0000E+00  0.0000E+00  0.0000E+00  0.0000E+00  0.0000E+00  0.0000E+00  0.0000E+00  0.0000E+00  0.0000E+00  0.0000E+00
     -7.138  0.0000E+00  0.0000E+00  0.0000E+00  0.0000E+00  0.0000E+00  0.0000E+00  0.0000E+00  0.0000E+00  0.0000E+00  0.0000E+00  0.0000E+00  0.0000E+00  0.0000E+00  0.0000E+00  0.0000E+00  0.0000E+00  0.0000E+00  0.0000E+00
     -7.041  0.0000E+00  0.0000E+00  0.0000E+00  0.0000E+00  0.0000E+00  0.0000E+00  0.0000E+00  0.0000E+00  0.0000E+00  0.0000E+00  0.0000E+00  0.0000E+00  0.0000E+00  0.0000E+00  0.0000E+00  0.0000E+00  0.0000E+00  0.0000E+00
     -6.944  0.0000E+00  0.0000E+00  0.0000E+00  0.0000E+00  0.0000E+00  0.0000E+00  0.0000E+00  0.0000E+00  0.0000E+00  0.0000E+00  0.0000E+00  0.0000E+00  0.0000E+00  0.0000E+00  0.0000E+00  0.0000E+00  0.0000E+00  0.0000E+00
     -6.846  0.0000E+00  0.0000E+00  0.0000E+00  0.0000E+00  0.0000E+00  0.0000E+00  0.0000E+00  0.0000E+00  0.0000E+00  0.0000E+00  0.0000E+00  0.0000E+00  0.0000E+00  0.0000E+00  0.0000E+00  0.0000E+00  0.0000E+00  0.0000E+00
     -6.749  0.0000E+00  0.0000E+00  0.0000E+00  0.0000E+00  0.0000E+00  0.0000E+00  0.0000E+00  0.0000E+00  0.0000E+00  0.0000E+00  0.0000E+00  0.0000E+00  0.0000E+00  0.0000E+00  0.0000E+00  0.0000E+00  0.0000E+00  0.0000E+00
     -6.651  0.0000E+00  0.0000E+00  0.0000E+00  0.0000E+00  0.0000E+00  0.0000E+00  0.0000E+00  0.0000E+00  0.0000E+00  0.0000E+00  0.0000E+00  0.0000E+00  0.0000E+00  0.0000E+00  0.0000E+00  0.0000E+00  0.0000E+00  0.0000E+00
     -6.554  0.0000E+00  0.0000E+00  0.0000E+00  0.0000E+00  0.0000E+00  0.0000E+00  0.0000E+00  0.0000E+00  0.0000E+00  0.0000E+00  0.0000E+00  0.0000E+00  0.0000E+00  0.0000E+00  0.0000E+00  0.0000E+00  0.0000E+00  0.0000E+00
     -6.456  0.0000E+00  0.0000E+00  0.0000E+00  0.0000E+00  0.0000E+00  0.0000E+00  0.0000E+00  0.0000E+00  0.0000E+00  0.0000E+00  0.0000E+00  0.0000E+00  0.0000E+00  0.0000E+00  0.0000E+00  0.0000E+00  0.0000E+00  0.0000E+00
     -6.359  0.0000E+00  0.0000E+00  0.0000E+00  0.0000E+00  0.0000E+00  0.0000E+00  0.0000E+00  0.0000E+00  0.0000E+00  0.0000E+00  0.0000E+00  0.0000E+00  0.0000E+00  0.0000E+00  0.0000E+00  0.0000E+00  0.0000E+00  0.0000E+00
     -6.261  0.0000E+00  0.0000E+00  0.0000E+00  0.0000E+00  0.0000E+00  0.0000E+00  0.0000E+00  0.0000E+00  0.0000E+00  0.0000E+00  0.0000E+00  0.0000E+00  0.0000E+00  0.0000E+00  0.0000E+00  0.0000E+00  0.0000E+00  0.0000E+00
     -6.164  0.4656E-03  0.4367E-03  0.1455E-05  0.1364E-05  0.7274E-06  0.6822E-06  0.2012E-05  0.1887E-05  0.0000E+00  0.0000E+00  0.0000E+00  0.0000E+00  0.0000E+00  0.0000E+00  0.0000E+00  0.0000E+00  0.0000E+00  0.0000E+00
     -6.067  0.6548E-02  0.6437E-02  0.2046E-04  0.2011E-04  0.1023E-04  0.1006E-04  0.2829E-04  0.2782E-04  0.0000E+00  0.0000E+00  0.0000E+00  0.0000E+00  0.0000E+00  0.0000E+00  0.0000E+00  0.0000E+00  0.0000E+00  0.0000E+00
     -5.969  0.1761E-01  0.1774E-01  0.8003E-04  0.8011E-04  0.4001E-04  0.4006E-04  0.1111E-03  0.1106E-03  0.0000E+00  0.0000E+00  0.0000E+00  0.0000E+00  0.0000E+00  0.0000E+00  0.0000E+00  0.0000E+00  0.0000E+00  0.0000E+00
     -5.872  0.1766E-01  0.1762E-01  0.1135E-03  0.1129E-03  0.5679E-04  0.5650E-04  0.1788E-03  0.1781E-03  0.0000E+00  0.0000E+00  0.0000E+00  0.0000E+00  0.0000E+00  0.0000E+00  0.0000E+00  0.0000E+00  0.0000E+00  0.0000E+00
     -5.774  0.2136E-01  0.2131E-01  0.1710E-03  0.1703E-03  0.8593E-04  0.8555E-04  0.2492E-03  0.2483E-03  0.0000E+00  0.0000E+00  0.0000E+00  0.0000E+00  0.0000E+00  0.0000E+00  0.0000E+00  0.0000E+00  0.0000E+00  0.0000E+00
     -5.677  0.2607E-01  0.2600E-01  0.2454E-03  0.2445E-03  0.1238E-03  0.1233E-03  0.3328E-03  0.3317E-03  0.0000E+00  0.0000E+00  0.0000E+00  0.0000E+00  0.0000E+00  0.0000E+00  0.0000E+00  0.0000E+00  0.0000E+00  0.0000E+00
     -5.579  0.2998E-01  0.2995E-01  0.3132E-03  0.3126E-03  0.1598E-03  0.1594E-03  0.4497E-03  0.4481E-03  0.0000E+00  0.0000E+00  0.0000E+00  0.0000E+00  0.0000E+00  0.0000E+00  0.0000E+00  0.0000E+00  0.0000E+00  0.0000E+00
     -5.482  0.3063E-01  0.3064E-01  0.3421E-03  0.3420E-03  0.1792E-03  0.1791E-03  0.6093E-03  0.6072E-03  0.0000E+00  0.0000E+00  0.0000E+00  0.0000E+00  0.0000E+00  0.0000E+00  0.0000E+00  0.0000E+00  0.0000E+00  0.0000E+00
     -5.384  0.3284E-01  0.3281E-01  0.4131E-03  0.4124E-03  0.2208E-03  0.2205E-03  0.7873E-03  0.7855E-03  0.0000E+00  0.0000E+00  0.0000E+00  0.0000E+00  0.0000E+00  0.0000E+00  0.0000E+00  0.0000E+00  0.0000E+00  0.0000E+00
     -5.287  0.3538E-01  0.3535E-01  0.4740E-03  0.4732E-03  0.2565E-03  0.2560E-03  0.9337E-03  0.9320E-03  0.0000E+00  0.0000E+00  0.0000E+00  0.0000E+00  0.0000E+00  0.0000E+00  0.0000E+00  0.0000E+00  0.0000E+00  0.0000E+00
     -5.190  0.3805E-01  0.3802E-01  0.5454E-03  0.5445E-03  0.2969E-03  0.2964E-03  0.1078E-02  0.1077E-02  0.0000E+00  0.0000E+00  0.0000E+00  0.0000E+00  0.0000E+00  0.0000E+00  0.0000E+00  0.0000E+00  0.0000E+00  0.0000E+00
     -5.092  0.4088E-01  0.4084E-01  0.6287E-03  0.6276E-03  0.3428E-03  0.3422E-03  0.1222E-02  0.1220E-02  0.0000E+00  0.0000E+00  0.0000E+00  0.0000E+00  0.0000E+00  0.0000E+00  0.0000E+00  0.0000E+00  0.0000E+00  0.0000E+00
     -4.995  0.4407E-01  0.4403E-01  0.7331E-03  0.7317E-03  0.4001E-03  0.3993E-03  0.1370E-02  0.1368E-02  0.0000E+00  0.0000E+00  0.0000E+00  0.0000E+00  0.0000E+00  0.0000E+00  0.0000E+00  0.0000E+00  0.0000E+00  0.0000E+00
     -4.897  0.4602E-01  0.4598E-01  0.8405E-03  0.8392E-03  0.4589E-03  0.4581E-03  0.1571E-02  0.1568E-02  0.0000E+00  0.0000E+00  0.0000E+00  0.0000E+00  0.0000E+00  0.0000E+00  0.0000E+00  0.0000E+00  0.0000E+00  0.0000E+00
     -4.800  0.4846E-01  0.4843E-01  0.9406E-03  0.9394E-03  0.5169E-03  0.5162E-03  0.1786E-02  0.1783E-02  0.0000E+00  0.0000E+00  0.0000E+00  0.0000E+00  0.0000E+00  0.0000E+00  0.0000E+00  0.0000E+00  0.0000E+00  0.0000E+00
     -4.702  0.5086E-01  0.5083E-01  0.1031E-02  0.1030E-02  0.5754E-03  0.5747E-03  0.2005E-02  0.2002E-02  0.0000E+00  0.0000E+00  0.0000E+00  0.0000E+00  0.0000E+00  0.0000E+00  0.0000E+00  0.0000E+00  0.0000E+00  0.0000E+00
     -4.605  0.5349E-01  0.5345E-01  0.1123E-02  0.1122E-02  0.6385E-03  0.6377E-03  0.2233E-02  0.2231E-02  0.0000E+00  0.0000E+00  0.0000E+00  0.0000E+00  0.0000E+00  0.0000E+00  0.0000E+00  0.0000E+00  0.0000E+00  0.0000E+00
     -4.507  0.5660E-01  0.5655E-01  0.1233E-02  0.1232E-02  0.7116E-03  0.7106E-03  0.2445E-02  0.2442E-02  0.0000E+00  0.0000E+00  0.0000E+00  0.0000E+00  0.0000E+00  0.0000E+00  0.0000E+00  0.0000E+00  0.0000E+00  0.0000E+00
     -4.410  0.6040E-01  0.6035E-01  0.1396E-02  0.1394E-02  0.8140E-03  0.8127E-03  0.2645E-02  0.2643E-02  0.0000E+00  0.0000E+00  0.0000E+00  0.0000E+00  0.0000E+00  0.0000E+00  0.0000E+00  0.0000E+00  0.0000E+00  0.0000E+00
     -4.312  0.6461E-01  0.6455E-01  0.1572E-02  0.1570E-02  0.9280E-03  0.9265E-03  0.2840E-02  0.2837E-02  0.0000E+00  0.0000E+00  0.0000E+00  0.0000E+00  0.0000E+00  0.0000E+00  0.0000E+00  0.0000E+00  0.0000E+00  0.0000E+00
     -4.215  0.6922E-01  0.6915E-01  0.1764E-02  0.1762E-02  0.1051E-02  0.1049E-02  0.3047E-02  0.3044E-02  0.0000E+00  0.0000E+00  0.0000E+00  0.0000E+00  0.0000E+00  0.0000E+00  0.0000E+00  0.0000E+00  0.0000E+00  0.0000E+00
     -4.118  0.7436E-01  0.7428E-01  0.1990E-02  0.1987E-02  0.1195E-02  0.1193E-02  0.3289E-02  0.3286E-02  0.0000E+00  0.0000E+00  0.0000E+00  0.0000E+00  0.0000E+00  0.0000E+00  0.0000E+00  0.0000E+00  0.0000E+00  0.0000E+00
     -4.020  0.8854E-01  0.8826E-01  0.2421E-02  0.2414E-02  0.1463E-02  0.1459E-02  0.4024E-02  0.4010E-02  0.0000E+00  0.0000E+00  0.0000E+00  0.0000E+00  0.0000E+00  0.0000E+00  0.0000E+00  0.0000E+00  0.0000E+00  0.0000E+00
     -3.923  0.1054E+00  0.1052E+00  0.2916E-02  0.2910E-02  0.1800E-02  0.1796E-02  0.4821E-02  0.4814E-02  0.0000E+00  0.0000E+00  0.0000E+00  0.0000E+00  0.0000E+00  0.0000E+00  0.0000E+00  0.0000E+00  0.0000E+00  0.0000E+00
     -3.825  0.9128E-01  0.9126E-01  0.2824E-02  0.2822E-02  0.1851E-02  0.1850E-02  0.4232E-02  0.4231E-02  0.0000E+00  0.0000E+00  0.0000E+00  0.0000E+00  0.0000E+00  0.0000E+00  0.0000E+00  0.0000E+00  0.0000E+00  0.0000E+00
     -3.728  0.9105E-01  0.9105E-01  0.2981E-02  0.2979E-02  0.1990E-02  0.1988E-02  0.4214E-02  0.4214E-02  0.0000E+00  0.0000E+00  0.0000E+00  0.0000E+00  0.0000E+00  0.0000E+00  0.0000E+00  0.0000E+00  0.0000E+00  0.0000E+00
     -3.630  0.8943E-01  0.8945E-01  0.3114E-02  0.3113E-02  0.2112E-02  0.2110E-02  0.4111E-02  0.4113E-02  0.0000E+00  0.0000E+00  0.0000E+00  0.0000E+00  0.0000E+00  0.0000E+00  0.0000E+00  0.0000E+00  0.0000E+00  0.0000E+00
     -3.533  0.8596E-01  0.8601E-01  0.3194E-02  0.3194E-02  0.2197E-02  0.2196E-02  0.3879E-02  0.3883E-02  0.0000E+00  0.0000E+00  0.0000E+00  0.0000E+00  0.0000E+00  0.0000E+00  0.0000E+00  0.0000E+00  0.0000E+00  0.0000E+00
     -3.435  0.8390E-01  0.8389E-01  0.3344E-02  0.3341E-02  0.2332E-02  0.2329E-02  0.3698E-02  0.3698E-02  0.0000E+00  0.0000E+00  0.0000E+00  0.0000E+00  0.0000E+00  0.0000E+00  0.0000E+00  0.0000E+00  0.0000E+00  0.0000E+00
     -3.338  0.7804E-01  0.7804E-01  0.3404E-02  0.3401E-02  0.2384E-02  0.2382E-02  0.3315E-02  0.3318E-02  0.0000E+00  0.0000E+00  0.0000E+00  0.0000E+00  0.0000E+00  0.0000E+00  0.0000E+00  0.0000E+00  0.0000E+00  0.0000E+00
     -3.241  0.7754E-01  0.7754E-01  0.3585E-02  0.3583E-02  0.2518E-02  0.2517E-02  0.3137E-02  0.3139E-02  0.0000E+00  0.0000E+00  0.0000E+00  0.0000E+00  0.0000E+00  0.0000E+00  0.0000E+00  0.0000E+00  0.0000E+00  0.0000E+00
     -3.143  0.7704E-01  0.7708E-01  0.3666E-02  0.3667E-02  0.2583E-02  0.2584E-02  0.3008E-02  0.3012E-02  0.0000E+00  0.0000E+00  0.0000E+00  0.0000E+00  0.0000E+00  0.0000E+00  0.0000E+00  0.0000E+00  0.0000E+00  0.0000E+00
     -3.046  0.7325E-01  0.7329E-01  0.3545E-02  0.3546E-02  0.2496E-02  0.2498E-02  0.2687E-02  0.2691E-02  0.0000E+00  0.0000E+00  0.0000E+00  0.0000E+00  0.0000E+00  0.0000E+00  0.0000E+00  0.0000E+00  0.0000E+00  0.0000E+00
     -2.948  0.7576E-01  0.7572E-01  0.3763E-02  0.3760E-02  0.2581E-02  0.2579E-02  0.2407E-02  0.2410E-02  0.0000E+00  0.0000E+00  0.0000E+00  0.0000E+00  0.0000E+00  0.0000E+00  0.0000E+00  0.0000E+00  0.0000E+00  0.0000E+00
     -2.851  0.7824E-01  0.7821E-01  0.3917E-02  0.3916E-02  0.2656E-02  0.2655E-02  0.2191E-02  0.2194E-02  0.0000E+00  0.0000E+00  0.0000E+00  0.0000E+00  0.0000E+00  0.0000E+00  0.0000E+00  0.0000E+00  0.0000E+00  0.0000E+00
     -2.753  0.7025E-01  0.7046E-01  0.3199E-02  0.3213E-02  0.2168E-02  0.2177E-02  0.1516E-02  0.1523E-02  0.0000E+00  0.0000E+00  0.0000E+00  0.0000E+00  0.0000E+00  0.0000E+00  0.0000E+00  0.0000E+00  0.0000E+00  0.0000E+00
     -2.656  0.5513E-01  0.5530E-01  0.2263E-02  0.2273E-02  0.1542E-02  0.1548E-02  0.1003E-02  0.1008E-02  0.0000E+00  0.0000E+00  0.0000E+00  0.0000E+00  0.0000E+00  0.0000E+00  0.0000E+00  0.0000E+00  0.0000E+00  0.0000E+00