Automatically generated mesh
      29
Reciprocal lattice
    0.00000000000000    0.00000000000000    0.00000000000000             1
    0.12500000000000    0.00000000000000   -0.00000000000000             8
    0.25000000000000    0.00000000000000   -0.00000000000000             8
    0.37500000000000    0.00000000000000    0.00000000000000             8
    0.50000000000000    0.00000000000000   -0.00000000000000             4
    0.00000000000000    0.12500000000000    0.00000000000000             6
    0.25000000000000    0.12500000000000    0.00000000000000            12
    0.37500000000000    0.12500000000000    0.00000000000000            24
    0.50000000000000    0.12500000000000   -0.00000000000000            24
   -0.37500000000000    0.12500000000000   -0.00000000000000            24
   -0.25000000000000    0.12500000000000    0.00000000000000            24
   -0.12500000000000    0.12500000000000   -0.00000000000000            24
    0.00000000000000    0.25000000000000    0.00000000000000             6
    0.50000000000000    0.25000000000000    0.00000000000000            12
   -0.37500000000000    0.25000000000000    0.00000000000000            24
   -0.25000000000000    0.25000000000000   -0.00000000000000            24
   -0.12500000000000    0.25000000000000    0.00000000000000            24
    0.00000000000000    0.37500000000000   -0.00000000000000             6
   -0.25000000000000    0.37500000000000    0.00000000000000            12
   -0.12500000000000    0.37500000000000    0.00000000000000            24
    0.00000000000000    0.50000000000000    0.00000000000000             3
    0.37500000000000    0.12500000000000    0.12500000000000            24
    0.50000000000000    0.12500000000000    0.12500000000000            48
   -0.37500000000000    0.12500000000000    0.12500000000000            24
   -0.37500000000000    0.25000000000000    0.12500000000000            24
   -0.25000000000000    0.25000000000000    0.12500000000000            48
   -0.12500000000000    0.25000000000000    0.12500000000000            24
   -0.12500000000000    0.37500000000000    0.12500000000000            12
   -0.25000000000000    0.25000000000000    0.25000000000000             6
Tetrahedra
       336    0.00032552083333
         4         1         2         2         2
         8         1         2         2         6
         8         2         2         6        12
         4         2         2         2         6
         8         2         2         6         7
         8         2         2         7        12
         8         2         3         6         7
         4         2         6         7         7
         8         3         6         7        12
         8         6         7        12        12
         4         6         7         7        12
         8         3         4         8        12
        16         3         7         8        12
        12         7         8        12        12
         8         4         8        11        12
        16         8        11        12        22
         8         8        12        12        22
         8         4         5         9        11
        16         4         8         9        11
         8         8         9        11        22
         8         5         9        10        11
        16         9        10        11        23
         8         9        11        22        23
        12         4         5        10        10
        16         5         9        10        10
         8         9        10        10        23
        12         4         9        10        10
        16         9        10        10        24
         8        10        10        23        24
         8         3         4         9        11
        16         4         9        10        11
         8         9        10        11        24
         8         3         8         9        11
        16         8         9        11        23
         8         9        11        23        24
         8         2         3         8        12
        16         3         8        11        12
         8         8        11        12        23
         8         2         7         8        12
        16         7         8        12        22
         8         8        12        22        23
         8         1         2         6         7
        16         2         6         7        12
         8         6         7        12        22
         8         2         6        12        12
         8         6        12        12        13
         8        12        12        13        17
        12         2         7        12        12
         8         7        12        12        22
         8        12        12        17        22
         4         2         3         7         7
        16         2         3         7        12
         8         3         7        12        22
         4         3         7         7        12
         8         3         7         8        22
         8         7         8         8        12
         4         3         8         8        12
         8         8         8        12        22
         4         8         8        11        12
         8         8         9        14        22
         8         8         8        14        22
         8         8        11        14        22
         8         9        14        22        23
         8        14        22        23        23
         8        11        14        22        23
        16         9        10        15        23
        16         9        14        15        23
        12        14        15        23        23
        24        10        15        23        24
        16        15        23        24        25
         8        15        23        23        25
         8        10        11        16        24
        16        10        15        16        24
         8        15        16        24        25
         8        11        16        23        24
        16        16        23        24        26
        16        16        24        25        26
         8        11        12        17        23
        16        11        16        17        23
         8        16        17        23        26
         8        12        17        22        23
        16        17        22        23        27
         8        17        23        26        27
         8         6        12        13        22
        16        12        13        17        22
         8        13        17        22        27
         8        12        13        17        17
         8        13        17        17        18
         8        17        17        18        20
         8        12        17        17        22
         8        17        17        22        27
         8        17        17        20        27
         8         3        11        12        22
        16        11        12        17        22
         8        11        17        22        27
         8         3         8        11        22
        16         8        11        22        23
         8        11        22        23        27
         4         3         4         8         8
        16         3         4         8        11
         8         4         8        11        23
         4         4         8         8        11
         8         4         8         9        23
         8         8         9        11        14
         4         4         9         9        11
         8         9        11        14        23
         4         9         9        10        11
         8        14        15        15        23
         8        15        15        23        25
         8        15        16        19        25
         8        15        15        19        25
         8        15        19        24        25
         8        16        19        25        26
         8        19        25        26        26
         8        19        24        25        26
         8        16        17        20        26
        16        16        19        20        26
        12        19        20        26        26
         8        17        20        26        27
        16        20        26        27        28
        16        20        26        26        28
         8        13        17        18        27
        16        17        18        20        27
         8        18        20        27        28
         8        17        18        20        20
         8        18        20        20        21
        12        20        20        20        21
         8        17        20        20        27
         8        20        20        27        28
         8        20        20        20        28
         8        11        16        17        27
        16        16        17        20        27
         8        16        20        27        28
         8        11        16        23        27
        16        16        23        26        27
         8        16        26        27        28
         8         4        10        11        23
        16        10        11        16        23
         8        10        16        23        26
         8         4         9        10        23
        16         9        10        23        24
         8        10        23        24        26
         4         4         5         9         9
        16         4         5         9        10
        16         5         9        10        24
        12         5         9         9        10
         8         9        10        10        15
         4         5        10        10        10
         8        10        10        15        24
         4         9        10        10        10
         8        15        16        19        24
        16         9        10        16        24
         8        16        19        24        26
         8         9        16        23        24
         8        19        20        20        26
         8        16        20        23        26
        16        20        20        26        28
         8        20        23        26        27
         8        18        20        21        28
        16        20        20        21        28
         8        20        21        27        28
         8        16        19        20        28
         8        19        20        20        28
         8        19        20        27        28
         8        16        19        26        28
         8        19        26        26        28
         8        19        26        27        28
         8        10        15        16        26
        16        15        16        19        26
        12        15        19        26        26
         8        10        15        24        26
        16        15        24        25        26
        16        15        25        26        26
        16         9        10        15        24
         8         9        15        24        25
         8         9        23        24        25
         8         9        10        11        16
         4         4         9        11        11
         8         9        11        16        23
         4         8         9        11        11
         8        16        17        20        23
         8         8        11        17        23
         8        17        20        23        27
         8         8        17        22        23
         8        18        20        21        27
         8        17        18        22        27
         8        16        19        20        27
         8        16        17        22        27
         8        16        19        26        27
         8        16        22        23        27
         8        15        15        19        26
         8        15        16        23        26
         8        15        15        25        26
        24        15        23        24        26
         8         9        14        15        25
         8        14        15        15        25
         8        14        15        24        25
         8         9        14        23        25
         8        14        23        23        25
         8        14        23        24        25
        16         8         9        14        23
        12         8        14        23        23
         8         8        22        23        23
         4         3         4        11        11
         4         3         8        11        11
         8         8        11        12        17
         4         3         8        12        12
         8         8        12        17        22
         8        13        17        18        22
         8         7        12        13        22
         8        11        16        17        22
         8         7        11        12        22
         8        11        16        22        23
         8         7         8        11        22
         8        10        15        16        23
         8         8        10        11        23
         8         8         9        10        23
         8         9        14        15        24
         8         9         9        10        24
         8         9        14        23        24
         8         8         8        14        23
         8         8         8        22        23
         8         7         8         8        22
         4         2         3        12        12
         8         6         7        12        13
         4         2         6         6         7
         8         3         7        11        12
         8         3         7         8        11
         8         4         8        10        11
         8         4         8         9        10
         4         1         2         6         6
         4         6        12        12        12
         4        12        12        12        13
         8        12        12        13        22
         8        11        12        13        22
         4        12        13        22        22
         8        11        13        17        22
         8        13        17        17        22
         4        13        17        22        22
         8        10        11        17        23
        16        11        17        22        23
         8        17        17        22        23
         8        10        16        17        23
        16        16        17        23        27
         8        17        17        23        27
        16        10        16        23        24
         8        16        23        24        27
         8         9        15        16        24
        16        15        16        24        26
         8        16        24        26        27
         8         8         9        15        23
        16         9        15        23        24
         8         8        14        15        23
        16        14        15        23        25
        16        15        23        25        26
         8         7         8        14        22
        16         8        14        22        23
         8        14        22        23        25
         4        11        12        22        22
         4        11        17        22        22
         8        17        22        23        23
         4        11        17        23        23
         8        17        23        23        27
         4        16        17        23        23
         8        23        24        25        27
         8        23        23        25        27
         8        16        23        25        27
         8        24        25        26        27
         8        25        26        26        27
         8        16        25        26        27
         8        23        24        26        26
        16        24        25        26        26
        16        25        26        26        26
        16        23        25        26        26
        32        25        26        26        29
        24        26        26        26        29
         8        22        23        25        27
        16        23        25        26        27
         8        25        26        27        29
         8        22        23        23        27
         8        23        23        26        27
         8        23        23        25        26
         4        10        11        23        23
         4        10        16        23        23
         8        16        23        24        25
         4        10        16        24        24
         4        15        16        24        24
         8        15        24        26        26
         8        26        27        28        29
        16        26        26        28        29
        16        25        26        28        29
         8        23        26        26        27
         8        26        26        27        28
         8        26        26        26        28
        16        23        24        25        26
        16        24        25        26        29
         4         9        10        24        24
         4         9        15        24        24
         4         9        15        23        23
         8        25        26        27        28
         8        14        23        25        27
         8        25        25        26        29
         4         8         9        23        23
         8        14        22        23        27
         4         8        14        22        22
         8        24        25        25        26
         4         7         8        22        22
         4        13        17        17        17
         4        17        17        17        18
         8        17        17        18        27
         8        16        17        18        27
         4        17        18        27        27
         8        16        18        20        27
         8        18        20        20        27
         4        18        20        27        27
         8        15        16        20        26
        16        16        20        26        27
         8        20        20        26        27
         8        15        19        20        26
        16        19        20        26        28
         8        14        15        19        25
        16        15        19        25        26
         8        19        25        26        28
         4        16        17        27        27
         4        16        20        27        27
         8        20        26        26        27
         4        16        20        26        26
         8        19        26        28        29
         4        15        16        26        26
         8        19        25        26        29
         4        15        19        25        25
         4        14        15        25        25
         4        18        20        20        20
         8        19        20        21        28
         4        20        21        28        28
         4        19        20        28        28
