 vasp.5.4.1 24Jun15 (build Feb 01 2016 23:38:11) complex                        
  
 executed on           IFC91_impi date 2016.03.21  10:59:30
 running on   16 total cores
 distrk:  each k-point on   16 cores,    1 groups
 distr:  one band on NCORES_PER_BAND=   4 cores,    4 groups


--------------------------------------------------------------------------------------------------------


 INCAR:
 POTCAR:   PAW_PBE Si 05Jan2001                   
 POTCAR:   PAW_PBE Si 05Jan2001                   
   VRHFIN =Si: s2p2                                                             
   LEXCH  = PE                                                                  
   EATOM  =   103.0669 eV,    7.5752 Ry                                         
                                                                                
   TITEL  = PAW_PBE Si 05Jan2001                                                
   LULTRA =        F    use ultrasoft PP ?                                      
   IUNSCR =        1    unscreen: 0-lin 1-nonlin 2-no                           
   RPACOR =    1.500    partial core radius                                     
   POMASS =   28.085; ZVAL   =    4.000    mass and valenz                      
   RCORE  =    1.900    outmost cutoff radius                                   
   RWIGS  =    2.480; RWIGS  =    1.312    wigner-seitz radius (au A)           
   ENMAX  =  245.345; ENMIN  =  184.009 eV                                      
   ICORE  =        2    local potential                                         
   LCOR   =        T    correct aug charges                                     
   LPAW   =        T    paw PP                                                  
   EAUG   =  322.069                                                            
   DEXC   =    -.007                                                            
   RMAX   =    2.944    core radius for proj-oper                               
   RAUG   =    1.300    factor for augmentation sphere                          
   RDEP   =    1.993    radius for radial grids                                 
   QCUT   =   -4.246; QGAM   =    8.493    optimization parameters              
                                                                                
   Description                                                                  
     l     E      TYP  RCUT    TYP  RCUT                                        
     0   .000     23  1.900                                                     
     0   .000     23  1.900                                                     
     1   .000     23  1.900                                                     
     1   .000     23  1.900                                                     
     2   .000      7  1.900                                                     
  local pseudopotential read in
  partial core-charges read in
  atomic valenz-charges read in
  non local Contribution for L=           0  read in
    real space projection operators read in
  non local Contribution for L=           0  read in
    real space projection operators read in
  non local Contribution for L=           1  read in
    real space projection operators read in
  non local Contribution for L=           1  read in
    real space projection operators read in
    PAW grid and wavefunctions read in
 
   number of l-projection  operators is LMAX  =           4
   number of lm-projection operators is LMMAX =           8
 

 ----------------------------------------------------------------------------- 
|                                                                             |
|  ADVICE TO THIS USER RUNNING 'VASP/VAMP'   (HEAR YOUR MASTER'S VOICE ...):  |
|                                                                             |
|      You have a (more or less) 'small supercell' and for smaller cells      |
|      it is recommended  to use the reciprocal-space projection scheme!      |
|      The real space optimization is not  efficient for small cells and it   |
|      is also less accurate ...                                              |
|      Therefore set LREAL=.FALSE. in the  INCAR file                         |
|                                                                             |
 ----------------------------------------------------------------------------- 

 Optimization of the real space projectors (new method)

 maximal supplied QI-value         = 19.84
 optimisation between [QCUT,QGAM] = [ 11.51, 23.22] = [ 37.09,150.92] Ry 
 Optimized for a Real-space Cutoff    1.21 Angstroem

   l    n(q)    QCUT    max X(q) W(low)/X(q) W(high)/X(q)  e(spline) 
   0      8    11.508     8.708    0.18E-04    0.44E-05    0.47E-08
   0      8    11.508   106.241    0.70E-04    0.15E-03    0.51E-07
   1      8    11.508     5.901    0.63E-05    0.23E-04    0.21E-07
   1      8    11.508    73.241    0.15E-03    0.36E-04    0.79E-07
 PAW_PBE Si 05Jan2001                   :
 energy of atom  1       EATOM= -103.0669
 kinetic energy error for atom=    0.0005 (will be added to EATOM!!)
 
 
 POSCAR: Si2                                     
  positions in direct lattice
  No initial velocities read in
 exchange correlation table for  LEXCH =        8
   RHO(1)=    0.500       N(1)  =     2000
   RHO(2)=  100.500       N(2)  =     4000
 


--------------------------------------------------------------------------------------------------------


 ion  position               nearest neighbor table
   1  0.000  0.000  0.000-   2 2.35   2 2.35   2 2.35   2 2.35
   2  0.750  0.500  0.750-   1 2.35   1 2.35   1 2.35   1 2.35
 
  LATTYP: Found a face centered cubic cell.
 ALAT       =     5.4308612897
  
  Lattice vectors:
  
 A1 = (   1.9200990000,   3.3257100000,   0.0000000000)
 A2 = (   0.0000000000,   2.2171380000,  -3.1355090000)
 A3 = (  -1.9200990000,   3.3257100000,   0.0000000000)


Analysis of symmetry for initial positions (statically):
=====================================================================
 Subroutine PRICEL returns:
 Original cell was already a primitive cell.
 

 Routine SETGRP: Setting up the symmetry group for a 
 face centered cubic supercell.


 Subroutine GETGRP returns: Found 48 space group operations
 (whereof 24 operations were pure point group operations)
 out of a pool of 48 trial point group operations.


The static configuration has the point symmetry T_d .
 The point group associated with its full space group is O_h .


Analysis of symmetry for dynamics (positions and initial velocities):
=====================================================================
 Subroutine PRICEL returns:
 Original cell was already a primitive cell.
 

 Routine SETGRP: Setting up the symmetry group for a 
 face centered cubic supercell.


 Subroutine GETGRP returns: Found 48 space group operations
 (whereof 24 operations were pure point group operations)
 out of a pool of 48 trial point group operations.


The dynamic configuration has the point symmetry T_d .
 The point group associated with its full space group is O_h .


Analysis of structural, dynamic, and magnetic symmetry:
=====================================================================
 Subroutine PRICEL returns:
 Original cell was already a primitive cell.
 

 Routine SETGRP: Setting up the symmetry group for a 
 face centered cubic supercell.


 Subroutine GETGRP returns: Found 48 space group operations
 (whereof 24 operations were pure point group operations)
 out of a pool of 48 trial point group operations.


The magnetic configuration has the point symmetry T_d .
 The point group associated with its full space group is O_h .


 Subroutine INISYM returns: Found 48 space group operations
 (whereof 24 operations are pure point group operations),
 and found     1 'primitive' translations

 
 
 KPOINTS: pymatgen generated KPOINTS with grid den

Automatic generation of k-mesh.
Space group operators:
 irot       det(A)        alpha          n_x          n_y          n_z        tau_x        tau_y        tau_z
    1     1.000000     0.000000     1.000000     0.000000     0.000000     0.000000     0.000000     0.000000
    2     1.000000   120.000000    -0.000001    -0.942809     0.333334     0.000000     0.000000     0.000000
    3     1.000000   120.000000    -0.000001     0.942809    -0.333334     0.000000     0.000000     0.000000
    4    -1.000000    90.000000    -0.707107    -0.408248     0.577350     0.000000     0.000000     0.000000
    5    -1.000000   180.000000     0.500000     0.866025    -0.000001     0.000000     0.000000     0.000000
    6    -1.000000    90.000000    -0.000000     0.816497     0.577350     0.000000     0.000000     0.000000
    7     1.000000   180.000000     0.707107     0.408248    -0.577350     0.000000     0.000000     0.000000
    8     1.000000   120.000000     0.816497     0.471405     0.333333     0.000000     0.000000     0.000000
    9     1.000000   120.000000     0.000001     0.000000     1.000000     0.000000     0.000000     0.000000
   10    -1.000000    90.000000     0.707107     0.408248    -0.577350     0.000000     0.000000     0.000000
   11    -1.000000    90.000000     0.707107    -0.408248     0.577350     0.000000     0.000000     0.000000
   12    -1.000000   180.000000     0.000000    -0.577350     0.816497     0.000000     0.000000     0.000000
   13     1.000000   120.000000     0.000001    -0.000000    -1.000000     0.000000     0.000000     0.000000
   14     1.000000   120.000000     0.816497    -0.471405    -0.333333     0.000000     0.000000     0.000000
   15     1.000000   180.000000     0.707107    -0.408248     0.577350     0.000000     0.000000     0.000000
   16    -1.000000    90.000000    -0.000000    -0.816497    -0.577350     0.000000     0.000000     0.000000
   17    -1.000000   180.000000    -0.500000     0.866025    -0.000001     0.000000     0.000000     0.000000
   18    -1.000000    90.000000    -0.707107     0.408248    -0.577350     0.000000     0.000000     0.000000
   19     1.000000   120.000000    -0.816497    -0.471404    -0.333334     0.000000     0.000000     0.000000
   20     1.000000   180.000000     0.000000    -0.816497    -0.577350     0.000000     0.000000     0.000000
   21     1.000000   120.000000    -0.816497     0.471404     0.333334     0.000000     0.000000     0.000000
   22    -1.000000   179.999999    -0.500000     0.288675     0.816496     0.000000     0.000000     0.000000
   23    -1.000000   179.999999     0.500000     0.288675     0.816496     0.000000     0.000000     0.000000
   24    -1.000000   180.000000     1.000000     0.000000     0.000000     0.000000     0.000000     0.000000
   25    -1.000000     0.000000     1.000000     0.000000     0.000000    -0.250000     0.500000    -0.250000
   26    -1.000000   120.000000    -0.000001    -0.942809     0.333334    -0.250000     0.500000    -0.250000
   27    -1.000000   120.000000    -0.000001     0.942809    -0.333334    -0.250000     0.500000    -0.250000
   28     1.000000    90.000000    -0.707107    -0.408248     0.577350    -0.250000     0.500000    -0.250000
   29     1.000000   180.000000     0.500000     0.866025    -0.000001    -0.250000     0.500000    -0.250000
   30     1.000000    90.000000    -0.000000     0.816497     0.577350    -0.250000     0.500000    -0.250000
   31    -1.000000   180.000000     0.707107     0.408248    -0.577350    -0.250000     0.500000    -0.250000
   32    -1.000000   120.000000     0.816497     0.471405     0.333333    -0.250000     0.500000    -0.250000
   33    -1.000000   120.000000     0.000001     0.000000     1.000000    -0.250000     0.500000    -0.250000
   34     1.000000    90.000000     0.707107     0.408248    -0.577350    -0.250000     0.500000    -0.250000
   35     1.000000    90.000000     0.707107    -0.408248     0.577350    -0.250000     0.500000    -0.250000
   36     1.000000   180.000000     0.000000    -0.577350     0.816497    -0.250000     0.500000    -0.250000
   37    -1.000000   120.000000     0.000001    -0.000000    -1.000000    -0.250000     0.500000    -0.250000
   38    -1.000000   120.000000     0.816497    -0.471405    -0.333333    -0.250000     0.500000    -0.250000
   39    -1.000000   180.000000     0.707107    -0.408248     0.577350    -0.250000     0.500000    -0.250000
   40     1.000000    90.000000    -0.000000    -0.816497    -0.577350    -0.250000     0.500000    -0.250000
   41     1.000000   180.000000    -0.500000     0.866025    -0.000001    -0.250000     0.500000    -0.250000
   42     1.000000    90.000000    -0.707107     0.408248    -0.577350    -0.250000     0.500000    -0.250000
   43    -1.000000   120.000000    -0.816497    -0.471404    -0.333334    -0.250000     0.500000    -0.250000
   44    -1.000000   180.000000     0.000000    -0.816497    -0.577350    -0.250000     0.500000    -0.250000
   45    -1.000000   120.000000    -0.816497     0.471404     0.333334    -0.250000     0.500000    -0.250000
   46     1.000000   179.999999    -0.500000     0.288675     0.816496    -0.250000     0.500000    -0.250000
   47     1.000000   179.999999     0.500000     0.288675     0.816496    -0.250000     0.500000    -0.250000
   48     1.000000   180.000000     1.000000     0.000000     0.000000    -0.250000     0.500000    -0.250000
 
 Subroutine IBZKPT returns following result:
 ===========================================
 
 Found     29 irreducible k-points:
 
 Following reciprocal coordinates:
            Coordinates               Weight
  0.000000  0.000000  0.000000      1.000000
  0.125000  0.000000 -0.000000      8.000000
  0.250000  0.000000 -0.000000      8.000000
  0.375000  0.000000  0.000000      8.000000
  0.500000  0.000000 -0.000000      4.000000
  0.000000  0.125000  0.000000      6.000000
  0.250000  0.125000  0.000000     12.000000
  0.375000  0.125000  0.000000     24.000000
  0.500000  0.125000 -0.000000     24.000000
 -0.375000  0.125000 -0.000000     24.000000
 -0.250000  0.125000  0.000000     24.000000
 -0.125000  0.125000 -0.000000     24.000000
  0.000000  0.250000  0.000000      6.000000
  0.500000  0.250000  0.000000     12.000000
 -0.375000  0.250000  0.000000     24.000000
 -0.250000  0.250000 -0.000000     24.000000
 -0.125000  0.250000  0.000000     24.000000
  0.000000  0.375000 -0.000000      6.000000
 -0.250000  0.375000  0.000000     12.000000
 -0.125000  0.375000  0.000000     24.000000
  0.000000  0.500000  0.000000      3.000000
  0.375000  0.125000  0.125000     24.000000
  0.500000  0.125000  0.125000     48.000000
 -0.375000  0.125000  0.125000     24.000000
 -0.375000  0.250000  0.125000     24.000000
 -0.250000  0.250000  0.125000     48.000000
 -0.125000  0.250000  0.125000     24.000000
 -0.125000  0.375000  0.125000     12.000000
 -0.250000  0.250000  0.250000      6.000000
 
 Following cartesian coordinates:
            Coordinates               Weight
  0.000000  0.000000  0.000000      1.000000
  0.032550 -0.018793 -0.013289      8.000000
  0.065101 -0.037586 -0.026577      8.000000
  0.097651 -0.056379 -0.039866      8.000000
  0.130202 -0.075172 -0.053155      4.000000
  0.000000  0.037586  0.026577      6.000000
  0.065101  0.000000  0.000000     12.000000
  0.097651 -0.018793 -0.013289     24.000000
  0.130202 -0.037586 -0.026577     24.000000
 -0.097651  0.093965  0.066443     24.000000
 -0.065101  0.075172  0.053155     24.000000
 -0.032550  0.056379  0.039866     24.000000
  0.000000  0.075172  0.053155      6.000000
  0.130202  0.000000  0.000000     12.000000
 -0.097651  0.131551  0.093020     24.000000
 -0.065101  0.112758  0.079732     24.000000
 -0.032550  0.093965  0.066443     24.000000
  0.000000  0.112758  0.079732      6.000000
 -0.065101  0.150344  0.106309     12.000000
 -0.032550  0.131551  0.093020     24.000000
  0.000000  0.150344  0.106309      3.000000
  0.097651 -0.018793  0.026577     24.000000
  0.130202 -0.037586  0.013289     48.000000
 -0.097651  0.093965  0.106309     24.000000
 -0.097651  0.131551  0.132886     24.000000
 -0.065101  0.112758  0.119598     48.000000
 -0.032550  0.093965  0.106309     24.000000
 -0.032550  0.131551  0.132886     12.000000
 -0.065101  0.112758  0.159464      6.000000
 
 TETIRR: Found    336 inequivalent tetrahedra from     3072


--------------------------------------------------------------------------------------------------------




 Dimension of arrays:
   k-points           NKPTS =     29   k-points in BZ     NKDIM =     29   number of bands    NBANDS=     12
   number of dos      NEDOS =    301   number of ions     NIONS =      2
   non local maximal  LDIM  =      4   non local SUM 2l+1 LMDIM =      8
   total plane-waves  NPLWV =  27000
   max r-space proj   IRMAX =   5063   max aug-charges    IRDMAX=  22740
   dimension x,y,z NGX =    30 NGY =   30 NGZ =   30
   dimension x,y,z NGXF=    60 NGYF=   60 NGZF=   60
   support grid    NGXF=    60 NGYF=   60 NGZF=   60
   ions per type =               2
 NGX,Y,Z   is equivalent  to a cutoff of  12.99, 12.99, 12.99 a.u.
 NGXF,Y,Z  is equivalent  to a cutoff of  25.97, 25.97, 25.97 a.u.


 I would recommend the setting:
   dimension x,y,z NGX =    29 NGY =   29 NGZ =   29
 SYSTEM =  unknown system                          
 POSCAR =  Si2                                     

 Startparameter for this run:
   NWRITE =      2    write-flag & timer
   PREC   = accura    normal or accurate (medium, high low for compatibility)
   ISTART =      0    job   : 0-new  1-cont  2-samecut
   ICHARG =      1    charge: 1-file 2-atom 10-const
   ISPIN  =      2    spin polarized calculation?
   LNONCOLLINEAR =      F non collinear calculations
   LSORBIT =      F    spin-orbit coupling
   INIWAV =      1    electr: 0-lowe 1-rand  2-diag
   LASPH  =      F    aspherical Exc in radial PAW
   METAGGA=      F    non-selfconsistent MetaGGA calc.

 Electronic Relaxation 1
   ENCUT  =  520.0 eV  38.22 Ry    6.18 a.u.   7.14  7.14  7.14*2*pi/ulx,y,z
   ENINI  =  520.0     initial cutoff
   ENAUG  =  322.1 eV  augmentation charge cutoff
   NELM   =    100;   NELMIN=  2; NELMDL= -5     # of ELM steps 
   EDIFF  = 0.1E-03   stopping-criterion for ELM
   LREAL  =      T    real-space projection
   NLSPLINE    = F    spline interpolate recip. space projectors
   LCOMPAT=      F    compatible to vasp.4.4
   GGA_COMPAT  = T    GGA compatible to vasp.4.4-vasp.4.6
   LMAXPAW     = -100 max onsite density
   LMAXMIX     =    2 max onsite mixed and CHGCAR
   VOSKOWN=      0    Vosko Wilk Nusair interpolation
   ROPT   =   -0.00025
 Ionic relaxation
   EDIFFG = 0.1E-02   stopping-criterion for IOM
   NSW    =     99    number of steps for IOM
   NBLOCK =      1;   KBLOCK =     99    inner block; outer block 
   IBRION =      2    ionic relax: 0-MD 1-quasi-New 2-CG
   NFREE  =      1    steps in history (QN), initial steepest desc. (CG)
   ISIF   =      3    stress and relaxation
   IWAVPR =     11    prediction:  0-non 1-charg 2-wave 3-comb
   ISYM   =      2    0-nonsym 1-usesym 2-fastsym
   LCORR  =      T    Harris-Foulkes like correction to forces

   POTIM  = 0.5000    time-step for ionic-motion
   TEIN   =    0.0    initial temperature
   TEBEG  =    0.0;   TEEND  =   0.0 temperature during run
   SMASS  =  -3.00    Nose mass-parameter (am)
   estimated Nose-frequenzy (Omega)   =  0.10E-29 period in steps =****** mass=  -0.337E-27a.u.
   SCALEE = 1.0000    scale energy and forces
   NPACO  =    256;   APACO  = 16.0  distance and # of slots for P.C.
   PSTRESS=    0.0 pullay stress

  Mass of Ions in am
   POMASS =  28.09
  Ionic Valenz
   ZVAL   =   4.00
  Atomic Wigner-Seitz radii
   RWIGS  =  -1.00
  virtual crystal weights 
   VCA    =   1.00
   NELECT =       8.0000    total number of electrons
   NUPDOWN=      -1.0000    fix difference up-down

 DOS related values:
   EMIN   =  10.00;   EMAX   =-10.00  energy-range for DOS
   EFERMI =   0.00
   ISMEAR =    -5;   SIGMA  =   0.05  broadening in eV -4-tet -1-fermi 0-gaus

 Electronic relaxation 2 (details)
   IALGO  =     68    algorithm
   LDIAG  =      T    sub-space diagonalisation (order eigenvalues)
   LSUBROT=      F    optimize rotation matrix (better conditioning)
   TURBO    =      0    0=normal 1=particle mesh
   IRESTART =      0    0=no restart 2=restart with 2 vectors
   NREBOOT  =      0    no. of reboots
   NMIN     =      0    reboot dimension
   EREF     =   0.00    reference energy to select bands
   IMIX   =      4    mixing-type and parameters
     AMIX     =   0.40;   BMIX     =  1.00
     AMIX_MAG =   1.60;   BMIX_MAG =  1.00
     AMIN     =   0.10
     WC   =   100.;   INIMIX=   1;  MIXPRE=   1;  MAXMIX= -45

 Intra band minimization:
   WEIMIN = 0.0010     energy-eigenvalue tresh-hold
   EBREAK =  0.21E-05  absolut break condition
   DEPER  =   0.30     relativ break condition  

   TIME   =   0.40     timestep for ELM

  volume/ion in A,a.u.               =      20.02       135.12
  Fermi-wavevector in a.u.,A,eV,Ry     =   0.957024  1.808513 12.461506  0.915895
  Thomas-Fermi vector in A             =   2.086005
 
 Write flags
   LWAVE  =      F    write WAVECAR
   LCHARG =      T    write CHGCAR
   LVTOT  =      F    write LOCPOT, total local potential
   LVHAR  =      F    write LOCPOT, Hartree potential only
   LELF   =      F    write electronic localiz. function (ELF)
   LORBIT =     11    0 simple, 1 ext, 2 COOP (PROOUT)


 Dipole corrections
   LMONO  =      F    monopole corrections only (constant potential shift)
   LDIPOL =      F    correct potential (dipole corrections)
   IDIPOL =      0    1-x, 2-y, 3-z, 4-all directions 
   EPSILON=  1.0000000 bulk dielectric constant

 Exchange correlation treatment:
   GGA     =    --    GGA type
   LEXCH   =     8    internal setting for exchange type
   VOSKOWN=      0    Vosko Wilk Nusair interpolation
   LHFCALC =     F    Hartree Fock is set to
   LHFONE  =     F    Hartree Fock one center treatment
   AEXX    =    0.0000 exact exchange contribution

 Linear response parameters
   LEPSILON=     F    determine dielectric tensor
   LRPA    =     F    only Hartree local field effects (RPA)
   LNABLA  =     F    use nabla operator in PAW spheres
   LVEL    =     F    velocity operator in full k-point grid
   LINTERFAST=   F  fast interpolation
   KINTER  =     0    interpolate to denser k-point grid
   CSHIFT  =0.1000    complex shift for real part using Kramers Kronig
   OMEGAMAX=  -1.0    maximum frequency
   DEG_THRESHOLD= 0.2000000E-02 threshold for treating states as degnerate
   RTIME   =    0.100 relaxation time in fs

 Orbital magnetization related:
   ORBITALMAG=     F  switch on orbital magnetization
   LCHIMAG   =     F  perturbation theory with respect to B field
   DQ        =  0.001000  dq finite difference perturbation B field



--------------------------------------------------------------------------------------------------------


 conjugate gradient relaxation of ions
 charge density and potential will be updated during run
 spin polarized calculation
 RMM-DIIS sequential band-by-band and
  variant of blocked Davidson during initial phase
 perform sub-space diagonalisation
    before iterative eigenvector-optimisation
 modified Broyden-mixing scheme, WC =      100.0
 initial mixing is a Kerker type mixing with AMIX =  0.4000 and BMIX =      1.0000
 Hartree-type preconditioning will be used
 using additional bands            8
 real space projection scheme for non local part
 use partial core corrections
 calculate Harris-corrections to forces 
   (improved forces if not selfconsistent)
 use gradient corrections 
 use of overlap-Matrix (Vanderbilt PP)
 Fermi weights with tetrahedron method with Bloechl corrections


--------------------------------------------------------------------------------------------------------


  energy-cutoff  :      520.00
  volume of cell :       40.04
      direct lattice vectors                 reciprocal lattice vectors
     3.840198000  0.000000000  0.000000000     0.260403240 -0.150343836 -0.106309066
     1.920099000  3.325710000  0.000000000     0.000000000  0.300687673  0.212618132
     0.000000000 -2.217138000  3.135509000     0.000000000  0.000000000  0.318927485

  length of vectors
     3.840198000  3.840198846  3.840197599     0.318927474  0.368265592  0.318927485


 
 k-points in units of 2pi/SCALE and weight: pymatgen generated KPOINTS with grid den
   0.00000000  0.00000000  0.00000000       0.002
   0.03255040 -0.01879298 -0.01328863       0.016
   0.06510081 -0.03758596 -0.02657727       0.016
   0.09765121 -0.05637894 -0.03986590       0.016
   0.13020162 -0.07517192 -0.05315453       0.008
   0.00000000  0.03758596  0.02657727       0.012
   0.06510081  0.00000000  0.00000000       0.023
   0.09765121 -0.01879298 -0.01328863       0.047
   0.13020162 -0.03758596 -0.02657727       0.047
  -0.09765121  0.09396490  0.06644317       0.047
  -0.06510081  0.07517192  0.05315453       0.047
  -0.03255040  0.05637894  0.03986590       0.047
   0.00000000  0.07517192  0.05315453       0.012
   0.13020162  0.00000000  0.00000000       0.023
  -0.09765121  0.13155086  0.09302043       0.047
  -0.06510081  0.11275788  0.07973180       0.047
  -0.03255040  0.09396490  0.06644317       0.047
   0.00000000  0.11275788  0.07973180       0.012
  -0.06510081  0.15034384  0.10630907       0.023
  -0.03255040  0.13155086  0.09302043       0.047
   0.00000000  0.15034384  0.10630907       0.006
   0.09765121 -0.01879298  0.02657730       0.047
   0.13020162 -0.03758596  0.01328867       0.094
  -0.09765121  0.09396490  0.10630910       0.047
  -0.09765121  0.13155086  0.13288637       0.047
  -0.06510081  0.11275788  0.11959774       0.094
  -0.03255040  0.09396490  0.10630910       0.047
  -0.03255040  0.13155086  0.13288637       0.023
  -0.06510081  0.11275788  0.15946367       0.012
 
 k-points in reciprocal lattice and weights: pymatgen generated KPOINTS with grid den
   0.00000000  0.00000000  0.00000000       0.002
   0.12500000  0.00000000 -0.00000000       0.016
   0.25000000  0.00000000 -0.00000000       0.016
   0.37500000  0.00000000  0.00000000       0.016
   0.50000000  0.00000000 -0.00000000       0.008
   0.00000000  0.12500000  0.00000000       0.012
   0.25000000  0.12500000  0.00000000       0.023
   0.37500000  0.12500000  0.00000000       0.047
   0.50000000  0.12500000 -0.00000000       0.047
  -0.37500000  0.12500000 -0.00000000       0.047
  -0.25000000  0.12500000  0.00000000       0.047
  -0.12500000  0.12500000 -0.00000000       0.047
   0.00000000  0.25000000  0.00000000       0.012
   0.50000000  0.25000000  0.00000000       0.023
  -0.37500000  0.25000000  0.00000000       0.047
  -0.25000000  0.25000000 -0.00000000       0.047
  -0.12500000  0.25000000  0.00000000       0.047
   0.00000000  0.37500000 -0.00000000       0.012
  -0.25000000  0.37500000  0.00000000       0.023
  -0.12500000  0.37500000  0.00000000       0.047
   0.00000000  0.50000000  0.00000000       0.006
   0.37500000  0.12500000  0.12500000       0.047
   0.50000000  0.12500000  0.12500000       0.094
  -0.37500000  0.12500000  0.12500000       0.047
  -0.37500000  0.25000000  0.12500000       0.047
  -0.25000000  0.25000000  0.12500000       0.094
  -0.12500000  0.25000000  0.12500000       0.047
  -0.12500000  0.37500000  0.12500000       0.023
  -0.25000000  0.25000000  0.25000000       0.012
 
 position of ions in fractional coordinates (direct lattice) 
   0.00000000  0.00000000  0.00000000
   0.75000000  0.50000000  0.75000000
 
 position of ions in cartesian coordinates  (Angst):
   0.00000000  0.00000000  0.00000000
   3.84019800  0.00000150  2.35163175
 


--------------------------------------------------------------------------------------------------------


 k-point  1 :   0.0000 0.0000 0.0000  plane waves:    1067
 k-point  2 :   0.1250 0.0000-0.0000  plane waves:    1064
 k-point  3 :   0.2500 0.0000-0.0000  plane waves:    1077
 k-point  4 :   0.3750 0.0000 0.0000  plane waves:    1083
 k-point  5 :   0.5000 0.0000-0.0000  plane waves:    1068
 k-point  6 :   0.0000 0.1250 0.0000  plane waves:    1062
 k-point  7 :   0.2500 0.1250 0.0000  plane waves:    1055
 k-point  8 :   0.3750 0.1250 0.0000  plane waves:    1076
 k-point  9 :   0.5000 0.1250-0.0000  plane waves:    1080
 k-point 10 :  -0.3750 0.1250-0.0000  plane waves:    1086
 k-point 11 :  -0.2500 0.1250 0.0000  plane waves:    1076
 k-point 12 :  -0.1250 0.1250-0.0000  plane waves:    1069
 k-point 13 :   0.0000 0.2500 0.0000  plane waves:    1062
 k-point 14 :   0.5000 0.2500 0.0000  plane waves:    1081
 k-point 15 :  -0.3750 0.2500 0.0000  plane waves:    1081
 k-point 16 :  -0.2500 0.2500-0.0000  plane waves:    1082
 k-point 17 :  -0.1250 0.2500 0.0000  plane waves:    1067
 k-point 18 :   0.0000 0.3750-0.0000  plane waves:    1074
 k-point 19 :  -0.2500 0.3750 0.0000  plane waves:    1069
 k-point 20 :  -0.1250 0.3750 0.0000  plane waves:    1080
 k-point 21 :   0.0000 0.5000 0.0000  plane waves:    1090
 k-point 22 :   0.3750 0.1250 0.1250  plane waves:    1075
 k-point 23 :   0.5000 0.1250 0.1250  plane waves:    1075
 k-point 24 :  -0.3750 0.1250 0.1250  plane waves:    1086
 k-point 25 :  -0.3750 0.2500 0.1250  plane waves:    1088
 k-point 26 :  -0.2500 0.2500 0.1250  plane waves:    1085
 k-point 27 :  -0.1250 0.2500 0.1250  plane waves:    1077
 k-point 28 :  -0.1250 0.3750 0.1250  plane waves:    1082
 k-point 29 :  -0.2500 0.2500 0.2500  plane waves:    1084

 maximum and minimum number of plane-waves per node :       281      259

 maximum number of plane-waves:      1090
 maximum index in each direction: 
   IXMAX=    7   IYMAX=    7   IZMAX=    7
   IXMIN=   -7   IYMIN=   -7   IZMIN=   -7

 NGX is ok and might be reduce to  30
 NGY is ok and might be reduce to  30
 NGZ is ok and might be reduce to  30

 real space projection operators:
  total allocation   :        610.69 KBytes
  max/ min on nodes  :        170.44        135.12


 parallel 3D FFT for wavefunctions:
    minimum data exchange during FFTs selected (reduces bandwidth)
 parallel 3D FFT for charge:
    minimum data exchange during FFTs selected (reduces bandwidth)


 total amount of memory used by VASP on root node    33533. kBytes
========================================================================

   base      :      30000. kBytes
   nonlr-proj:        379. kBytes
   fftplans  :        700. kBytes
   grid      :       1647. kBytes
   one-center:          6. kBytes
   wavefun   :        801. kBytes
 
     INWAV:  cpu time    0.0010: real time    0.0001
 Broyden mixing: mesh for mixing (old mesh)
   NGX = 15   NGY = 15   NGZ = 15
  (NGX  = 60   NGY  = 60   NGZ  = 60)
  gives a total of   3375 points

 initial charge density was supplied:
 charge density of overlapping atoms calculated
 number of electron       8.0000000 magnetization       1.2000000
 keeping initial charge density in first step


--------------------------------------------------------------------------------------------------------


 Maximum index for non-local projection operator         1379
 Maximum index for augmentation-charges         1619 (set IRDMAX)


--------------------------------------------------------------------------------------------------------


 First call to EWALD:  gamma=   0.518
 Maximum number of real-space cells 3x 3x 3
 Maximum number of reciprocal cells 3x 3x 3

 FEWALD executed in parallel
    FEWALD:  cpu time    0.0030: real time    0.0073


----------------------------------------- Iteration    1(   1)  ---------------------------------------


    POTLOK:  cpu time    0.0270: real time    0.0425
    SETDIJ:  cpu time    0.0070: real time    0.0119
     EDDAV:  cpu time    0.3020: real time    0.3238
 BZINTS: Fermi energy:  8.847014;  8.000000 electrons
         Band energy:  19.911317;  BLOECHL correction: -0.069453
       DOS:  cpu time    0.0160: real time    0.0183
    --------------------------------------------
      LOOP:  cpu time    0.3539: real time    0.3984

 eigenvalue-minimisations  :  1392
 total energy-change (2. order) : 0.6538306E+01  (-0.2963482E+03)
 number of electron       8.0000000 magnetization       1.2000000
 augmentation part        8.0000000 magnetization       1.2000000

 Free energy of the ion-electron system (eV)
  ---------------------------------------------------
  alpha Z        PSCENC =         3.36254244
  Ewald energy   TEWEN  =      -228.52729335
  -Hartree energ DENC   =       -11.00822102
  -exchange      EXHF   =         0.00000000
  -V(xc)+E(xc)   XCENC  =       -18.52396975
  PAW double counting   =        65.91709927      -30.72587073
  entropy T*S    EENTRO =         0.00000000
  eigenvalues    EBANDS =        19.91131654
  atomic energy  EATOM  =       206.13270273
  Solvation  Ediel_sol  =         0.00000000
  ---------------------------------------------------
  free energy    TOTEN  =         6.53830613 eV

  energy without entropy =        6.53830613  energy(sigma->0) =        6.53830613


--------------------------------------------------------------------------------------------------------




----------------------------------------- Iteration    1(   2)  ---------------------------------------


     EDDAV:  cpu time    0.3429: real time    0.3435
 BZINTS: Fermi energy:  5.955847;  8.000000 electrons
         Band energy:   3.074109;  BLOECHL correction: -0.000047
       DOS:  cpu time    0.0130: real time    0.0137
    --------------------------------------------
      LOOP:  cpu time    0.3589: real time    0.3603

 eigenvalue-minimisations  :  1808
 total energy-change (2. order) :-0.1683721E+02  (-0.1628310E+02)
 number of electron       8.0000000 magnetization       1.2000000
 augmentation part        8.0000000 magnetization       1.2000000

 Free energy of the ion-electron system (eV)
  ---------------------------------------------------
  alpha Z        PSCENC =         3.36254244
  Ewald energy   TEWEN  =      -228.52729335
  -Hartree energ DENC   =       -11.00822102
  -exchange      EXHF   =         0.00000000
  -V(xc)+E(xc)   XCENC  =       -18.52396975
  PAW double counting   =        65.91709927      -30.72587073
  entropy T*S    EENTRO =         0.00000000
  eigenvalues    EBANDS =         3.07410899
  atomic energy  EATOM  =       206.13270273
  Solvation  Ediel_sol  =         0.00000000
  ---------------------------------------------------
  free energy    TOTEN  =       -10.29890142 eV

  energy without entropy =      -10.29890142  energy(sigma->0) =      -10.29890142


--------------------------------------------------------------------------------------------------------




----------------------------------------- Iteration    1(   3)  ---------------------------------------


     EDDAV:  cpu time    0.3459: real time    0.3461
 BZINTS: Fermi energy:  5.618907;  8.000000 electrons
         Band energy:   2.541244;  BLOECHL correction:  0.000000
       DOS:  cpu time    0.0050: real time    0.0049
    --------------------------------------------
      LOOP:  cpu time    0.3519: real time    0.3516

 eigenvalue-minimisations  :  1828
 total energy-change (2. order) :-0.5328650E+00  (-0.5318916E+00)
 number of electron       8.0000000 magnetization       1.2000000
 augmentation part        8.0000000 magnetization       1.2000000

 Free energy of the ion-electron system (eV)
  ---------------------------------------------------
  alpha Z        PSCENC =         3.36254244
  Ewald energy   TEWEN  =      -228.52729335
  -Hartree energ DENC   =       -11.00822102
  -exchange      EXHF   =         0.00000000
  -V(xc)+E(xc)   XCENC  =       -18.52396975
  PAW double counting   =        65.91709927      -30.72587073
  entropy T*S    EENTRO =         0.00000000
  eigenvalues    EBANDS =         2.54124395
  atomic energy  EATOM  =       206.13270273
  Solvation  Ediel_sol  =         0.00000000
  ---------------------------------------------------
  free energy    TOTEN  =       -10.83176646 eV

  energy without entropy =      -10.83176646  energy(sigma->0) =      -10.83176646


--------------------------------------------------------------------------------------------------------




----------------------------------------- Iteration    1(   4)  ---------------------------------------


     EDDAV:  cpu time    0.3140: real time    0.3152
 BZINTS: Fermi energy:  5.659319;  8.000000 electrons
         Band energy:   2.537448;  BLOECHL correction:  0.000000
       DOS:  cpu time    0.0050: real time    0.0049
    --------------------------------------------
      LOOP:  cpu time    0.3190: real time    0.3206

 eigenvalue-minimisations  :  1636
 total energy-change (2. order) :-0.3796396E-02  (-0.3796057E-02)
 number of electron       8.0000000 magnetization       1.2000000
 augmentation part        8.0000000 magnetization       1.2000000

 Free energy of the ion-electron system (eV)
  ---------------------------------------------------
  alpha Z        PSCENC =         3.36254244
  Ewald energy   TEWEN  =      -228.52729335
  -Hartree energ DENC   =       -11.00822102
  -exchange      EXHF   =         0.00000000
  -V(xc)+E(xc)   XCENC  =       -18.52396975
  PAW double counting   =        65.91709927      -30.72587073
  entropy T*S    EENTRO =         0.00000000
  eigenvalues    EBANDS =         2.53744755
  atomic energy  EATOM  =       206.13270273
  Solvation  Ediel_sol  =         0.00000000
  ---------------------------------------------------
  free energy    TOTEN  =       -10.83556285 eV

  energy without entropy =      -10.83556285  energy(sigma->0) =      -10.83556285


--------------------------------------------------------------------------------------------------------




----------------------------------------- Iteration    1(   5)  ---------------------------------------


     EDDAV:  cpu time    0.3449: real time    0.3464
 BZINTS: Fermi energy:  5.635214;  8.000000 electrons
         Band energy:   2.537409;  BLOECHL correction:  0.000000
       DOS:  cpu time    0.0050: real time    0.0048
    CHARGE:  cpu time    0.0210: real time    0.0268
    MIXING:  cpu time    0.0020: real time    0.0072
    --------------------------------------------
      LOOP:  cpu time    0.3729: real time    0.3868

 eigenvalue-minimisations  :  1832
 total energy-change (2. order) :-0.3883059E-04  (-0.3883016E-04)
 number of electron       8.0000000 magnetization      -0.3371895
 augmentation part       -0.4710668 magnetization      -0.3337691

 Broyden mixing:
  rms(total) = 0.37338E+00    rms(broyden)= 0.37338E+00
  rms(prec ) = 0.90202E+00
  weight for this iteration     100.00

 Free energy of the ion-electron system (eV)
  ---------------------------------------------------
  alpha Z        PSCENC =         3.36254244
  Ewald energy   TEWEN  =      -228.52729335
  -Hartree energ DENC   =       -11.00822102
  -exchange      EXHF   =         0.00000000
  -V(xc)+E(xc)   XCENC  =       -18.52396975
  PAW double counting   =        65.91709927      -30.72587073
  entropy T*S    EENTRO =         0.00000000
  eigenvalues    EBANDS =         2.53740872
  atomic energy  EATOM  =       206.13270273
  Solvation  Ediel_sol  =         0.00000000
  ---------------------------------------------------
  free energy    TOTEN  =       -10.83560168 eV

  energy without entropy =      -10.83560168  energy(sigma->0) =      -10.83560168


--------------------------------------------------------------------------------------------------------




----------------------------------------- Iteration    1(   6)  ---------------------------------------


    POTLOK:  cpu time    0.0190: real time    0.0202
    SETDIJ:  cpu time    0.0060: real time    0.0050
    EDDIAG:  cpu time    0.0440: real time    0.0482
  RMM-DIIS:  cpu time    0.1680: real time    0.1685
    ORTHCH:  cpu time    0.0030: real time    0.0044
 BZINTS: Fermi energy:  5.664586;  8.000000 electrons
         Band energy:   3.940724;  BLOECHL correction:  0.000000
       DOS:  cpu time    0.0060: real time    0.0054
    CHARGE:  cpu time    0.0140: real time    0.0140
    MIXING:  cpu time    0.0020: real time    0.0022
    --------------------------------------------
      LOOP:  cpu time    0.2630: real time    0.2685

 eigenvalue-minimisations  :  1392
 total energy-change (2. order) :-0.4972148E-01  (-0.5687851E-02)
 number of electron       8.0000000 magnetization       0.4334161
 augmentation part       -0.4645656 magnetization       0.4332726

 Broyden mixing:
  rms(total) = 0.19002E+00    rms(broyden)= 0.19002E+00
  rms(prec ) = 0.51872E+00
  weight for this iteration     100.00

 eigenvalues of (default mixing * dielectric matrix)
  average eigenvalue GAMMA=   0.8556
  0.8556

 Free energy of the ion-electron system (eV)
  ---------------------------------------------------
  alpha Z        PSCENC =         3.36254244
  Ewald energy   TEWEN  =      -228.52729335
  -Hartree energ DENC   =       -12.51123525
  -exchange      EXHF   =         0.00000000
  -V(xc)+E(xc)   XCENC  =       -18.36013696
  PAW double counting   =        69.94271938      -34.86534629
  entropy T*S    EENTRO =         0.00000000
  eigenvalues    EBANDS =         3.94072414
  atomic energy  EATOM  =       206.13270273
  Solvation  Ediel_sol  =         0.00000000
  ---------------------------------------------------
  free energy    TOTEN  =       -10.88532316 eV

  energy without entropy =      -10.88532316  energy(sigma->0) =      -10.88532316


--------------------------------------------------------------------------------------------------------




----------------------------------------- Iteration    1(   7)  ---------------------------------------


    POTLOK:  cpu time    0.0200: real time    0.0202
    SETDIJ:  cpu time    0.0050: real time    0.0049
    EDDIAG:  cpu time    0.0420: real time    0.0425
  RMM-DIIS:  cpu time    0.1560: real time    0.1567
    ORTHCH:  cpu time    0.0040: real time    0.0044
 BZINTS: Fermi energy:  5.886311;  8.000000 electrons
         Band energy:   5.558364;  BLOECHL correction:  0.000000
       DOS:  cpu time    0.0050: real time    0.0049
    CHARGE:  cpu time    0.0140: real time    0.0141
    MIXING:  cpu time    0.0010: real time    0.0005
    --------------------------------------------
      LOOP:  cpu time    0.2470: real time    0.2488

 eigenvalue-minimisations  :  1392
 total energy-change (2. order) : 0.6100277E-01  (-0.5483530E-02)
 number of electron       8.0000000 magnetization       0.0097053
 augmentation part       -0.4594512 magnetization       0.0103924

 Broyden mixing:
  rms(total) = 0.10268E+00    rms(broyden)= 0.10268E+00
  rms(prec ) = 0.16717E+00
  weight for this iteration     100.00

 eigenvalues of (default mixing * dielectric matrix)
  average eigenvalue GAMMA=   1.5047
  0.7636  2.2457

 Free energy of the ion-electron system (eV)
  ---------------------------------------------------
  alpha Z        PSCENC =         3.36254244
  Ewald energy   TEWEN  =      -228.52729335
  -Hartree energ DENC   =       -14.25839048
  -exchange      EXHF   =         0.00000000
  -V(xc)+E(xc)   XCENC  =       -18.07079596
  PAW double counting   =        73.80945821      -38.83090795
  entropy T*S    EENTRO =         0.00000000
  eigenvalues    EBANDS =         5.55836396
  atomic energy  EATOM  =       206.13270273
  Solvation  Ediel_sol  =         0.00000000
  ---------------------------------------------------
  free energy    TOTEN  =       -10.82432039 eV

  energy without entropy =      -10.82432039  energy(sigma->0) =      -10.82432039


--------------------------------------------------------------------------------------------------------




----------------------------------------- Iteration    1(   8)  ---------------------------------------


    POTLOK:  cpu time    0.0200: real time    0.0202
    SETDIJ:  cpu time    0.0050: real time    0.0049
    EDDIAG:  cpu time    0.0420: real time    0.0425
  RMM-DIIS:  cpu time    0.1560: real time    0.1558
    ORTHCH:  cpu time    0.0040: real time    0.0044
 BZINTS: Fermi energy:  5.856367;  8.000000 electrons
         Band energy:   6.134251;  BLOECHL correction:  0.000000
       DOS:  cpu time    0.0050: real time    0.0045
    CHARGE:  cpu time    0.0140: real time    0.0141
    MIXING:  cpu time    0.0000: real time    0.0005
    --------------------------------------------
      LOOP:  cpu time    0.2460: real time    0.2476

 eigenvalue-minimisations  :  1392
 total energy-change (2. order) :-0.1798758E-01  (-0.1150728E-02)
 number of electron       8.0000000 magnetization      -0.0093818
 augmentation part       -0.4579290 magnetization      -0.0092956

 Broyden mixing:
  rms(total) = 0.17538E-01    rms(broyden)= 0.17538E-01
  rms(prec ) = 0.31663E-01
  weight for this iteration     100.00

 eigenvalues of (default mixing * dielectric matrix)
  average eigenvalue GAMMA=   1.2909
  2.4321  0.7863  0.6544

 Free energy of the ion-electron system (eV)
  ---------------------------------------------------
  alpha Z        PSCENC =         3.36254244
  Ewald energy   TEWEN  =      -228.52729335
  -Hartree energ DENC   =       -14.91453140
  -exchange      EXHF   =         0.00000000
  -V(xc)+E(xc)   XCENC  =       -17.97465411
  PAW double counting   =        74.93001551      -39.98534047
  entropy T*S    EENTRO =         0.00000000
  eigenvalues    EBANDS =         6.13425069
  atomic energy  EATOM  =       206.13270273
  Solvation  Ediel_sol  =         0.00000000
  ---------------------------------------------------
  free energy    TOTEN  =       -10.84230797 eV

  energy without entropy =      -10.84230797  energy(sigma->0) =      -10.84230797


--------------------------------------------------------------------------------------------------------




----------------------------------------- Iteration    1(   9)  ---------------------------------------


    POTLOK:  cpu time    0.0200: real time    0.0202
    SETDIJ:  cpu time    0.0060: real time    0.0049
    EDDIAG:  cpu time    0.0410: real time    0.0424
  RMM-DIIS:  cpu time    0.1550: real time    0.1545
    ORTHCH:  cpu time    0.0040: real time    0.0044
 BZINTS: Fermi energy:  5.850184;  8.000000 electrons
         Band energy:   6.124292;  BLOECHL correction:  0.000000
       DOS:  cpu time    0.0050: real time    0.0045
    CHARGE:  cpu time    0.0140: real time    0.0140
    MIXING:  cpu time    0.0000: real time    0.0005
    --------------------------------------------
      LOOP:  cpu time    0.2450: real time    0.2460

 eigenvalue-minimisations  :  1348
 total energy-change (2. order) : 0.4170846E-03  (-0.4377152E-04)
 number of electron       8.0000000 magnetization      -0.0002052
 augmentation part       -0.4582334 magnetization      -0.0001043

 Broyden mixing:
  rms(total) = 0.97352E-02    rms(broyden)= 0.97352E-02
  rms(prec ) = 0.19022E-01
  weight for this iteration     100.00

 eigenvalues of (default mixing * dielectric matrix)
  average eigenvalue GAMMA=   1.4855
  0.7790  0.6416  2.4632  2.0581

 Free energy of the ion-electron system (eV)
  ---------------------------------------------------
  alpha Z        PSCENC =         3.36254244
  Ewald energy   TEWEN  =      -228.52729335
  -Hartree energ DENC   =       -14.91534181
  -exchange      EXHF   =         0.00000000
  -V(xc)+E(xc)   XCENC  =       -17.97078696
  PAW double counting   =        74.67624141      -39.72424729
  entropy T*S    EENTRO =         0.00000000
  eigenvalues    EBANDS =         6.12429193
  atomic energy  EATOM  =       206.13270273
  Solvation  Ediel_sol  =         0.00000000
  ---------------------------------------------------
  free energy    TOTEN  =       -10.84189089 eV

  energy without entropy =      -10.84189089  energy(sigma->0) =      -10.84189089


--------------------------------------------------------------------------------------------------------




----------------------------------------- Iteration    1(  10)  ---------------------------------------


    POTLOK:  cpu time    0.0200: real time    0.0201
    SETDIJ:  cpu time    0.0050: real time    0.0049
    EDDIAG:  cpu time    0.0420: real time    0.0424
  RMM-DIIS:  cpu time    0.1530: real time    0.1537
    ORTHCH:  cpu time    0.0040: real time    0.0044
 BZINTS: Fermi energy:  5.852000;  8.000000 electrons
         Band energy:   6.107884;  BLOECHL correction:  0.000000
       DOS:  cpu time    0.0050: real time    0.0045
    --------------------------------------------
      LOOP:  cpu time    0.2300: real time    0.2305

 eigenvalue-minimisations  :  1349
 total energy-change (2. order) : 0.5500893E-04  (-0.4165363E-04)
 number of electron       8.0000000 magnetization      -0.0002052
 augmentation part       -0.4582334 magnetization      -0.0001043

 Free energy of the ion-electron system (eV)
  ---------------------------------------------------
  alpha Z        PSCENC =         3.36254244
  Ewald energy   TEWEN  =      -228.52729335
  -Hartree energ DENC   =       -14.91616781
  -exchange      EXHF   =         0.00000000
  -V(xc)+E(xc)   XCENC  =       -17.96520412
  PAW double counting   =        74.28320799      -39.31950811
  entropy T*S    EENTRO =         0.00000000
  eigenvalues    EBANDS =         6.10788435
  atomic energy  EATOM  =       206.13270273
  Solvation  Ediel_sol  =         0.00000000
  ---------------------------------------------------
  free energy    TOTEN  =       -10.84183588 eV

  energy without entropy =      -10.84183588  energy(sigma->0) =      -10.84183588


--------------------------------------------------------------------------------------------------------




 average (electrostatic) potential at core
  the test charge radii are     0.9892
  (the norm of the test charge is              1.0000)
       1 -83.2537       2 -83.2537
 
 
 
 E-fermi :   5.8520     XC(G=0):  -9.4111     alpha+bet :-11.9788


 spin component 1

 k-point     1 :       0.0000    0.0000    0.0000
  band No.  band energies     occupation 
      1      -6.1342      1.00000
      2       5.8210      1.00000
      3       5.8210      1.00000
      4       5.8210      1.00000
      5       8.3915      0.00000
      6       8.3915      0.00000
      7       8.3915      0.00000
      8       9.1947      0.00000
      9      13.5460      0.00000
     10      13.5460      0.00000
     11      13.7755      0.00000
     12      17.0788      0.00000

 k-point     2 :       0.1250    0.0000   -0.0000
  band No.  band energies     occupation 
      1      -5.9301      1.00000
      2       4.2253      1.00000
      3       5.5331      1.00000
      4       5.5331      1.00000
      5       8.3290      0.00000
      6       8.8150      0.00000
      7       8.8150      0.00000
      8      10.5381      0.00000
      9      13.0646      0.00000
     10      13.0646      0.00000
     11      14.5631      0.00000
     12      16.5171      0.00000

 k-point     3 :       0.2500    0.0000   -0.0000
  band No.  band energies     occupation 
      1      -5.3346      1.00000
      2       1.8987      1.00000
      3       5.0635      1.00000
      4       5.0635      1.00000
      5       7.8548      0.00000
      6       9.3327      0.00000
      7       9.3327      0.00000
      8      12.7441      0.00000
      9      13.0212      0.00000
     10      13.0212      0.00000
     11      14.8165      0.00000
     12      17.6634      0.00000

 k-point     4 :       0.3750    0.0000    0.0000
  band No.  band energies     occupation 
      1      -4.4410      1.00000
      2      -0.1204      1.00000
      3       4.7371      1.00000
      4       4.7371      1.00000
      5       7.4909      0.00000
      6       9.2777      0.00000
      7       9.2777      0.00000
      8      13.7052      0.00000
      9      14.4071      0.00000
     10      14.4071      0.00000
     11      15.5113      0.00000
     12      19.5844      0.00000

 k-point     5 :       0.5000    0.0000   -0.0000
  band No.  band energies     occupation 
      1      -3.8034      1.00000
      2      -1.1423      1.00000
      3       4.6254      1.00000
      4       4.6254      1.00000
      5       7.3628      0.00000
      6       9.1666      0.00000
      7       9.1666      0.00000
      8      13.5497      0.00000
      9      16.3738      0.00000
     10      16.3738      0.00000
     11      17.1683      0.00000
     12      17.1733      0.00000

 k-point     6 :       0.0000    0.1250    0.0000
  band No.  band energies     occupation 
      1      -5.8613      1.00000
      2       4.4894      1.00000
      3       5.0167      1.00000
      4       5.0167      1.00000
      5       7.8387      0.00000
      6       9.5295      0.00000
      7       9.5295      0.00000
      8      10.2254      0.00000
      9      12.3330      0.00000
     10      13.8486      0.00000
     11      14.8635      0.00000
     12      17.5515      0.00000

 k-point     7 :       0.2500    0.1250    0.0000
  band No.  band energies     occupation 
      1      -5.5939      1.00000
      2       3.1409      1.00000
      3       4.1965      1.00000
      4       5.5292      1.00000
      5       8.8708      0.00000
      6       8.9521      0.00000
      7       9.1824      0.00000
      8      11.3757      0.00000
      9      12.1682      0.00000
     10      13.8580      0.00000
     11      15.5816      0.00000
     12      17.0064      0.00000

 k-point     8 :       0.3750    0.1250    0.0000
  band No.  band energies     occupation 
      1      -4.8841      1.00000
      2       1.2005      1.00000
      3       3.5149      1.00000
      4       5.0493      1.00000
      5       8.5456      0.00000
      6       9.5047      0.00000
      7       9.6800      0.00000
      8      12.1235      0.00000
      9      12.2983      0.00000
     10      15.6682      0.00000
     11      15.9015      0.00000
     12      18.2577      0.00000

 k-point     9 :       0.5000    0.1250   -0.0000
  band No.  band energies     occupation 
      1      -3.9612      1.00000
      2      -0.5507      1.00000
      3       3.3641      1.00000
      4       4.5587      1.00000
      5       8.1863      0.00000
      6       9.4476      0.00000
      7       9.6951      0.00000
      8      13.7404      0.00000
      9      13.9209      0.00000
     10      15.0346      0.00000
     11      17.0132      0.00000
     12      18.2731      0.00000

 k-point    10 :      -0.3750    0.1250   -0.0000
  band No.  band energies     occupation 
      1      -3.7167      1.00000
      2      -0.9211      1.00000
      3       3.5456      1.00000
      4       4.2626      1.00000
      5       8.0194      0.00000
      6       9.3398      0.00000
      7       9.9266      0.00000
      8      13.1942      0.00000
      9      14.8187      0.00000
     10      16.3070      0.00000
     11      17.3669      0.00000
     12      17.4785      0.00000

 k-point    11 :      -0.2500    0.1250    0.0000
  band No.  band energies     occupation 
      1      -4.5779      1.00000
      2       0.5416      1.00000
      3       3.9908      1.00000
      4       4.2382      1.00000
      5       8.0724      0.00000
      6       9.4680      0.00000
      7      10.2900      0.00000
      8      11.2914      0.00000
      9      15.1456      0.00000
     10      15.1774      0.00000
     11      15.7781      0.00000
     12      19.2561      0.00000

 k-point    12 :      -0.1250    0.1250   -0.0000
  band No.  band energies     occupation 
      1      -5.3926      1.00000
      2       2.6010      1.00000
      3       4.5059      1.00000
      4       4.5816      1.00000
      5       7.9736      0.00000
      6       9.5355      0.00000
      7      10.2933      0.00000
      8      10.5749      0.00000
      9      13.3312      0.00000
     10      14.0150      0.00000
     11      15.8494      0.00000
     12      17.4147      0.00000

 k-point    13 :       0.0000    0.2500    0.0000
  band No.  band energies     occupation 
      1      -5.0523      1.00000
      2       2.3077      1.00000
      3       3.9355      1.00000
      4       3.9355      1.00000
      5       6.9559      0.00000
      6       8.9584      0.00000
      7      11.5814      0.00000
      8      11.5814      0.00000
      9      13.8906      0.00000
     10      14.7546      0.00000
     11      17.2558      0.00000
     12      18.8424      0.00000

 k-point    14 :       0.5000    0.2500    0.0000
  band No.  band energies     occupation 
      1      -4.0907      1.00000
      2       0.3457      1.00000
      3       2.0744      1.00000
      4       4.4966      1.00000
      5       8.2761      0.00000
      6      10.6172      0.00000
      7      10.9526      0.00000
      8      11.9739      0.00000
      9      12.2704      0.00000
     10      15.4623      0.00000
     11      18.4426      0.00000
     12      19.0229      0.00000

 k-point    15 :      -0.3750    0.2500    0.0000
  band No.  band energies     occupation 
      1      -3.2125      1.00000
      2      -0.8146      1.00000
      3       1.8343      1.00000
      4       3.9389      1.00000
      5       7.6699      0.00000
      6      11.2861      0.00000
      7      11.3063      0.00000
      8      12.7847      0.00000
      9      13.8060      0.00000
     10      13.8437      0.00000
     11      18.4001      0.00000
     12      20.6771      0.00000

 k-point    16 :      -0.2500    0.2500   -0.0000
  band No.  band energies     occupation 
      1      -3.4166      1.00000
      2      -0.5563      1.00000
      3       2.2926      1.00000
      4       3.6209      1.00000
      5       7.3452      0.00000
      6      10.2710      0.00000
      7      11.5705      0.00000
      8      11.7443      0.00000
      9      16.0363      0.00000
     10      16.3621      0.00000
     11      17.9846      0.00000
     12      18.5643      0.00000

 k-point    17 :      -0.1250    0.2500    0.0000
  band No.  band energies     occupation 
      1      -4.3424      1.00000
      2       0.8849      1.00000
      3       3.1556      1.00000
      4       3.6178      1.00000
      5       7.1760      0.00000
      6       8.7193      0.00000
      7      11.8222      0.00000
      8      12.0933      0.00000
      9      15.8044      0.00000
     10      16.0100      0.00000
     11      17.4876      0.00000
     12      19.0367      0.00000

 k-point    18 :       0.0000    0.3750   -0.0000
  band No.  band energies     occupation 
      1      -3.7400      1.00000
      2       0.0805      1.00000
      3       3.2199      1.00000
      4       3.2199      1.00000
      5       6.4402      0.00000
      6       7.3646      0.00000
      7      13.8650      0.00000
      8      13.8650      0.00000
      9      16.2586      0.00000
     10      16.5525      0.00000
     11      18.8398      0.00000
     12      18.8414      0.00000

 k-point    19 :      -0.2500    0.3750    0.0000
  band No.  band energies     occupation 
      1      -2.4044      1.00000
      2      -1.4005      1.00000
      3       1.5258      1.00000
      4       3.4011      1.00000
      5       7.0290      0.00000
      6       9.9517      0.00000
      7      13.2966      0.00000
      8      13.8342      0.00000
      9      14.0635      0.00000
     10      14.3310      0.00000
     11      20.5754      0.00000
     12      20.7163      0.00000

 k-point    20 :      -0.1250    0.3750    0.0000
  band No.  band energies     occupation 
      1      -2.8429      1.00000
      2      -1.0041      1.00000
      3       2.3914      1.00000
      4       3.1438      1.00000
      5       6.7194      0.00000
      6       7.7917      0.00000
      7      14.0910      0.00000
      8      14.1789      0.00000
      9      16.5876      0.00000
     10      16.6311      0.00000
     11      18.1374      0.00000
     12      18.7069      0.00000

 k-point    21 :       0.0000    0.5000    0.0000
  band No.  band energies     occupation 
      1      -1.9905      1.00000
      2      -1.9905      1.00000
      3       2.9745      1.00000
      4       2.9745      1.00000
      5       6.5346      0.00000
      6       6.5346      0.00000
      7      15.9397      0.00000
      8      15.9397      0.00000
      9      16.7956      0.00000
     10      16.7956      0.00000
     11      18.3489      0.00000
     12      18.3506      0.00000

 k-point    22 :       0.3750    0.1250    0.1250
  band No.  band energies     occupation 
      1      -4.8049      1.00000
      2       1.5360      1.00000
      3       3.1132      1.00000
      4       4.3970      1.00000
      5       8.2727      0.00000
      6       9.7299      0.00000
      7      10.0173      0.00000
      8      11.3257      0.00000
      9      13.6149      0.00000
     10      16.0790      0.00000
     11      16.9114      0.00000
     12      17.9339      0.00000

 k-point    23 :       0.5000    0.1250    0.1250
  band No.  band energies     occupation 
      1      -3.9168      1.00000
      2      -0.0152      1.00000
      3       2.5055      1.00000
      4       3.8962      1.00000
      5       8.7023      0.00000
      6       9.3791      0.00000
      7      10.8441      0.00000
      8      11.7600      0.00000
      9      14.8457      0.00000
     10      15.5573      0.00000
     11      17.8233      0.00000
     12      18.7634      0.00000

 k-point    24 :      -0.3750    0.1250    0.1250
  band No.  band energies     occupation 
      1      -3.2647      1.00000
      2      -0.9597      1.00000
      3       2.3767      1.00000
      4       3.6668      1.00000
      5       8.8929      0.00000
      6       8.9561      0.00000
      7      11.7359      0.00000
      8      12.9396      0.00000
      9      13.2223      0.00000
     10      16.4059      0.00000
     11      17.5235      0.00000
     12      18.2281      0.00000

 k-point    25 :      -0.3750    0.2500    0.1250
  band No.  band energies     occupation 
      1      -3.0175      1.00000
      2      -0.7428      1.00000
      3       1.6002      1.00000
      4       3.2423      1.00000
      5       8.6927      0.00000
      6      10.3678      0.00000
      7      11.0397      0.00000
      8      12.8531      0.00000
      9      13.6960      0.00000
     10      15.0725      0.00000
     11      19.9067      0.00000
     12      20.1442      0.00000

 k-point    26 :      -0.2500    0.2500    0.1250
  band No.  band energies     occupation 
      1      -2.6670      1.00000
      2      -1.1059      1.00000
      3       1.7670      1.00000
      4       2.8668      1.00000
      5       8.2129      0.00000
      6      10.1034      0.00000
      7      11.1029      0.00000
      8      13.2644      0.00000
      9      14.2270      0.00000
     10      16.9086      0.00000
     11      18.0527      0.00000
     12      20.1516      0.00000

 k-point    27 :      -0.1250    0.2500    0.1250
  band No.  band energies     occupation 
      1      -3.5414      1.00000
      2      -0.1383      1.00000
      3       2.4648      1.00000
      4       3.0673      1.00000
      5       7.7717      0.00000
      6       8.4708      0.00000
      7      11.5789      0.00000
      8      13.8139      0.00000
      9      16.0024      0.00000
     10      16.0465      0.00000
     11      18.7102      0.00000
     12      19.1458      0.00000

 k-point    28 :      -0.1250    0.3750    0.1250
  band No.  band energies     occupation 
      1      -1.9126      1.00000
      2      -1.9126      1.00000
      3       2.4105      1.00000
      4       2.4105      1.00000
      5       7.7949      0.00000
      6       7.7949      0.00000
      7      13.6713      0.00000
      8      13.6713      0.00000
      9      16.3996      0.00000
     10      16.3996      0.00000
     11      18.7056      0.00000
     12      18.7057      0.00000

 k-point    29 :      -0.2500    0.2500    0.2500
  band No.  band energies     occupation 
      1      -1.8268      1.00000
      2      -1.8268      1.00000
      3       1.9747      1.00000
      4       1.9747      1.00000
      5      10.0903      0.00000
      6      10.0903      0.00000
      7      10.8306      0.00000
      8      10.8306      0.00000
      9      16.4035      0.00000
     10      16.4035      0.00000
     11      18.8656      0.00000
     12      18.8656      0.00000

 spin component 2

 k-point     1 :       0.0000    0.0000    0.0000
  band No.  band energies     occupation 
      1      -6.1324      1.00000
      2       5.8265      1.00000
      3       5.8265      1.00000
      4       5.8265      1.00000
      5       8.3893      0.00000
      6       8.3893      0.00000
      7       8.3893      0.00000
      8       9.1970      0.00000
      9      13.5441      0.00000
     10      13.5441      0.00000
     11      13.7781      0.00000
     12      17.0734      0.00000

 k-point     2 :       0.1250    0.0000   -0.0000
  band No.  band energies     occupation 
      1      -5.9282      1.00000
      2       4.2290      1.00000
      3       5.5379      1.00000
      4       5.5379      1.00000
      5       8.3286      0.00000
      6       8.8136      0.00000
      7       8.8136      0.00000
      8      10.5409      0.00000
      9      13.0621      0.00000
     10      13.0621      0.00000
     11      14.5653      0.00000
     12      16.5134      0.00000

 k-point     3 :       0.2500    0.0000   -0.0000
  band No.  band energies     occupation 
      1      -5.3326      1.00000
      2       1.9013      1.00000
      3       5.0677      1.00000
      4       5.0677      1.00000
      5       7.8551      0.00000
      6       9.3311      0.00000
      7       9.3311      0.00000
      8      12.7468      0.00000
      9      13.0189      0.00000
     10      13.0189      0.00000
     11      14.8157      0.00000
     12      17.6647      0.00000

 k-point     4 :       0.3750    0.0000    0.0000
  band No.  band energies     occupation 
      1      -4.4387      1.00000
      2      -0.1185      1.00000
      3       4.7411      1.00000
      4       4.7411      1.00000
      5       7.4915      0.00000
      6       9.2753      0.00000
      7       9.2753      0.00000
      8      13.7037      0.00000
      9      14.4057      0.00000
     10      14.4057      0.00000
     11      15.5148      0.00000
     12      19.5836      0.00000

 k-point     5 :       0.5000    0.0000   -0.0000
  band No.  band energies     occupation 
      1      -3.8007      1.00000
      2      -1.1410      1.00000
      3       4.6294      1.00000
      4       4.6294      1.00000
      5       7.3635      0.00000
      6       9.1639      0.00000
      7       9.1639      0.00000
      8      13.5479      0.00000
      9      16.3728      0.00000
     10      16.3728      0.00000
     11      17.1675      0.00000
     12      17.1785      0.00000

 k-point     6 :       0.0000    0.1250    0.0000
  band No.  band energies     occupation 
      1      -5.8594      1.00000
      2       4.4942      1.00000
      3       5.0204      1.00000
      4       5.0204      1.00000
      5       7.8369      0.00000
      6       9.5293      0.00000
      7       9.5293      0.00000
      8      10.2272      0.00000
      9      12.3311      0.00000
     10      13.8467      0.00000
     11      14.8659      0.00000
     12      17.5461      0.00000

 k-point     7 :       0.2500    0.1250    0.0000
  band No.  band energies     occupation 
      1      -5.5920      1.00000
      2       3.1444      1.00000
      3       4.1988      1.00000
      4       5.5344      1.00000
      5       8.8699      0.00000
      6       8.9500      0.00000
      7       9.1839      0.00000
      8      11.3767      0.00000
      9      12.1654      0.00000
     10      13.8573      0.00000
     11      15.5834      0.00000
     12      17.0043      0.00000

 k-point     8 :       0.3750    0.1250    0.0000
  band No.  band energies     occupation 
      1      -4.8820      1.00000
      2       1.2031      1.00000
      3       3.5171      1.00000
      4       5.0537      1.00000
      5       8.5455      0.00000
      6       9.5025      0.00000
      7       9.6804      0.00000
      8      12.1238      0.00000
      9      12.2962      0.00000
     10      15.6679      0.00000
     11      15.9020      0.00000
     12      18.2577      0.00000

 k-point     9 :       0.5000    0.1250   -0.0000
  band No.  band energies     occupation 
      1      -3.9586      1.00000
      2      -0.5488      1.00000
      3       3.3665      1.00000
      4       4.5624      1.00000
      5       8.1861      0.00000
      6       9.4472      0.00000
      7       9.6927      0.00000
      8      13.7403      0.00000
      9      13.9197      0.00000
     10      15.0347      0.00000
     11      17.0125      0.00000
     12      18.2749      0.00000

 k-point    10 :      -0.3750    0.1250   -0.0000
  band No.  band energies     occupation 
      1      -3.7140      1.00000
      2      -0.9195      1.00000
      3       3.5482      1.00000
      4       4.2659      1.00000
      5       8.0189      0.00000
      6       9.3393      0.00000
      7       9.9246      0.00000
      8      13.1936      0.00000
      9      14.8177      0.00000
     10      16.3060      0.00000
     11      17.3688      0.00000
     12      17.4778      0.00000

 k-point    11 :      -0.2500    0.1250    0.0000
  band No.  band energies     occupation 
      1      -4.5756      1.00000
      2       0.5439      1.00000
      3       3.9938      1.00000
      4       4.2413      1.00000
      5       8.0719      0.00000
      6       9.4675      0.00000
      7      10.2888      0.00000
      8      11.2906      0.00000
      9      15.1443      0.00000
     10      15.1759      0.00000
     11      15.7807      0.00000
     12      19.2380      0.00000

 k-point    12 :      -0.1250    0.1250   -0.0000
  band No.  band energies     occupation 
      1      -5.3907      1.00000
      2       2.6043      1.00000
      3       4.5091      1.00000
      4       4.5851      1.00000
      5       7.9728      0.00000
      6       9.5355      0.00000
      7      10.2933      0.00000
      8      10.5735      0.00000
      9      13.3328      0.00000
     10      14.0130      0.00000
     11      15.8498      0.00000
     12      17.4140      0.00000

 k-point    13 :       0.0000    0.2500    0.0000
  band No.  band energies     occupation 
      1      -5.0503      1.00000
      2       2.3119      1.00000
      3       3.9381      1.00000
      4       3.9381      1.00000
      5       6.9543      0.00000
      6       8.9561      0.00000
      7      11.5822      0.00000
      8      11.5822      0.00000
      9      13.8932      0.00000
     10      14.7528      0.00000
     11      17.2585      0.00000
     12      18.8359      0.00000

 k-point    14 :       0.5000    0.2500    0.0000
  band No.  band energies     occupation 
      1      -4.0883      1.00000
      2       0.3488      1.00000
      3       2.0752      1.00000
      4       4.5002      1.00000
      5       8.2744      0.00000
      6      10.6152      0.00000
      7      10.9557      0.00000
      8      11.9736      0.00000
      9      12.2688      0.00000
     10      15.4620      0.00000
     11      18.4432      0.00000
     12      19.0295      0.00000

 k-point    15 :      -0.3750    0.2500    0.0000
  band No.  band energies     occupation 
      1      -3.2097      1.00000
      2      -0.8121      1.00000
      3       1.8352      1.00000
      4       3.9418      1.00000
      5       7.6680      0.00000
      6      11.2884      0.00000
      7      11.3046      0.00000
      8      12.7844      0.00000
      9      13.8050      0.00000
     10      13.8443      0.00000
     11      18.3991      0.00000
     12      20.7872      0.00000

 k-point    16 :      -0.2500    0.2500   -0.0000
  band No.  band energies     occupation 
      1      -3.4140      1.00000
      2      -0.5536      1.00000
      3       2.2938      1.00000
      4       3.6235      1.00000
      5       7.3434      0.00000
      6      10.2708      0.00000
      7      11.5715      0.00000
      8      11.7432      0.00000
      9      16.0368      0.00000
     10      16.3614      0.00000
     11      17.9833      0.00000
     12      18.5584      0.00000

 k-point    17 :      -0.1250    0.2500    0.0000
  band No.  band energies     occupation 
      1      -4.3402      1.00000
      2       0.8884      1.00000
      3       3.1574      1.00000
      4       3.6202      1.00000
      5       7.1746      0.00000
      6       8.7175      0.00000
      7      11.8233      0.00000
      8      12.0934      0.00000
      9      15.8031      0.00000
     10      16.0126      0.00000
     11      17.4879      0.00000
     12      19.0346      0.00000

 k-point    18 :       0.0000    0.3750   -0.0000
  band No.  band energies     occupation 
      1      -3.7376      1.00000
      2       0.0840      1.00000
      3       3.2221      1.00000
      4       3.2221      1.00000
      5       6.4385      0.00000
      6       7.3622      0.00000
      7      13.8658      0.00000
      8      13.8658      0.00000
      9      16.2568      0.00000
     10      16.5559      0.00000
     11      18.8392      0.00000
     12      18.8393      0.00000

 k-point    19 :      -0.2500    0.3750    0.0000
  band No.  band energies     occupation 
      1      -2.4013      1.00000
      2      -1.3976      1.00000
      3       1.5261      1.00000
      4       3.4035      1.00000
      5       7.0270      0.00000
      6       9.9516      0.00000
      7      13.2950      0.00000
      8      13.8368      0.00000
      9      14.0635      0.00000
     10      14.3308      0.00000
     11      20.5763      0.00000
     12      20.7128      0.00000

 k-point    20 :      -0.1250    0.3750    0.0000
  band No.  band energies     occupation 
      1      -2.8402      1.00000
      2      -1.0009      1.00000
      3       2.3925      1.00000
      4       3.1460      1.00000
      5       6.7175      0.00000
      6       7.7905      0.00000
      7      14.0905      0.00000
      8      14.1801      0.00000
      9      16.5888      0.00000
     10      16.6310      0.00000
     11      18.1367      0.00000
     12      18.7104      0.00000

 k-point    21 :       0.0000    0.5000    0.0000
  band No.  band energies     occupation 
      1      -1.9876      1.00000
      2      -1.9876      1.00000
      3       2.9766      1.00000
      4       2.9766      1.00000
      5       6.5325      0.00000
      6       6.5325      0.00000
      7      15.9391      0.00000
      8      15.9391      0.00000
      9      16.7976      0.00000
     10      16.7976      0.00000
     11      18.3502      0.00000
     12      18.4807      0.00000

 k-point    22 :       0.3750    0.1250    0.1250
  band No.  band energies     occupation 
      1      -4.8028      1.00000
      2       1.5395      1.00000
      3       3.1148      1.00000
      4       4.4002      1.00000
      5       8.2721      0.00000
      6       9.7289      0.00000
      7      10.0164      0.00000
      8      11.3266      0.00000
      9      13.6142      0.00000
     10      16.0803      0.00000
     11      16.9118      0.00000
     12      17.9324      0.00000

 k-point    23 :       0.5000    0.1250    0.1250
  band No.  band energies     occupation 
      1      -3.9144      1.00000
      2      -0.0124      1.00000
      3       2.5070      1.00000
      4       3.8987      1.00000
      5       8.7016      0.00000
      6       9.3785      0.00000
      7      10.8432      0.00000
      8      11.7605      0.00000
      9      14.8454      0.00000
     10      15.5571      0.00000
     11      17.8223      0.00000
     12      18.7650      0.00000

 k-point    24 :      -0.3750    0.1250    0.1250
  band No.  band energies     occupation 
      1      -3.2619      1.00000
      2      -0.9576      1.00000
      3       2.3783      1.00000
      4       3.6691      1.00000
      5       8.8926      0.00000
      6       8.9550      0.00000
      7      11.7360      0.00000
      8      12.9402      0.00000
      9      13.2213      0.00000
     10      16.4048      0.00000
     11      17.5244      0.00000
     12      18.2282      0.00000

 k-point    25 :      -0.3750    0.2500    0.1250
  band No.  band energies     occupation 
      1      -3.0147      1.00000
      2      -0.7397      1.00000
      3       1.6006      1.00000
      4       3.2441      1.00000
      5       8.6919      0.00000
      6      10.3681      0.00000
      7      11.0389      0.00000
      8      12.8531      0.00000
      9      13.6967      0.00000
     10      15.0724      0.00000
     11      19.9105      0.00000
     12      20.1723      0.00000

 k-point    26 :      -0.2500    0.2500    0.1250
  band No.  band energies     occupation 
      1      -2.6640      1.00000
      2      -1.1029      1.00000
      3       1.7676      1.00000
      4       2.8682      1.00000
      5       8.2119      0.00000
      6      10.1036      0.00000
      7      11.1022      0.00000
      8      13.2641      0.00000
      9      14.2280      0.00000
     10      16.9089      0.00000
     11      18.0535      0.00000
     12      20.1540      0.00000

 k-point    27 :      -0.1250    0.2500    0.1250
  band No.  band energies     occupation 
      1      -3.5390      1.00000
      2      -0.1349      1.00000
      3       2.4659      1.00000
      4       3.0690      1.00000
      5       7.7710      0.00000
      6       8.4693      0.00000
      7      11.5790      0.00000
      8      13.8149      0.00000
      9      16.0024      0.00000
     10      16.0468      0.00000
     11      18.7122      0.00000
     12      19.1534      0.00000

 k-point    28 :      -0.1250    0.3750    0.1250
  band No.  band energies     occupation 
      1      -1.9096      1.00000
      2      -1.9096      1.00000
      3       2.4116      1.00000
      4       2.4116      1.00000
      5       7.7939      0.00000
      6       7.7939      0.00000
      7      13.6712      0.00000
      8      13.6712      0.00000
      9      16.4007      0.00000
     10      16.4007      0.00000
     11      18.7064      0.00000
     12      18.7064      0.00000

 k-point    29 :      -0.2500    0.2500    0.2500
  band No.  band energies     occupation 
      1      -1.8236      1.00000
      2      -1.8236      1.00000
      3       1.9753      1.00000
      4       1.9753      1.00000
      5      10.0910      0.00000
      6      10.0910      0.00000
      7      10.8292      0.00000
      8      10.8292      0.00000
      9      16.4046      0.00000
     10      16.4046      0.00000
     11      18.8661      0.00000
     12      18.8661      0.00000


--------------------------------------------------------------------------------------------------------


 soft charge-density along one line, spin component           1
         0         1         2         3         4         5         6         7         8         9
 total charge-density along one line
 
 soft charge-density along one line, spin component           2
         0         1         2         3         4         5         6         7         8         9
 total charge-density along one line
 
 pseudopotential strength for first ion, spin component:           1
 18.413  -0.001   0.000   0.000   0.000  -0.000  -0.000  -0.000
 -0.001   0.006  -0.000  -0.000  -0.000   0.000   0.000   0.000
  0.000  -0.000   4.178  -0.000  -0.000  -0.005   0.000   0.000
  0.000  -0.000  -0.000   4.178  -0.000   0.000  -0.005   0.000
  0.000  -0.000  -0.000  -0.000   4.178   0.000   0.000  -0.005
 -0.000   0.000  -0.005   0.000   0.000   0.005   0.000  -0.000
[...]
      8      13.4408      0.00000
      9      13.6719      0.00000
     10      14.7481      0.00000
     11      16.6897      0.00000
     12      17.8938      0.00000

 k-point    10 :      -0.3750    0.1250   -0.0000
  band No.  band energies     occupation 
      1      -3.8334      1.00000
      2      -1.0424      1.00000
      3       3.3694      1.00000
      4       4.0830      1.00000
      5       7.7769      0.00000
      6       9.1025      0.00000
      7       9.7072      0.00000
      8      12.9179      0.00000
      9      14.5570      0.00000
     10      16.0294      0.00000
     11      17.0144      0.00000
     12      17.1506      0.00000

 k-point    11 :      -0.2500    0.1250    0.0000
  band No.  band energies     occupation 
      1      -4.6721      1.00000
      2       0.3876      1.00000
      3       3.8063      1.00000
      4       4.0610      1.00000
      5       7.8421      0.00000
      6       9.2061      0.00000
      7      10.0551      0.00000
      8      11.0532      0.00000
      9      14.8825      0.00000
     10      14.8943      0.00000
     11      15.4031      0.00000
     12      18.8851      0.00000

 k-point    12 :      -0.1250    0.1250   -0.0000
  band No.  band energies     occupation 
      1      -5.4704      1.00000
      2       2.4089      1.00000
      3       4.3259      1.00000
      4       4.3895      1.00000
      5       7.7592      0.00000
      6       9.2380      0.00000
      7      10.0408      0.00000
      8      10.3526      0.00000
      9      12.9729      0.00000
     10      13.7817      0.00000
     11      15.5490      0.00000
     12      17.1105      0.00000

 k-point    13 :       0.0000    0.2500    0.0000
  band No.  band energies     occupation 
      1      -5.1361      1.00000
      2       2.0960      1.00000
      3       3.7663      1.00000
      4       3.7663      1.00000
      5       6.7661      0.00000
      6       8.7499      0.00000
      7      11.3027      0.00000
      8      11.3027      0.00000
      9      13.4802      0.00000
     10      14.5135      0.00000
     11      16.9146      0.00000
     12      18.5298      0.00000

 k-point    14 :       0.5000    0.2500    0.0000
  band No.  band energies     occupation 
      1      -4.1948      1.00000
      2       0.1756      1.00000
      3       1.9464      1.00000
      4       4.3125      1.00000
      5       8.0518      0.00000
      6      10.3620      0.00000
      7      10.6972      0.00000
      8      11.6543      0.00000
      9      12.0677      0.00000
     10      15.1344      0.00000
     11      18.1071      0.00000
     12      18.6421      0.00000

 k-point    15 :      -0.3750    0.2500    0.0000
  band No.  band energies     occupation 
      1      -3.3380      1.00000
      2      -0.9581      1.00000
      3       1.7057      1.00000
      4       3.7664      1.00000
      5       7.4703      0.00000
      6      11.0150      0.00000
      7      11.0559      0.00000
      8      12.4967      0.00000
      9      13.5056      0.00000
     10      13.5610      0.00000
     11      18.0918      0.00000
     12      20.3050      0.00000

 k-point    16 :      -0.2500    0.2500   -0.0000
  band No.  band energies     occupation 
      1      -3.5351      1.00000
      2      -0.7083      1.00000
      3       2.1529      1.00000
      4       3.4553      1.00000
      5       7.1564      0.00000
      6      10.0459      0.00000
      7      11.2592      0.00000
      8      11.4902      0.00000
      9      15.6990      0.00000
     10      16.0732      0.00000
     11      17.6614      0.00000
     12      18.1331      0.00000

 k-point    17 :      -0.1250    0.2500    0.0000
  band No.  band energies     occupation 
      1      -4.4397      1.00000
      2       0.6996      1.00000
      3       3.0006      1.00000
      4       3.4534      1.00000
      5       6.9855      0.00000
      6       8.5174      0.00000
      7      11.5216      0.00000
      8      11.8201      0.00000
      9      15.5364      0.00000
     10      15.5821      0.00000
     11      17.1603      0.00000
     12      18.6981      0.00000

 k-point    18 :       0.0000    0.3750   -0.0000
  band No.  band energies     occupation 
      1      -3.8479      1.00000
      2      -0.0973      1.00000
      3       3.0624      1.00000
      4       3.0624      1.00000
      5       6.2652      0.00000
      6       7.1906      0.00000
      7      13.5498      0.00000
      8      13.5498      0.00000
      9      15.9956      0.00000
     10      16.0937      0.00000
     11      18.4962      0.00000
     12      18.4963      0.00000

 k-point    19 :      -0.2500    0.3750    0.0000
  band No.  band energies     occupation 
      1      -2.5458      1.00000
      2      -1.5487      1.00000
      3       1.4153      1.00000
      4       3.2394      1.00000
      5       6.8489      0.00000
      6       9.7262      0.00000
      7      12.9934      0.00000
      8      13.5293      0.00000
      9      13.6949      0.00000
     10      14.0938      0.00000
     11      20.1131      0.00000
     12      20.3776      0.00000

 k-point    20 :      -0.1250    0.3750    0.0000
  band No.  band energies     occupation 
      1      -2.9688      1.00000
      2      -1.1636      1.00000
      3       2.2572      1.00000
      4       2.9872      1.00000
      5       6.5457      0.00000
      6       7.5996      0.00000
      7      13.7870      0.00000
      8      13.8426      0.00000
      9      16.2307      0.00000
     10      16.3320      0.00000
     11      17.8284      0.00000
     12      18.2491      0.00000

 k-point    21 :       0.0000    0.5000    0.0000
  band No.  band energies     occupation 
      1      -2.1309      1.00000
      2      -2.1309      1.00000
      3       2.8210      1.00000
      4       2.8210      1.00000
      5       6.3664      0.00000
      6       6.3664      0.00000
      7      15.5479      0.00000
      8      15.5479      0.00000
      9      16.5200      0.00000
     10      16.5200      0.00000
     11      18.0552      0.00000
     12      18.0554      0.00000

 k-point    22 :       0.3750    0.1250    0.1250
  band No.  band energies     occupation 
      1      -4.8938      1.00000
      2       1.3465      1.00000
      3       2.9631      1.00000
      4       4.2146      1.00000
      5       8.0574      0.00000
      6       9.4403      0.00000
      7       9.8174      0.00000
      8      11.0543      0.00000
      9      13.3261      0.00000
     10      15.7177      0.00000
     11      16.5780      0.00000
     12      17.6462      0.00000

 k-point    23 :       0.5000    0.1250    0.1250
  band No.  band energies     occupation 
      1      -4.0246      1.00000
      2      -0.1726      1.00000
      3       2.3592      1.00000
      4       3.7274      1.00000
      5       8.4785      0.00000
      6       9.1438      0.00000
      7      10.5915      0.00000
      8      11.4919      0.00000
      9      14.5439      0.00000
     10      15.2400      0.00000
     11      17.5159      0.00000
     12      18.3611      0.00000

 k-point    24 :      -0.3750    0.1250    0.1250
  band No.  band energies     occupation 
      1      -3.3907      1.00000
      2      -1.0918      1.00000
      3       2.2278      1.00000
      4       3.5044      1.00000
      5       8.6375      0.00000
      6       8.7608      0.00000
      7      11.4602      0.00000
      8      12.6799      0.00000
      9      12.9204      0.00000
     10      16.1212      0.00000
     11      17.1659      0.00000
     12      17.8875      0.00000

 k-point    25 :      -0.3750    0.2500    0.1250
  band No.  band energies     occupation 
      1      -3.1449      1.00000
      2      -0.9030      1.00000
      3       1.4853      1.00000
      4       3.0899      1.00000
      5       8.4789      0.00000
      6      10.1285      0.00000
      7      10.7798      0.00000
      8      12.5766      0.00000
      9      13.3792      0.00000
     10      14.7597      0.00000
     11      19.5490      0.00000
     12      19.7537      0.00000

 k-point    26 :      -0.2500    0.2500    0.1250
  band No.  band energies     occupation 
      1      -2.8013      1.00000
      2      -1.2608      1.00000
      3       1.6476      1.00000
      4       2.7234      1.00000
      5       8.0096      0.00000
      6       9.8832      0.00000
      7      10.8261      0.00000
      8      12.9651      0.00000
      9      13.9210      0.00000
     10      16.5730      0.00000
     11      17.6845      0.00000
     12      19.7991      0.00000

 k-point    27 :      -0.1250    0.2500    0.1250
  band No.  band energies     occupation 
      1      -3.6546      1.00000
      2      -0.3125      1.00000
      3       2.3275      1.00000
      4       2.9193      1.00000
      5       7.5703      0.00000
      6       8.2733      0.00000
      7      11.2985      0.00000
      8      13.5012      0.00000
      9      15.6683      0.00000
     10      15.7229      0.00000
     11      18.2965      0.00000
     12      18.8005      0.00000

 k-point    28 :      -0.1250    0.3750    0.1250
  band No.  band energies     occupation 
      1      -2.0572      1.00000
      2      -2.0572      1.00000
      3       2.2762      1.00000
      4       2.2762      1.00000
      5       7.6006      0.00000
      6       7.6006      0.00000
      7      13.3648      0.00000
      8      13.3648      0.00000
      9      16.0663      0.00000
     10      16.0663      0.00000
     11      18.3331      0.00000
     12      18.3331      0.00000

 k-point    29 :      -0.2500    0.2500    0.2500
  band No.  band energies     occupation 
      1      -1.9765      1.00000
      2      -1.9764      1.00000
      3       1.8545      1.00000
      4       1.8545      1.00000
      5       9.8846      0.00000
      6       9.8846      0.00000
      7      10.5447      0.00000
      8      10.5448      0.00000
      9      16.0640      0.00000
     10      16.0640      0.00000
     11      18.4824      0.00000
     12      18.4824      0.00000


--------------------------------------------------------------------------------------------------------


 soft charge-density along one line, spin component           1
         0         1         2         3         4         5         6         7         8         9
 total charge-density along one line
 
 soft charge-density along one line, spin component           2
         0         1         2         3         4         5         6         7         8         9
 total charge-density along one line
 
 pseudopotential strength for first ion, spin component:           1
 18.436  -0.001   0.000   0.000   0.000  -0.000  -0.000  -0.000
 -0.001   0.006  -0.000  -0.000  -0.000   0.000   0.000   0.000
  0.000  -0.000   4.180   0.000  -0.000  -0.004  -0.000   0.000
  0.000  -0.000   0.000   4.180  -0.000  -0.000  -0.004   0.000
  0.000  -0.000  -0.000  -0.000   4.180   0.000   0.000  -0.004
 -0.000   0.000  -0.004  -0.000   0.000   0.005   0.000  -0.000
 -0.000   0.000  -0.000  -0.004   0.000   0.000   0.005  -0.000
 -0.000   0.000   0.000   0.000  -0.004  -0.000  -0.000   0.005
 pseudopotential strength for first ion, spin component:           2
 18.438  -0.001   0.000  -0.000  -0.000  -0.000   0.000   0.000
 -0.001   0.006  -0.000   0.000   0.000   0.000  -0.000  -0.000
  0.000  -0.000   4.181  -0.000  -0.000  -0.004   0.000   0.000
 -0.000   0.000  -0.000   4.181   0.000   0.000  -0.004  -0.000
 -0.000   0.000  -0.000   0.000   4.181   0.000  -0.000  -0.004
 -0.000   0.000  -0.004   0.000   0.000   0.005   0.000  -0.000
  0.000  -0.000   0.000  -0.004  -0.000   0.000   0.005   0.000
  0.000  -0.000   0.000  -0.000  -0.004  -0.000   0.000   0.005
 total augmentation occupancy for first ion, spin component:           1
  1.494  -0.762  -0.000   0.000   0.000   0.000  -0.000  -0.000
 -0.762   0.748   0.000   0.000   0.000   0.000  -0.000  -0.000
 -0.000   0.000   1.017   0.000   0.000  -0.548  -0.000  -0.000
  0.000   0.000   0.000   1.017   0.000  -0.000  -0.548  -0.000
  0.000   0.000   0.000   0.000   1.017  -0.000  -0.000  -0.548
  0.000   0.000  -0.548  -0.000  -0.000   0.350   0.000   0.000
 -0.000  -0.000  -0.000  -0.548  -0.000   0.000   0.350   0.000
 -0.000   0.000  -0.000  -0.000  -0.548   0.000   0.000   0.350
 total augmentation occupancy for first ion, spin component:           2
 -0.000  -0.000  -0.000   0.000  -0.000  -0.000  -0.000  -0.000
 -0.000   0.000   0.000  -0.000  -0.000   0.000   0.000   0.000
 -0.000   0.000  -0.000  -0.000  -0.000  -0.000  -0.000  -0.000
  0.000  -0.000  -0.000  -0.000  -0.000  -0.000  -0.000  -0.000
 -0.000  -0.000  -0.000  -0.000  -0.000  -0.000  -0.000  -0.000
  0.000   0.000  -0.000  -0.000  -0.000   0.000   0.000   0.000
 -0.000  -0.000  -0.000  -0.000  -0.000   0.000   0.000   0.000
 -0.000   0.000  -0.000  -0.000  -0.000   0.000   0.000   0.000


------------------------ aborting loop because EDIFF is reached ----------------------------------------


 


 total charge     
 
# of ion     s       p       d       tot
----------------------------------------
  1        0.750   0.928   0.000   1.679
  2        0.750   0.928   0.000   1.679
------------------------------------------------
tot        1.501   1.857   0.000   3.358
 


 magnetization (x)
 
# of ion     s       p       d       tot
----------------------------------------
  1        0.000   0.000   0.000   0.000
  2        0.000   0.000   0.000   0.000
------------------------------------------------
tot        0.000   0.000   0.000   0.000
 
    CHARGE:  cpu time    0.0130: real time    0.0141
    FORLOC:  cpu time    0.0010: real time    0.0004
    FORNL :  cpu time    0.0820: real time    0.0817
    STRESS:  cpu time    0.2450: real time    0.2455
    FORCOR:  cpu time    0.0200: real time    0.0201
    FORHAR:  cpu time    0.0020: real time    0.0023
    MIXING:  cpu time    0.0010: real time    0.0005
    OFIELD:  cpu time    0.0000: real time    0.0000

  FORCE on cell =-STRESS in cart. coord.  units (eV):
  Direction    XX          YY          ZZ          XY          YZ          ZX
  --------------------------------------------------------------------------------------
  Alpha Z     3.29203     3.29203     3.29203
  Ewald     -75.63960   -75.63954   -75.63957     0.00000     0.00002     0.00000
  Hartree     5.06319     5.06319     5.06319     0.00000     0.00001     0.00000
  E(xc)     -25.24643   -25.24643   -25.24643     0.00000     0.00000     0.00000
  Local     -29.52146   -29.52152   -29.52150     0.00000    -0.00004     0.00000
  n-local    76.54131    76.88465    78.88151     1.26672    -3.50694     0.06123
  augment   -11.64176   -11.64176   -11.64175    -0.00000     0.00000    -0.00000
  Kinetic    53.92847    56.53208    58.30781     0.55941    -2.75025     1.78372
  Fock        0.00000     0.00000     0.00000     0.00000     0.00000     0.00000
  -------------------------------------------------------------------------------------
  Total      -0.00209    -0.00209    -0.00209    -0.00000    -0.00000    -0.00000
  in kB      -0.08173    -0.08173    -0.08173    -0.00000    -0.00000    -0.00000
  external pressure =       -0.08 kB  Pullay stress =        0.00 kB


 VOLUME and BASIS-vectors are now :
 -----------------------------------------------------------------------------
  energy-cutoff  :      520.00
  volume of cell :       40.90
      direct lattice vectors                 reciprocal lattice vectors
     3.867422090  0.000000000  0.000000000     0.258570173 -0.149285514 -0.105560720
     1.933711045  3.349286774  0.000000015    -0.000000000  0.298571028  0.211121439
    -0.000000000 -2.232855821  3.157737376    -0.000000000 -0.000000001  0.316682446

  length of vectors
     3.867422090  3.867422954  3.867421681     0.316682435  0.365673244  0.316682446


 FORCES acting on ions
    electron-ion (+dipol)            ewald-force                    non-local-force                 convergence-correction
 -----------------------------------------------------------------------------------------------
   -.590E-08 0.592E-05 -.503E-07   0.103E-13 -.101E-04 0.757E-07   -.278E-16 -.173E-16 -.486E-16   -.551E-09 0.915E-09 -.454E-09
   0.590E-08 -.592E-05 0.503E-07   -.104E-13 0.101E-04 -.757E-07   0.486E-16 0.347E-17 0.173E-16   0.551E-09 -.915E-09 0.454E-09
 -----------------------------------------------------------------------------------------------
   -.847E-13 -.211E-13 0.103E-12   -.290E-16 0.223E-15 0.102E-15   0.208E-16 -.139E-16 -.312E-16   0.585E-15 0.170E-14 -.318E-14
 
 
 POSITION                                       TOTAL-FORCE (eV/Angst)
 -----------------------------------------------------------------------------------
     -0.00000     -0.00000     -0.00000        -0.000000      0.000000     -0.000000
      3.86742      0.00000      2.36830         0.000000     -0.000000      0.000000
 -----------------------------------------------------------------------------------
    total drift:                               -0.000000     -0.000000      0.000000


--------------------------------------------------------------------------------------------------------



  FREE ENERGIE OF THE ION-ELECTRON SYSTEM (eV)
  ---------------------------------------------------
  free  energy   TOTEN  =       -10.84671647 eV

  energy  without entropy=      -10.84671647  energy(sigma->0) =      -10.84671647
 
 d Force = 0.0000000E+00[ 0.000E+00, 0.000E+00]  d Energy = 0.2348965E-02-0.235E-02
 d Force = 0.0000000E+00[ 0.000E+00, 0.000E+00]  d Ewald  = 0.1067669E+01-0.107E+01


--------------------------------------------------------------------------------------------------------


    POTLOK:  cpu time    0.0250: real time    0.0252


--------------------------------------------------------------------------------------------------------




--------------------------------------------------------------------------------------------------------


  
 reached required accuracy - stopping structural energy minimisation
     LOOP+:  cpu time    1.4118: real time    1.4193
    4ORBIT:  cpu time    0.0000: real time    0.0005
 


 total charge     
 
# of ion     s       p       d       tot
----------------------------------------
  1        0.750   0.928   0.000   1.679
  2        0.750   0.928   0.000   1.679
------------------------------------------------
tot        1.501   1.857   0.000   3.358
 


 magnetization (x)
 
# of ion     s       p       d       tot
----------------------------------------
  1        0.000   0.000   0.000   0.000
  2        0.000   0.000   0.000   0.000
------------------------------------------------
tot        0.000   0.000   0.000   0.000
 
 BZINTS: Fermi energy:  5.633449;  8.000000 electrons
         Band energy:   4.913131;  BLOECHL correction:  0.000000

 total amount of memory used by VASP on root node    33533. kBytes
========================================================================

   base      :      30000. kBytes
   nonlr-proj:        379. kBytes
   fftplans  :        700. kBytes
   grid      :       1647. kBytes
   one-center:          6. kBytes
   wavefun   :        801. kBytes
 
  
  
 General timing and accounting informations for this job:
 ========================================================
  
                  Total CPU time used (sec):        7.981
                            User time (sec):        7.710
                          System time (sec):        0.271
                         Elapsed time (sec):        8.552
  
                   Maximum memory used (kb):       29160.
                   Average memory used (kb):           0.
  
                          Minor page faults:         8523
                          Major page faults:            0
                 Voluntary context switches:        27636
