srun --cpu_bind=cores --ntasks=16 --nodes=1-1 --cpus-per-task 4 --nodelist nid01268 /global/project/projectdirs/jcesr/qchem/qc5.x/qc5.0.1/dist/exe/qcprog.cori.haswell.exe .pt_trip_wb97mv_0.0.in.48432.qcin.1 /global/cscratch1/sd/bwood/qchem/chain_dp/qchem48432/

Process 5 of 16 is on nid01268 - thread support 0
Process 1 of 16 is on nid01268 - thread support 0
Process 15 of 16 is on nid01268 - thread support 0
Process 3 of 16 is on nid01268 - thread support 0
Process 2 of 16 is on nid01268 - thread support 0
Process 4 of 16 is on nid01268 - thread support 0
Process 6 of 16 is on nid01268 - thread support 0
Process 0 of 16 is on nid01268 - thread support 0
initial socket setup ...start
initial socket setup ...done 
now start server 0 ... 
nid01268 10.128.4
Q-Chem Developer Version! Running on 10.128.4.*
                  Welcome to Q-Chem
     A Quantum Leap Into The Future Of Chemistry


 Q-Chem 5.0, Q-Chem, Inc., Pleasanton, CA (2017)

 Yihan Shao,  Zhengting Gan,  E. Epifanovsky,  A. T. B. Gilbert,  M. Wormit,  
 J. Kussmann,  A. W. Lange,  A. Behn,  Jia Deng,  Xintian Feng,  D. Ghosh,  
 M. Goldey,  P. R. Horn,  L. D. Jacobson,  I. Kaliman,  T. Kus,  A. Landau,  
 Jie Liu,  E. I. Proynov,  R. M. Richard,  R. P. Steele,  E. J. Sundstrom,  
 H. L. Woodcock III,  P. M. Zimmerman,  D. Zuev,  B. Albrecht,  E. Alguire,  
 S. A. Baeppler,  Z. Benda,  Y. A. Bernard,  E. J. Berquist,  K. B. Bravaya,  
 D. Casanova,  Chun-Min Chang,  Yunqing Chen,  A. Chien,  K. D. Closser,  
 M. P. Coons,  S. Dasgupta,  M. Diedenhofen,  Hainam Do,  R. G. Edgar,  
 Po-Tung Fang,  S. Fatehi,  Qingguo Feng,  Qinghui Ge,  A. Ghysels,  
 J. Gomes,  J. Gonthier,  A. Gunina,  M. W. D. Hanson-Heine,  
 P. H. P. Harbach,  A. W. Hauser,  J. E. Herr,  E. G. Hohenstein,  
 Z. C. Holden,  Kerwin Hui,  T.-C. Jagau,  Hyunjun Ji,  B. Kaduk,  
 K. Khistyaev,  Jaehoon Kim,  P. Klunzinger,  K. Koh,  D. Kosenkov,  
 T. Kowalczyk,  C. M. Krauter,  A. Kunitsa,  Ka Un Lao,  A. Laurent,  
 K. V. Lawler,  Joonho Lee,  D. Lefrancois,  S. Lehtola,  D. S. Levine,  
 Yi-Pei Li,  You-Sheng Lin,  Fenglai Liu,  E. Livshits,  A. Luenser,  
 P. Manohar,  E. Mansoor,  S. F. Manzer,  Shan-Ping Mao,  Yuezhi Mao,  
 N. Mardirossian,  A. V. Marenich,  L. A. Martinez-Martinez,  S. A. Maurer,  
 N. J. Mayhall,  S. C. McKenzie,  J.-M. Mewes,  A. F. Morrison,  K. Nanda,  
 T. S. Nguyen-Beck,  R. Olivares-Amaya,  J. A. Parkhill,  T. M. Perrine,  
 F. Plasser,  S. Prager,  A. Prociuk,  D. R. Rehn,  F. Rob,  M. Schneider,  
 N. Sergueev,  S. M. Sharada,  S. Sharma,  D. W. Small,  T. Stauch,  
 T. Stein,  Yu-Chuan Su,  A. J. W. Thom,  T. Tsuchimochi,  L. Vogt,  
 O. Vydrov,  M. A. Watson,  J. Wenzel,  M. de Wergifosse,  T. A. Wesolowski,  
 A. White,  J. Witte,  A. Yamada,  Jun Yang,  K. Yao,  S. Yeganeh,  
 S. R. Yost,  Zhi-Qiang You,  A. Zech,  Igor Ying Zhang,  Xing Zhang,  
 Yan Zhao,  Ying Zhu,  B. R. Brooks,  G. K. L. Chan,  C. J. Cramer,  
 M. S. Gordon,  W. J. Hehre,  A. Klamt,  M. W. Schmidt,  C. D. Sherrill,  
 D. G. Truhlar,  A. Aspuru-Guzik,  R. Baer,  A. T. Bell,  N. A. Besley,  
 Jeng-Da Chai,  A. Dreuw,  B. D. Dunietz,  T. R. Furlani,  Chao-Ping Hsu,  
 Yousung Jung,  Jing Kong,  D. S. Lambrecht,  WanZhen Liang,  C. Ochsenfeld,  
 V. A. Rassolov,  L. V. Slipchenko,  J. E. Subotnik,  T. Van Voorhis,  
 J. M. Herbert,  A. I. Krylov,  P. M. W. Gill,  M. Head-Gordon

 Contributors to earlier versions of Q-Chem not listed above: 
 R. D. Adamson,  B. Austin,  J. Baker,  G. J. O. Beran,  K. Brandhorst,  
 S. T. Brown,  E. F. C. Byrd,  A. K. Chakraborty,  C.-L. Cheng,  
 Siu Hung Chien,  D. M. Chipman,  D. L. Crittenden,  H. Dachsel,  
 R. A. DiStasio Jr.,  R. J. Doerksen,  A. D. Dutoi,  L. Fusti-Molnar,  
 W. A. Goddard III,  A. Golubeva-Zadorozhnaya,  S. R. Gwaltney,  G. Hawkins,  
 A. Heyden,  S. Hirata,  G. Kedziora,  F. J. Keil,  C. Kelley,  Jihan Kim,  
 R. A. King,  R. Z. Khaliullin,  P. P. Korambath,  W. Kurlancheek,  
 A. M. Lee,  M. S. Lee,  S. V. Levchenko,  Ching Yeh Lin,  D. Liotard,  
 R. C. Lochan,  I. Lotan,  P. E. Maslen,  N. Nair,  D. P. O'Neill,  
 D. Neuhauser,  E. Neuscamman,  C. M. Oana,  R. Olson,  B. Peters,  
 R. Peverati,  P. A. Pieniazek,  Y. M. Rhee,  J. Ritchie,  M. A. Rohrdanz,  
 E. Rosta,  N. J. Russ,  H. F. Schaefer III,  N. E. Schultz,  N. Shenvi,  
 A. C. Simmonett,  A. Sodt,  D. Stuck,  K. S. Thanthiriwatte,  V. Vanovschi,  
 Tao Wang,  A. Warshel,  C. F. Williams,  Q. Wu,  X. Xu,  W. Zhang

 Please cite Q-Chem as follows:
 Y. Shao et al., Mol. Phys. 113, 184-215 (2015)
 DOI: 10.1080/00268976.2014.952696

 Q-Chem 5.0.1 for Intel X86 EM64T Linux

 Parts of Q-Chem use Armadillo 5.200.1 (Boston Tea Smuggler).
 http://arma.sourceforge.net/

 Q-Chem begins on Thu Feb 22 00:16:32 2018  

Host: nid01268
0

     Scratch files written to /global/cscratch1/sd/bwood/qchem/chain_dp/qchem48432.0//
 Parallel job on  16  processors
Warning: disabling incdft.
Checking the input file for inconsistencies... 	...done.

--------------------------------------------------------------
User input:
--------------------------------------------------------------
$molecule
 0  3
 S          -0.01806751        0.44661919       -0.04085929
 C           1.69268044        0.21661087       -0.04392406
 H           2.25504587        0.33055482        0.86711357
 C           2.19358481       -0.11156535       -1.30306695
 H           3.24493128       -0.28705096       -1.47749232
 C           1.23419097       -0.18832714       -2.27969081
 H           1.41780922       -0.42884607       -3.31540271
 C          -0.10080114        0.09259041       -1.77631473
 C          -1.26244536        0.10213358       -2.45607151
 C          -1.48089629       -0.16602132       -3.86846887
 H          -0.67087629       -0.41169864       -4.53762839
 C          -2.80122770       -0.07050673       -4.22587213
 H          -3.16623046       -0.23433613       -5.22910772
 C          -3.64955016        0.26057326       -3.17004630
 H          -4.71779276        0.38794675       -3.21319380
 S          -2.81154662        0.46953115       -1.67550382
$end


$rem
              jobtype = opt
               method = wb97m-v
                basis = def2-tzvppd
  geom_opt_max_cycles = 75
       max_scf_cycles = 300
        scf_algorithm = diis
            scf_guess = sad
           sym_ignore = true
             symmetry = false
               thresh = 14
$end


$opt
CONSTRAINT
tors 6 8 9 10 0.0
ENDCONSTRAINT
$end

--------------------------------------------------------------
 ----------------------------------------------------------------
             Standard Nuclear Orientation (Angstroms)
    I     Atom           X                Y                Z
 ----------------------------------------------------------------
    1      S      -0.0180675100     0.4466191900    -0.0408592900
    2      C       1.6926804400     0.2166108700    -0.0439240600
    3      H       2.2550458700     0.3305548200     0.8671135700
    4      C       2.1935848100    -0.1115653500    -1.3030669500
    5      H       3.2449312800    -0.2870509600    -1.4774923200
    6      C       1.2341909700    -0.1883271400    -2.2796908100
    7      H       1.4178092200    -0.4288460700    -3.3154027100
    8      C      -0.1008011400     0.0925904100    -1.7763147300
    9      C      -1.2624453600     0.1021335800    -2.4560715100
   10      C      -1.4808962900    -0.1660213200    -3.8684688700
   11      H      -0.6708762900    -0.4116986400    -4.5376283900
   12      C      -2.8012277000    -0.0705067300    -4.2258721300
   13      H      -3.1662304600    -0.2343361300    -5.2291077200
   14      C      -3.6495501600     0.2605732600    -3.1700463000
   15      H      -4.7177927600     0.3879467500    -3.2131938000
   16      S      -2.8115466200     0.4695311500    -1.6755038200
 ----------------------------------------------------------------
 Nuclear Repulsion Energy =   634.7688383810 hartrees
 There are       44 alpha and       42 beta electrons
 Requested basis set is def2-TZVPPD
 There are 180 shells and 500 basis functions

 Total QAlloc Memory Limit   2000 MB
 Mega-Array Size        61 MB
 MEM_STATIC part        62 MB
 A cutoff of  1.0D-14 yielded  14458 shell pairs
 There are    112234 function pairs (    144783 Cartesian)
 Smallest overlap matrix eigenvalue = 6.50E-07
 Linear dependence detected in AO basis
 Number of orthogonalized atomic orbitals = 499
 Maximum deviation from orthogonality = 2.736E-10

 Scale SEOQF with 1.000000e-01/1.000000e-01/1.000000e-02

 Standard Electronic Orientation quadrupole field applied
 Nucleus-field energy     =     0.0000000092 hartrees
 Guess from superposition of atomic densities
 Warning:  Energy on first SCF cycle will be non-variational
 Long-range K will be added via erf
 Coulomb attenuation parameter = 0.3 bohr**(-1)
 An unrestricted hybrid HF-DFT SCF calculation will be
 performed using Pulay DIIS extrapolation
 Exchange:     0.1500 Hartree-Fock + 1.0000 wB97M-V + LR-HF
 Correlation:  1.0000 wB97M-V
 Using SG-2 standard quadrature grid
 Nonlocal Correlation:  VV10 with C = 0.0100 and b = 6.00
 Grid used for NLC:  SG-1 standard quadrature
 SCF converges when DIIS error is below 1.0E-08
 Number of grid points used for NLC = 44494
 ---------------------------------------
  Cycle       Energy         DIIS Error
 ---------------------------------------
    1   -1037.4167410617      2.68E-02
 Inaccurate integrated density:
   Number of electrons =    86
   Numerical integral  =    85.797801482836
   Relative error      =    -0.2351145548 %
 Number of grid points used for NLC = 45925
    2   -1100.8212250525      2.41E-02
 Number of grid points used for NLC = 44768
    3   -1104.4038462069      7.98E-03
 Number of grid points used for NLC = 44904
    4   -1104.3277362887      3.94E-03
 Number of grid points used for NLC = 44626
    5   -1104.6618370164      1.10E-03
 Number of grid points used for NLC = 44592
    6   -1104.6900236687      3.36E-04
 Number of grid points used for NLC = 44572
    7   -1104.6941199278      7.74E-05
 Number of grid points used for NLC = 44565
    8   -1104.6946085386      2.70E-05
 Number of grid points used for NLC = 44558
    9   -1104.6948074672      1.28E-05
 Number of grid points used for NLC = 44552
   10   -1104.6949568047      6.09E-06
 Number of grid points used for NLC = 44549
   11   -1104.6950135377      3.93E-06
 Number of grid points used for NLC = 44548
   12   -1104.6950235270      1.75E-06
 Number of grid points used for NLC = 44549
   13   -1104.6950260329      1.01E-06
 Number of grid points used for NLC = 44549
   14   -1104.6950267650      6.05E-07
 Number of grid points used for NLC = 44549
   15   -1104.6950269673      3.01E-07
 Number of grid points used for NLC = 44549
   16   -1104.6950270264      1.30E-07
 Number of grid points used for NLC = 44549
   17   -1104.6950270417      7.48E-08
 Number of grid points used for NLC = 44549
   18   -1104.6950270467      5.14E-08
 Number of grid points used for NLC = 44549
   19   -1104.6950270502      3.47E-08
 Number of grid points used for NLC = 44549
   20   -1104.6950270520      2.51E-08
 Number of grid points used for NLC = 44549
   21   -1104.6950270534      1.39E-08
 Number of grid points used for NLC = 44549
   22   -1104.6950270537      6.57E-09 Convergence criterion met
 ---------------------------------------
 <S^2> = 2.0372
 SCF time:  CPU 622.80 s  wall 616.87 s
 SCF   energy in the final basis set = -1104.69502705
 Total energy in the final basis set = -1104.69502705
 
 --------------------------------------------------------------
 
                    Orbital Energies (a.u.)
 --------------------------------------------------------------
 
 Alpha MOs
 -- Occupied --
-89.203 -89.203 -10.391 -10.390 -10.384 -10.384 -10.362 -10.362
-10.359 -10.359  -8.139  -8.139  -6.049  -6.048  -6.045  -6.045
 -6.043  -6.043  -1.025  -0.999  -0.903  -0.876  -0.861  -0.815
 -0.734  -0.694  -0.659  -0.646  -0.642  -0.578  -0.531  -0.525
 -0.513  -0.509  -0.506  -0.491  -0.461  -0.460  -0.428  -0.404
 -0.374  -0.359  -0.304  -0.201
 -- Virtual --
  0.031   0.033   0.044   0.056   0.060   0.063   0.065   0.065
  0.079   0.082   0.085   0.090   0.096   0.104   0.124   0.126
  0.142   0.146   0.147   0.161   0.165   0.170   0.170   0.177
  0.182   0.191   0.194   0.204   0.216   0.219   0.220   0.221
  0.228   0.235   0.242   0.246   0.250   0.260   0.264   0.265
  0.270   0.274   0.277   0.280   0.286   0.297   0.300   0.310
  0.315   0.322   0.329   0.331   0.336   0.340   0.345   0.349
  0.353   0.355   0.356   0.367   0.373   0.375   0.377   0.378
  0.390   0.392   0.396   0.403   0.406   0.411   0.420   0.427
  0.431   0.438   0.443   0.443   0.450   0.452   0.456   0.461
  0.466   0.470   0.484   0.485   0.488   0.501   0.503   0.516
  0.518   0.523   0.525   0.526   0.540   0.544   0.545   0.554
  0.558   0.580   0.588   0.590   0.595   0.597   0.609   0.620
  0.626   0.636   0.642   0.645   0.655   0.659   0.675   0.675
  0.682   0.687   0.695   0.703   0.704   0.709   0.724   0.726
  0.733   0.734   0.740   0.751   0.752   0.754   0.759   0.761
  0.770   0.770   0.775   0.782   0.784   0.788   0.792   0.796
  0.812   0.822   0.838   0.838   0.848   0.853   0.854   0.855
  0.871   0.887   0.893   0.912   0.920   0.921   0.931   0.934
  0.956   0.960   0.975   0.980   0.991   0.996   1.004   1.011
  1.020   1.024   1.043   1.055   1.061   1.063   1.095   1.099
  1.123   1.132   1.146   1.156   1.161   1.164   1.217   1.219
  1.226   1.236   1.258   1.285   1.286   1.330   1.336   1.362
  1.366   1.377   1.389   1.418   1.428   1.434   1.453   1.471
  1.473   1.483   1.485   1.490   1.514   1.527   1.556   1.563
  1.571   1.590   1.601   1.622   1.644   1.653   1.666   1.688
  1.694   1.696   1.715   1.724   1.730   1.731   1.739   1.748
  1.750   1.785   1.792   1.793   1.799   1.833   1.833   1.843
  1.855   1.861   1.878   1.894   1.900   1.921   1.949   1.958
  1.959   1.985   1.992   2.013   2.029   2.043   2.050   2.055
  2.078   2.086   2.090   2.102   2.116   2.134   2.146   2.151
  2.160   2.163   2.172   2.200   2.219   2.234   2.248   2.252
  2.268   2.303   2.309   2.317   2.335   2.354   2.390   2.408
  2.437   2.488   2.498   2.566   2.595   2.599   2.617   2.617
  2.621   2.697   2.708   2.727   2.731   2.780   2.782   2.817
  2.832   2.848   2.849   2.854   2.889   2.899   2.906   2.909
  2.947   2.998   3.036   3.041   3.046   3.059   3.070   3.077
  3.099   3.103   3.116   3.129   3.136   3.139   3.155   3.184
  3.199   3.200   3.202   3.221   3.233   3.244   3.262   3.265
  3.282   3.294   3.296   3.331   3.336   3.338   3.343   3.352
  3.379   3.411   3.444   3.446   3.451   3.473   3.474   3.478
  3.502   3.508   3.519   3.531   3.549   3.566   3.573   3.577
  3.586   3.602   3.639   3.651   3.653   3.696   3.707   3.711
  3.721   3.724   3.748   3.759   3.772   3.790   3.798   3.844
  3.848   3.859   3.886   3.888   3.901   3.909   3.918   3.926
  3.949   3.974   4.007   4.022   4.040   4.061   4.068   4.078
  4.089   4.095   4.119   4.131   4.156   4.239   4.257   4.263
  4.272   4.284   4.312   4.313   4.350   4.377   4.399   4.421
  4.443   4.462   4.499   4.528   4.534   4.540   4.548   4.606
  4.627   4.643   4.689   4.715   4.722   4.758   4.804   4.863
  4.873   4.875   4.914   4.967   4.970   5.018   5.069   5.143
  5.188   5.210   5.216   5.235   5.255   5.281   5.300   5.304
  5.341   5.374   5.392   5.489   5.531   5.553   5.726   5.762
  5.775   5.866   5.909   6.211   6.303   6.907   6.952   6.955
  6.970   7.061   7.105   7.113   7.197   7.490   7.564   9.184
  9.233   9.710   9.745   9.749   9.833  20.701  21.007  23.136
 23.298  23.418  23.471  23.485  23.626  23.920  24.042
 
 Beta MOs
 -- Occupied --
-89.203 -89.203 -10.388 -10.388 -10.376 -10.376 -10.361 -10.361
-10.356 -10.356  -8.138  -8.138  -6.049  -6.048  -6.045  -6.045
 -6.041  -6.041  -1.018  -0.991  -0.894  -0.868  -0.855  -0.800
 -0.721  -0.688  -0.652  -0.638  -0.637  -0.574  -0.520  -0.509
 -0.508  -0.502  -0.500  -0.460  -0.456  -0.455  -0.423  -0.358
 -0.342  -0.341
 -- Virtual --
 -0.065   0.024   0.031   0.033   0.043   0.056   0.058   0.063
  0.067   0.079   0.079   0.084   0.098   0.104   0.105   0.106
  0.124   0.127   0.145   0.150   0.161   0.166   0.170   0.170
  0.171   0.177   0.183   0.193   0.193   0.206   0.220   0.221
  0.222   0.224   0.229   0.237   0.242   0.246   0.249   0.263
  0.265   0.267   0.276   0.276   0.280   0.281   0.288   0.298
  0.306   0.310   0.316   0.322   0.332   0.332   0.336   0.342
  0.344   0.350   0.355   0.355   0.360   0.369   0.373   0.378
  0.379   0.380   0.393   0.396   0.397   0.404   0.407   0.414
  0.422   0.429   0.433   0.438   0.445   0.445   0.452   0.454
  0.459   0.463   0.468   0.473   0.484   0.487   0.488   0.503
  0.504   0.516   0.518   0.523   0.523   0.529   0.541   0.546
  0.548   0.556   0.561   0.582   0.589   0.591   0.597   0.597
  0.610   0.622   0.626   0.640   0.643   0.649   0.658   0.662
  0.676   0.678   0.683   0.691   0.697   0.707   0.710   0.713
  0.726   0.728   0.736   0.736   0.742   0.752   0.755   0.756
  0.760   0.761   0.773   0.775   0.777   0.782   0.785   0.792
  0.795   0.798   0.816   0.826   0.838   0.840   0.852   0.856
  0.856   0.860   0.874   0.890   0.897   0.920   0.924   0.924
  0.935   0.935   0.958   0.963   0.986   0.990   0.993   1.005
  1.012   1.012   1.021   1.024   1.047   1.061   1.064   1.064
  1.099   1.105   1.128   1.144   1.148   1.158   1.163   1.176
  1.221   1.223   1.228   1.239   1.260   1.290   1.293   1.334
  1.340   1.367   1.367   1.388   1.398   1.430   1.435   1.436
  1.457   1.473   1.478   1.485   1.490   1.501   1.519   1.532
  1.562   1.567   1.575   1.595   1.621   1.627   1.649   1.658
  1.679   1.694   1.702   1.703   1.721   1.728   1.733   1.734
  1.747   1.750   1.754   1.797   1.803   1.812   1.818   1.840
  1.846   1.855   1.858   1.883   1.895   1.905   1.913   1.926
  1.956   1.962   1.964   1.998   1.999   2.015   2.040   2.056
  2.057   2.063   2.082   2.097   2.103   2.113   2.122   2.138
  2.151   2.165   2.168   2.175   2.184   2.207   2.224   2.244
  2.257   2.268   2.283   2.307   2.321   2.323   2.346   2.366
  2.404   2.416   2.448   2.497   2.508   2.577   2.603   2.615
  2.627   2.627   2.640   2.715   2.720   2.749   2.749   2.791
  2.794   2.830   2.842   2.854   2.858   2.863   2.910   2.912
  2.915   2.932   2.962   3.009   3.050   3.054   3.057   3.083
  3.090   3.099   3.112   3.121   3.124   3.143   3.145   3.153
  3.167   3.195   3.211   3.223   3.224   3.236   3.262   3.271
  3.272   3.281   3.298   3.307   3.311   3.345   3.352   3.357
  3.359   3.367   3.401   3.424   3.460   3.465   3.469   3.490
  3.491   3.496   3.511   3.520   3.531   3.547   3.564   3.586
  3.587   3.596   3.604   3.613   3.652   3.666   3.669   3.710
  3.717   3.727   3.731   3.735   3.755   3.776   3.787   3.802
  3.810   3.862   3.862   3.866   3.899   3.901   3.914   3.923
  3.934   3.938   3.961   3.982   4.011   4.030   4.045   4.071
  4.079   4.092   4.100   4.105   4.131   4.140   4.174   4.250
  4.266   4.272   4.279   4.291   4.318   4.331   4.368   4.396
  4.406   4.425   4.450   4.467   4.504   4.538   4.549   4.555
  4.558   4.624   4.639   4.654   4.706   4.726   4.738   4.776
  4.818   4.877   4.889   4.912   4.948   4.978   4.988   5.036
  5.087   5.157   5.204   5.220   5.241   5.251   5.266   5.292
  5.317   5.318   5.361   5.384   5.432   5.516   5.556   5.589
  5.742   5.775   5.789   5.884   5.926   6.227   6.317   6.909
  6.953   6.956   6.972   7.063   7.105   7.115   7.197   7.492
  7.567   9.189   9.238   9.711   9.746   9.749   9.834  20.702
 21.008  23.140  23.301  23.423  23.477  23.492  23.629  23.923
 24.046
 --------------------------------------------------------------
 
          Ground-State Mulliken Net Atomic Charges

     Atom                 Charge (a.u.)    Spin (a.u.)
  --------------------------------------------------------
      1 S                    -0.181500       0.091652
      2 C                    -0.189792       0.450941
      3 H                     0.229202       0.015589
      4 C                    -0.284589      -0.081255
      5 H                     0.152502      -0.000415
      6 C                    -0.245074       0.342830
      7 H                     0.093046       0.023574
      8 C                     0.425961       0.157633
      9 C                     0.419993       0.156920
     10 C                    -0.235336       0.342162
     11 H                     0.092546       0.023477
     12 C                    -0.276255      -0.080745
     13 H                     0.153092      -0.000350
     14 C                    -0.197476       0.450690
     15 H                     0.226883       0.015896
     16 S                    -0.183203       0.091400
  --------------------------------------------------------
  Sum of atomic charges =    -0.000000
  Sum of spin   charges =     2.000000

 -----------------------------------------------------------------
                    Cartesian Multipole Moments
 -----------------------------------------------------------------
    Charge (ESU x 10^10)
                -9.6064
    Dipole Moment (Debye)
         X       7.9001      Y      -1.5881      Z      18.0150
       Tot      19.7351
    Quadrupole Moments (Debye-Ang)
        XX    -108.4212     XY       0.9252     YY     -85.0658
        XZ     -27.2217     YZ       3.9815     ZZ    -121.7507
    Octopole Moments (Debye-Ang^2)
       XXX     268.9861    XXY     -19.8326    XYY      69.6791
       YYY     -41.5651    XXZ     220.1761    XYZ      -4.8103
       YYZ     160.1526    XZZ     142.8415    YZZ     -26.0273
       ZZZ     547.1964
    Hexadecapole Moments (Debye-Ang^3)
      XXXX   -2236.1478   XXXY      60.2284   XXYY    -418.7326
      XYYY      77.6394   YYYY    -162.7166   XXXZ    -911.4992
      XXYZ      32.2177   XYYZ    -261.9150   YYYZ      19.9969
      XXZZ    -979.3556   XYZZ      48.1403   YYZZ    -517.4336
      XZZZ    -890.3033   YZZZ      87.1921   ZZZZ   -2860.0568
 -----------------------------------------------------------------
 Calculating analytic gradient of the SCF energy
 Number of grid points used for NLC = 44549
 Gradient of SCF Energy
            1           2           3           4           5           6
    1  -0.0004568  -0.0003659  -0.0000281   0.0000010   0.0000061  -0.0000202
    2   0.0001925  -0.0000040  -0.0000255   0.0000419   0.0000109   0.0003131
    3   0.0010511  -0.0002761   0.0000283   0.0002218  -0.0000218   0.0013987
            7           8           9          10          11          12
    1  -0.0003409   0.0000142   0.0021307  -0.0013016   0.0007482  -0.0003852
    2  -0.0001248  -0.0004321  -0.0004256   0.0003412  -0.0001377   0.0000988
    3  -0.0006324  -0.0023621  -0.0012343   0.0007969  -0.0001756   0.0001510
           13          14          15          16
    1   0.0001045   0.0002353   0.0000752  -0.0004165
    2  -0.0000093  -0.0000162  -0.0000524   0.0002291
    3  -0.0000832   0.0001994  -0.0000488   0.0009872
 Max gradient component =       2.362E-03
 RMS gradient           =       6.578E-04
 Gradient time:  CPU 92.52 s  wall 92.07 s
 Geometry Optimization Parameters
   NAtoms,    NIC,     NZ,  NCons,   NDum,   NFix, NCnnct, MaxDiis
       16     111       0       1       0       0       0       0


** CONSTRAINED OPTIMIZATION IN DELOCALIZED INTERNAL COORDINATES **
   Searching for a Minimum

   Optimization Cycle:   1

                       Coordinates (Angstroms)
     ATOM                X               Y               Z
      1  S        -0.0180675100    0.4466191900   -0.0408592900
      2  C         1.6926804400    0.2166108700   -0.0439240600
      3  H         2.2550458700    0.3305548200    0.8671135700
      4  C         2.1935848100   -0.1115653500   -1.3030669500
      5  H         3.2449312800   -0.2870509600   -1.4774923200
      6  C         1.2341909700   -0.1883271400   -2.2796908100
      7  H         1.4178092200   -0.4288460700   -3.3154027100
      8  C        -0.1008011400    0.0925904100   -1.7763147300
      9  C        -1.2624453600    0.1021335800   -2.4560715100
     10  C        -1.4808962900   -0.1660213200   -3.8684688700
     11  H        -0.6708762900   -0.4116986400   -4.5376283900
     12  C        -2.8012277000   -0.0705067300   -4.2258721300
     13  H        -3.1662304600   -0.2343361300   -5.2291077200
     14  C        -3.6495501600    0.2605732600   -3.1700463000
     15  H        -4.7177927600    0.3879467500   -3.2131938000
     16  S        -2.8115466200    0.4695311500   -1.6755038200
   Point Group: c1    Number of degrees of freedom:    42


   Energy is  -1104.695027054

              Constraints and their Current Values
                                        Value     Constraint
   Dihedral:        6   8   9  10       -0.000        0.000

 Attempting to Generate Delocalized Internal Coordinates

 41 Hessian modes will be used to form the next step
  Hessian Eigenvalues:
     0.045000    0.045000    0.045000    0.045000    0.045000    0.045000
     0.045000    0.045000    0.045000    0.045000    0.045000    0.045000
     0.160000    0.160000    0.160000    0.160000    0.160000    0.160000
     0.221198    0.221198    0.237567    0.237567    0.250000    0.250000
     0.279404    0.279405    0.320157    0.320157    0.359860    0.359860
     0.361141    0.361141    0.363991    0.363991    0.366347    0.366352
     0.448122    0.448129    0.491782    0.491790    0.558924

 Minimum Search - Taking Simple RFO Step
 Searching for Lamda that Minimizes Along All modes
 Value Taken    Lamda =  -0.00008708
 Step Taken.  Stepsize is  0.018730

                             Maximum     Tolerance    Cnvgd?
         Gradient           0.003477      0.000300      NO
         Displacement       0.014030      0.001200      NO
         Energy change     *********      0.000001      NO


 New Cartesian Coordinates Obtained by Inverse Iteration

 Displacement from previous Coordinates is:  0.098750
 ----------------------------------------------------------------
             Standard Nuclear Orientation (Angstroms)
    I     Atom           X                Y                Z
 ----------------------------------------------------------------
    1      S      -0.0097517349     0.4472877530    -0.0306244475
    2      C       1.7011293080     0.2153253999    -0.0458071826
    3      H       2.2706778526     0.3281320788     0.8608856862
    4      C       2.1916182839    -0.1123152638    -1.3091656163
    5      H       3.2413784947    -0.2886547892    -1.4920369153
    6      C       1.2244987892    -0.1870836630    -2.2782131215
    7      H       1.4027426457    -0.4263780698    -3.3142728086
    8      C      -0.1074208981     0.0947248821    -1.7640298754
    9      C      -1.2702853804     0.1041458776    -2.4441896376
   10      C      -1.4773585235    -0.1653082480    -3.8590733123
   11      H      -0.6639816807    -0.4100618997    -4.5228118905
   12      C      -2.7947776695    -0.0715105232    -4.2271786346
   13      H      -3.1522530452    -0.2360961236    -5.2329242849
   14      C      -3.6520168401     0.2595963308    -3.1785662938
   15      H      -4.7200985169     0.3863295618    -3.2297471103
   16      S      -2.8252927850     0.4700743863    -1.6777743949
 ----------------------------------------------------------------
 Nuclear Repulsion Energy =   634.3223261547 hartrees
 There are       44 alpha and       42 beta electrons
 Applying Cartesian multipole field
    Component          Value
    ---------          -----
     (2,0,0)        1.00000E-11
     (0,2,0)        2.00000E-11
     (0,0,2)       -3.00000E-12
 Nucleus-field energy     =     0.0000000093 hartrees
 Requested basis set is def2-TZVPPD
 There are 180 shells and 500 basis functions
 A cutoff of  1.0D-14 yielded  14454 shell pairs
 There are    112222 function pairs (    144769 Cartesian)
 Smallest overlap matrix eigenvalue = 6.57E-07
 Linear dependence detected in AO basis
 Number of orthogonalized atomic orbitals = 499
 Maximum deviation from orthogonality = 1.710E-10
 Guess MOs from SCF MO coefficient file
 Reading MOs from coefficient file
 Reading MOs from coefficient file
 Long-range K will be added via erf
 Coulomb attenuation parameter = 0.3 bohr**(-1)
 An unrestricted hybrid HF-DFT SCF calculation will be
 performed using Pulay DIIS extrapolation
 Exchange:     0.1500 Hartree-Fock + 1.0000 wB97M-V + LR-HF
 Correlation:  1.0000 wB97M-V
 Using SG-2 standard quadrature grid
 Nonlocal Correlation:  VV10 with C = 0.0100 and b = 6.00
 Grid used for NLC:  SG-1 standard quadrature
 SCF converges when DIIS error is below 1.0E-08
 Geometry optimization detected.  Setting ReadMinima to 0
 Setting SaveMinima to 0
 Inaccurate integrated density:
   Number of electrons =    86
   Numerical integral  =    85.983932368764
   Relative error      =    -0.0186832921 %
 Number of grid points used for NLC = 44547
 ---------------------------------------
  Cycle       Energy         DIIS Error
 ---------------------------------------
    1   -1104.7028036647      4.47E-04
 Number of grid points used for NLC = 44545
    2   -1104.6949706352      5.83E-05
 Number of grid points used for NLC = 44547
    3   -1104.6949632496      6.20E-05
 Number of grid points used for NLC = 44547
    4   -1104.6950828438      6.92E-06
 Number of grid points used for NLC = 44547
    5   -1104.6950843980      2.87E-06
 Number of grid points used for NLC = 44547
    6   -1104.6950847694      8.51E-07
 Number of grid points used for NLC = 44547
    7   -1104.6950848204      2.48E-07
 Number of grid points used for NLC = 44547
    8   -1104.6950848388      1.38E-07
 Number of grid points used for NLC = 44547
    9   -1104.6950848491      8.02E-08
 Number of grid points used for NLC = 44547
   10   -1104.6950848544      5.17E-08
 Number of grid points used for NLC = 44547
   11   -1104.6950848566      2.00E-08
 Number of grid points used for NLC = 44547
   12   -1104.6950848569      7.04E-09 Convergence criterion met
 ---------------------------------------
 <S^2> = 2.0375
 SCF time:  CPU 346.27 s  wall 343.11 s
 SCF   energy in the final basis set = -1104.69508486
 Total energy in the final basis set = -1104.69508486
 
 --------------------------------------------------------------
 
                    Orbital Energies (a.u.)
 --------------------------------------------------------------
 
 Alpha MOs
 -- Occupied --
-89.203 -89.203 -10.391 -10.390 -10.384 -10.384 -10.362 -10.362
-10.359 -10.359  -8.139  -8.139  -6.049  -6.049  -6.046  -6.045
 -6.044  -6.043  -1.025  -0.999  -0.903  -0.876  -0.861  -0.815
 -0.734  -0.694  -0.659  -0.646  -0.642  -0.579  -0.531  -0.525
 -0.514  -0.509  -0.506  -0.491  -0.461  -0.460  -0.429  -0.404
 -0.374  -0.360  -0.304  -0.200
 -- Virtual --
  0.031   0.033   0.044   0.056   0.059   0.063   0.065   0.066
  0.079   0.082   0.085   0.090   0.097   0.104   0.124   0.126
  0.142   0.146   0.147   0.160   0.165   0.170   0.170   0.177
  0.182   0.191   0.194   0.205   0.215   0.219   0.220   0.221
  0.229   0.235   0.242   0.246   0.250   0.260   0.264   0.266
  0.270   0.274   0.276   0.280   0.287   0.297   0.300   0.310
  0.315   0.321   0.329   0.331   0.335   0.340   0.345   0.350
  0.354   0.355   0.356   0.367   0.372   0.374   0.377   0.377
  0.390   0.392   0.396   0.403   0.406   0.411   0.421   0.427
  0.430   0.438   0.443   0.443   0.450   0.452   0.456   0.462
  0.467   0.470   0.484   0.484   0.489   0.500   0.503   0.515
  0.517   0.523   0.524   0.526   0.541   0.544   0.544   0.555
  0.558   0.579   0.587   0.590   0.596   0.596   0.609   0.620
  0.626   0.635   0.643   0.646   0.652   0.658   0.675   0.676
  0.683   0.688   0.697   0.703   0.704   0.710   0.724   0.726
  0.733   0.734   0.740   0.751   0.752   0.752   0.759   0.760
  0.769   0.770   0.775   0.782   0.785   0.789   0.793   0.798
  0.812   0.822   0.838   0.840   0.848   0.854   0.854   0.854
  0.870   0.887   0.894   0.911   0.919   0.920   0.929   0.934
  0.956   0.959   0.975   0.980   0.991   0.995   1.005   1.010
  1.020   1.023   1.042   1.056   1.062   1.062   1.094   1.099
  1.123   1.133   1.145   1.155   1.161   1.165   1.217   1.220
  1.228   1.241   1.257   1.284   1.286   1.330   1.336   1.363
  1.365   1.376   1.388   1.418   1.428   1.431   1.450   1.472
  1.473   1.483   1.483   1.490   1.514   1.529   1.555   1.565
  1.572   1.589   1.601   1.622   1.647   1.652   1.664   1.688
  1.696   1.697   1.715   1.724   1.729   1.729   1.739   1.748
  1.749   1.785   1.792   1.794   1.800   1.830   1.833   1.843
  1.854   1.860   1.877   1.895   1.900   1.918   1.946   1.959
  1.959   1.986   1.992   2.011   2.029   2.043   2.050   2.055
  2.078   2.087   2.090   2.103   2.117   2.133   2.146   2.151
  2.159   2.164   2.172   2.201   2.219   2.234   2.248   2.251
  2.268   2.302   2.310   2.317   2.335   2.355   2.391   2.408
  2.438   2.490   2.497   2.568   2.592   2.600   2.619   2.620
  2.621   2.697   2.708   2.727   2.731   2.782   2.783   2.817
  2.832   2.848   2.850   2.851   2.888   2.897   2.908   2.909
  2.944   2.998   3.037   3.040   3.045   3.059   3.070   3.080
  3.098   3.102   3.115   3.129   3.134   3.139   3.157   3.182
  3.199   3.200   3.202   3.219   3.233   3.243   3.262   3.264
  3.282   3.294   3.297   3.332   3.335   3.336   3.343   3.353
  3.379   3.412   3.444   3.445   3.451   3.472   3.474   3.477
  3.502   3.508   3.519   3.531   3.548   3.565   3.572   3.577
  3.586   3.601   3.639   3.651   3.653   3.695   3.704   3.710
  3.722   3.726   3.746   3.762   3.772   3.790   3.800   3.843
  3.847   3.858   3.884   3.889   3.899   3.911   3.920   3.926
  3.949   3.977   4.007   4.020   4.040   4.062   4.069   4.077
  4.089   4.094   4.122   4.133   4.154   4.240   4.258   4.264
  4.272   4.286   4.310   4.312   4.350   4.376   4.397   4.421
  4.444   4.466   4.499   4.529   4.531   4.539   4.550   4.606
  4.625   4.646   4.688   4.715   4.723   4.756   4.812   4.864
  4.872   4.876   4.915   4.966   4.969   5.019   5.069   5.139
  5.184   5.211   5.219   5.235   5.256   5.282   5.300   5.306
  5.341   5.374   5.392   5.488   5.529   5.553   5.729   5.761
  5.777   5.866   5.908   6.211   6.303   6.909   6.951   6.955
  6.970   7.063   7.107   7.113   7.193   7.491   7.566   9.184
  9.234   9.710   9.746   9.748   9.834  20.703  21.007  23.136
 23.296  23.412  23.467  23.487  23.626  23.921  24.040
 
 Beta MOs
 -- Occupied --
-89.203 -89.203 -10.389 -10.388 -10.376 -10.376 -10.361 -10.361
-10.356 -10.356  -8.138  -8.138  -6.049  -6.048  -6.045  -6.045
 -6.041  -6.041  -1.018  -0.991  -0.894  -0.868  -0.855  -0.800
 -0.721  -0.688  -0.652  -0.638  -0.637  -0.574  -0.520  -0.509
 -0.508  -0.502  -0.500  -0.460  -0.456  -0.455  -0.424  -0.358
 -0.342  -0.341
 -- Virtual --
 -0.065   0.024   0.031   0.033   0.043   0.056   0.058   0.063
  0.067   0.079   0.079   0.084   0.098   0.104   0.105   0.105
  0.124   0.127   0.144   0.149   0.161   0.166   0.170   0.170
  0.170   0.178   0.183   0.193   0.193   0.206   0.220   0.221
  0.222   0.223   0.229   0.237   0.242   0.246   0.249   0.263
  0.265   0.267   0.276   0.276   0.280   0.281   0.289   0.298
  0.306   0.310   0.315   0.322   0.332   0.333   0.335   0.342
  0.345   0.350   0.355   0.355   0.359   0.368   0.372   0.377
  0.379   0.379   0.393   0.397   0.398   0.404   0.407   0.414
  0.422   0.429   0.432   0.438   0.444   0.445   0.452   0.454
  0.459   0.464   0.469   0.473   0.484   0.486   0.489   0.502
  0.504   0.515   0.517   0.523   0.523   0.529   0.542   0.547
  0.547   0.557   0.561   0.581   0.589   0.591   0.597   0.598
  0.610   0.622   0.627   0.639   0.643   0.650   0.656   0.661
  0.676   0.679   0.684   0.692   0.699   0.707   0.711   0.714
  0.726   0.728   0.735   0.735   0.742   0.752   0.753   0.756
  0.760   0.761   0.773   0.775   0.777   0.783   0.786   0.793
  0.796   0.799   0.815   0.825   0.839   0.841   0.852   0.856
  0.857   0.859   0.874   0.890   0.898   0.920   0.923   0.924
  0.933   0.936   0.958   0.962   0.986   0.990   0.994   1.005
  1.012   1.013   1.021   1.024   1.046   1.061   1.064   1.065
  1.098   1.105   1.128   1.145   1.147   1.157   1.163   1.176
  1.221   1.223   1.230   1.244   1.259   1.289   1.292   1.334
  1.340   1.366   1.368   1.387   1.398   1.430   1.433   1.436
  1.453   1.474   1.478   1.485   1.487   1.500   1.519   1.534
  1.562   1.568   1.576   1.594   1.621   1.626   1.651   1.657
  1.677   1.694   1.703   1.704   1.721   1.729   1.732   1.734
  1.747   1.751   1.753   1.799   1.804   1.812   1.819   1.836
  1.846   1.855   1.857   1.883   1.894   1.905   1.913   1.924
  1.953   1.963   1.964   1.998   1.999   2.013   2.040   2.056
  2.057   2.063   2.082   2.097   2.104   2.113   2.122   2.137
  2.150   2.165   2.167   2.176   2.184   2.208   2.224   2.244
  2.257   2.267   2.283   2.306   2.322   2.323   2.345   2.367
  2.404   2.416   2.448   2.500   2.507   2.578   2.600   2.616
  2.629   2.630   2.639   2.716   2.719   2.748   2.749   2.791
  2.796   2.830   2.842   2.856   2.857   2.860   2.909   2.911
  2.918   2.931   2.958   3.008   3.049   3.054   3.055   3.083
  3.093   3.100   3.111   3.120   3.123   3.143   3.143   3.154
  3.169   3.193   3.210   3.222   3.225   3.235   3.262   3.271
  3.272   3.280   3.298   3.307   3.311   3.346   3.350   3.357
  3.359   3.368   3.401   3.425   3.461   3.465   3.469   3.490
  3.490   3.496   3.509   3.520   3.532   3.546   3.564   3.585
  3.587   3.595   3.604   3.613   3.652   3.666   3.669   3.708
  3.717   3.724   3.732   3.737   3.754   3.778   3.787   3.802
  3.812   3.860   3.861   3.865   3.897   3.902   3.913   3.924
  3.935   3.937   3.962   3.985   4.011   4.027   4.044   4.072
  4.079   4.092   4.099   4.104   4.133   4.142   4.172   4.252
  4.267   4.273   4.278   4.293   4.316   4.330   4.368   4.395
  4.405   4.425   4.451   4.472   4.504   4.541   4.548   4.550
  4.559   4.623   4.636   4.656   4.705   4.726   4.738   4.774
  4.825   4.878   4.888   4.913   4.949   4.977   4.988   5.037
  5.087   5.154   5.201   5.220   5.243   5.251   5.267   5.294
  5.318   5.319   5.361   5.383   5.431   5.515   5.554   5.589
  5.745   5.774   5.790   5.884   5.925   6.227   6.317   6.910
  6.952   6.957   6.971   7.065   7.107   7.115   7.194   7.493
  7.569   9.188   9.238   9.711   9.746   9.748   9.835  20.704
 21.008  23.140  23.299  23.417  23.473  23.493  23.629  23.924
 24.044
 --------------------------------------------------------------
 
          Ground-State Mulliken Net Atomic Charges

     Atom                 Charge (a.u.)    Spin (a.u.)
  --------------------------------------------------------
      1 S                    -0.181851       0.091289
      2 C                    -0.189194       0.451814
      3 H                     0.229917       0.015558
      4 C                    -0.288430      -0.082843
      5 H                     0.152181      -0.000463
      6 C                    -0.236972       0.343365
      7 H                     0.089608       0.024182
      8 C                     0.424568       0.157764
      9 C                     0.417238       0.156849
     10 C                    -0.226933       0.342638
     11 H                     0.089276       0.024108
     12 C                    -0.280615      -0.082206
     13 H                     0.152592      -0.000378
     14 C                    -0.195847       0.451346
     15 H                     0.227477       0.015799
     16 S                    -0.183014       0.091177
  --------------------------------------------------------
  Sum of atomic charges =    -0.000000
  Sum of spin   charges =     2.000000

 -----------------------------------------------------------------
                    Cartesian Multipole Moments
 -----------------------------------------------------------------
    Charge (ESU x 10^10)
                -9.6064
    Dipole Moment (Debye)
         X       7.9153      Y      -1.5883      Z      17.9876
       Tot      19.7162
    Quadrupole Moments (Debye-Ang)
        XX    -108.5321     XY       0.9258     YY     -85.0670
        XZ     -27.2994     YZ       3.9796     ZZ    -121.6617
    Octopole Moments (Debye-Ang^2)
       XXX     269.8596    XXY     -19.8776    XYY      69.8015
       YYY     -41.6379    XXZ     220.1983    XYZ      -4.8009
       YYZ     159.9604    XZZ     143.1659    YZZ     -26.0730
       ZZZ     546.1304
    Hexadecapole Moments (Debye-Ang^3)
      XXXX   -2243.6609   XXXY      60.3723   XXYY    -419.7510
      XYYY      77.7659   YYYY    -162.7608   XXXZ    -914.3636
      XXYZ      32.2318   XYYZ    -262.4094   YYYZ      20.0382
      XXZZ    -980.5583   XYZZ      48.2370   YYZZ    -517.0055
      XZZZ    -891.8886   YZZZ      87.2933   ZZZZ   -2854.8265
 -----------------------------------------------------------------
 Calculating analytic gradient of the SCF energy
 Number of grid points used for NLC = 44547
 Gradient of SCF Energy
            1           2           3           4           5           6
    1   0.0001101  -0.0002830   0.0000524   0.0000400   0.0000066   0.0000963
    2   0.0000617   0.0000486  -0.0000367  -0.0000369   0.0000141   0.0001527
    3   0.0006200   0.0000592  -0.0000047  -0.0000641  -0.0000023   0.0006013
            7           8           9          10          11          12
    1  -0.0001679   0.0002967   0.0007360  -0.0005057   0.0001272  -0.0000379
    2  -0.0000131  -0.0002398  -0.0002097   0.0001379   0.0000058  -0.0000125
    3  -0.0000766  -0.0010280  -0.0008835   0.0002692   0.0000713  -0.0000318
           13          14          15          16
    1   0.0000384   0.0000069  -0.0000136  -0.0005023
    2   0.0000183   0.0000545  -0.0000365   0.0000918
    3  -0.0000072   0.0002980  -0.0000640   0.0002430
 Max gradient component =       1.028E-03
 RMS gradient           =       2.988E-04
 Gradient time:  CPU 92.96 s  wall 92.52 s
 Geometry Optimization Parameters
   NAtoms,    NIC,     NZ,  NCons,   NDum,   NFix, NCnnct, MaxDiis
       16     111       0       1       0       0       0       0

 Cartesian Hessian Update
 Hessian Updated using BFGS Update


** CONSTRAINED OPTIMIZATION IN DELOCALIZED INTERNAL COORDINATES **
   Searching for a Minimum

   Optimization Cycle:   2

                       Coordinates (Angstroms)
     ATOM                X               Y               Z
      1  S        -0.0097517349    0.4472877530   -0.0306244475
      2  C         1.7011293080    0.2153253999   -0.0458071826
      3  H         2.2706778526    0.3281320788    0.8608856862
      4  C         2.1916182839   -0.1123152638   -1.3091656163
      5  H         3.2413784947   -0.2886547892   -1.4920369153
      6  C         1.2244987892   -0.1870836630   -2.2782131215
      7  H         1.4027426457   -0.4263780698   -3.3142728086
      8  C        -0.1074208981    0.0947248821   -1.7640298754
      9  C        -1.2702853804    0.1041458776   -2.4441896376
     10  C        -1.4773585235   -0.1653082480   -3.8590733123
     11  H        -0.6639816807   -0.4100618997   -4.5228118905
     12  C        -2.7947776695   -0.0715105232   -4.2271786346
     13  H        -3.1522530452   -0.2360961236   -5.2329242849
     14  C        -3.6520168401    0.2595963308   -3.1785662938
     15  H        -4.7200985169    0.3863295618   -3.2297471103
     16  S        -2.8252927850    0.4700743863   -1.6777743949
   Point Group: c1    Number of degrees of freedom:    42


   Energy is  -1104.695084857

              Constraints and their Current Values
                                        Value     Constraint
   Dihedral:        6   8   9  10       -0.000        0.000
 Hessian Updated using BFGS Update

 29 Hessian modes will be used to form the next step
  Hessian Eigenvalues:
     0.044598    0.045000    0.045000    0.045006    0.138782    0.160379
     0.177797    0.221213    0.221377    0.237569    0.244780    0.250000
     0.279380    0.284866    0.320125    0.320970    0.359860    0.359863
     0.361141    0.361730    0.363873    0.363999    0.364950    0.366906
     0.448124    0.448456    0.491762    0.491817    0.579636

 Minimum Search - Taking Simple RFO Step
 Searching for Lamda that Minimizes Along All modes
 Value Taken    Lamda =  -0.00002110
 Step Taken.  Stepsize is  0.012227

                             Maximum     Tolerance    Cnvgd?
         Gradient           0.001197      0.000300      NO
         Displacement       0.008136      0.001200      NO
         Energy change     -0.000058      0.000001      NO


 New Cartesian Coordinates Obtained by Inverse Iteration

 Displacement from previous Coordinates is:  0.056930
 ----------------------------------------------------------------
             Standard Nuclear Orientation (Angstroms)
    I     Atom           X                Y                Z
 ----------------------------------------------------------------
    1      S      -0.0067136194     0.4474099247    -0.0255070658
    2      C       1.7045009842     0.2147009079    -0.0479033179
    3      H       2.2775955727     0.3273367300     0.8565177764
    4      C       2.1893135155    -0.1125438176    -1.3134357893
    5      H       3.2382050714    -0.2889937099    -1.5010987193
    6      C       1.2179018420    -0.1866692705    -2.2782322368
    7      H       1.3931054183    -0.4250784616    -3.3148420078
    8      C      -0.1118120729     0.0954663236    -1.7566841794
    9      C      -1.2746386537     0.1047562350    -2.4365928687
   10      C      -1.4741853577    -0.1653499846    -3.8532044507
   11      H      -0.6585692153    -0.4096209900    -4.5140414501
   12      C      -2.7898745139    -0.0719516181    -4.2273916986
   13      H      -3.1432396036    -0.2366040841    -5.2345859841
   14      C      -3.6516844814     0.2591820614    -3.1827128142
   15      H      -4.7195249777     0.3861465650    -3.2378931263
   16      S      -2.8315716085     0.4700208787    -1.6779219072
 ----------------------------------------------------------------
 Nuclear Repulsion Energy =   634.2683263654 hartrees
 There are       44 alpha and       42 beta electrons
 Applying Cartesian multipole field
    Component          Value
    ---------          -----
     (2,0,0)        1.00000E-11
     (0,2,0)        2.00000E-11
     (0,0,2)       -3.00000E-12
 Nucleus-field energy     =     0.0000000093 hartrees
 Requested basis set is def2-TZVPPD
 There are 180 shells and 500 basis functions
 A cutoff of  1.0D-14 yielded  14456 shell pairs
 There are    112228 function pairs (    144775 Cartesian)
 Smallest overlap matrix eigenvalue = 6.56E-07
 Linear dependence detected in AO basis
 Number of orthogonalized atomic orbitals = 499
 Maximum deviation from orthogonality = 1.790E-10
 Guess MOs from SCF MO coefficient file
 Reading MOs from coefficient file
 Reading MOs from coefficient file
 Long-range K will be added via erf
 Coulomb attenuation parameter = 0.3 bohr**(-1)
 An unrestricted hybrid HF-DFT SCF calculation will be
 performed using Pulay DIIS extrapolation
 Exchange:     0.1500 Hartree-Fock + 1.0000 wB97M-V + LR-HF
 Correlation:  1.0000 wB97M-V
 Using SG-2 standard quadrature grid
 Nonlocal Correlation:  VV10 with C = 0.0100 and b = 6.00
 Grid used for NLC:  SG-1 standard quadrature
 SCF converges when DIIS error is below 1.0E-08
 Geometry optimization detected.  Setting ReadMinima to 0
 Setting SaveMinima to 0
 Inaccurate integrated density:
   Number of electrons =    86
   Numerical integral  =    85.988935351877
   Relative error      =    -0.0128658699 %
 Number of grid points used for NLC = 44548
 ---------------------------------------
  Cycle       Energy         DIIS Error
 ---------------------------------------
    1   -1104.6993468227      2.59E-04
 Number of grid points used for NLC = 44546
    2   -1104.6950529755      3.56E-05
 Number of grid points used for NLC = 44548
    3   -1104.6950503992      3.79E-05
 Number of grid points used for NLC = 44548
    4   -1104.6950948321      4.12E-06
 Number of grid points used for NLC = 44548
    5   -1104.6950953904      1.70E-06
 Number of grid points used for NLC = 44548
    6   -1104.6950955358      5.45E-07
 Number of grid points used for NLC = 44548
    7   -1104.6950955626      1.66E-07
 Number of grid points used for NLC = 44548
    8   -1104.6950955750      1.08E-07
 Number of grid points used for NLC = 44548
    9   -1104.6950955825      6.25E-08
 Number of grid points used for NLC = 44548
   10   -1104.6950955861      3.50E-08
 Number of grid points used for NLC = 44548
   11   -1104.6950955871      1.33E-08
 Number of grid points used for NLC = 44548
   12   -1104.6950955872      5.01E-09 Convergence criterion met
 ---------------------------------------
 <S^2> = 2.0377
 SCF time:  CPU 343.41 s  wall 339.72 s
 SCF   energy in the final basis set = -1104.69509559
 Total energy in the final basis set = -1104.69509559
 
 --------------------------------------------------------------
 
                    Orbital Energies (a.u.)
 --------------------------------------------------------------
 
 Alpha MOs
 -- Occupied --
-89.203 -89.203 -10.391 -10.390 -10.384 -10.384 -10.362 -10.362
-10.359 -10.359  -8.139  -8.139  -6.049  -6.049  -6.046  -6.045
 -6.044  -6.044  -1.025  -0.999  -0.903  -0.876  -0.861  -0.815
 -0.734  -0.694  -0.659  -0.646  -0.642  -0.579  -0.531  -0.525
 -0.514  -0.509  -0.506  -0.491  -0.461  -0.460  -0.429  -0.404
 -0.374  -0.360  -0.304  -0.200
 -- Virtual --
  0.031   0.033   0.044   0.056   0.059   0.063   0.065   0.066
  0.079   0.082   0.085   0.090   0.097   0.104   0.124   0.127
  0.142   0.146   0.147   0.160   0.165   0.170   0.170   0.178
  0.182   0.191   0.194   0.205   0.215   0.218   0.220   0.221
  0.229   0.236   0.242   0.246   0.250   0.259   0.264   0.266
  0.270   0.274   0.276   0.280   0.287   0.297   0.301   0.310
  0.314   0.321   0.330   0.331   0.335   0.340   0.345   0.350
  0.354   0.354   0.356   0.367   0.372   0.374   0.376   0.377
  0.390   0.392   0.396   0.403   0.406   0.411   0.421   0.427
  0.430   0.439   0.442   0.444   0.450   0.452   0.456   0.463
  0.468   0.469   0.484   0.484   0.489   0.499   0.503   0.515
  0.516   0.523   0.524   0.527   0.541   0.544   0.545   0.555
  0.558   0.579   0.587   0.590   0.596   0.596   0.610   0.621
  0.627   0.634   0.644   0.646   0.651   0.658   0.675   0.677
  0.683   0.688   0.698   0.703   0.705   0.710   0.724   0.726
  0.732   0.734   0.740   0.751   0.751   0.752   0.759   0.760
  0.769   0.770   0.775   0.782   0.785   0.789   0.794   0.799
  0.811   0.822   0.839   0.841   0.848   0.853   0.854   0.854
  0.870   0.888   0.895   0.911   0.919   0.919   0.928   0.935
  0.956   0.958   0.975   0.980   0.991   0.995   1.005   1.010
  1.020   1.023   1.042   1.056   1.062   1.062   1.093   1.098
  1.123   1.133   1.144   1.155   1.161   1.165   1.217   1.220
  1.229   1.244   1.256   1.283   1.286   1.330   1.336   1.364
  1.364   1.376   1.388   1.417   1.429   1.429   1.449   1.473
  1.473   1.481   1.483   1.490   1.515   1.530   1.555   1.566
  1.573   1.589   1.601   1.621   1.648   1.651   1.664   1.688
  1.697   1.697   1.715   1.725   1.729   1.729   1.739   1.748
  1.749   1.785   1.793   1.795   1.801   1.828   1.833   1.843
  1.855   1.861   1.877   1.895   1.900   1.917   1.945   1.959
  1.960   1.987   1.992   2.011   2.030   2.043   2.050   2.056
  2.079   2.087   2.089   2.103   2.117   2.132   2.146   2.151
  2.158   2.165   2.172   2.201   2.218   2.234   2.248   2.250
  2.268   2.302   2.312   2.317   2.335   2.356   2.391   2.409
  2.438   2.492   2.496   2.569   2.590   2.600   2.620   2.620
  2.623   2.697   2.708   2.727   2.731   2.783   2.784   2.817
  2.832   2.848   2.850   2.851   2.888   2.897   2.908   2.911
  2.942   2.997   3.037   3.039   3.045   3.059   3.071   3.083
  3.098   3.102   3.114   3.129   3.133   3.138   3.158   3.181
  3.197   3.201   3.202   3.219   3.233   3.243   3.264   3.264
  3.282   3.294   3.297   3.332   3.335   3.336   3.343   3.353
  3.380   3.412   3.445   3.446   3.451   3.472   3.474   3.476
  3.502   3.507   3.520   3.530   3.548   3.565   3.573   3.577
  3.586   3.600   3.639   3.650   3.654   3.695   3.702   3.710
  3.722   3.728   3.746   3.763   3.772   3.789   3.800   3.842
  3.847   3.857   3.884   3.890   3.899   3.911   3.921   3.926
  3.950   3.979   4.007   4.019   4.040   4.063   4.069   4.077
  4.089   4.093   4.123   4.134   4.153   4.242   4.259   4.264
  4.271   4.288   4.309   4.311   4.350   4.375   4.396   4.421
  4.445   4.469   4.498   4.526   4.533   4.539   4.551   4.605
  4.624   4.647   4.687   4.715   4.723   4.756   4.817   4.864
  4.871   4.877   4.915   4.965   4.970   5.020   5.070   5.137
  5.182   5.211   5.220   5.236   5.257   5.283   5.300   5.306
  5.341   5.374   5.392   5.488   5.528   5.552   5.730   5.761
  5.778   5.866   5.908   6.211   6.302   6.909   6.950   6.955
  6.970   7.064   7.107   7.113   7.192   7.492   7.568   9.183
  9.234   9.711   9.745   9.749   9.835  20.706  21.010  23.135
 23.296  23.412  23.466  23.488  23.626  23.922  24.040
 
 Beta MOs
 -- Occupied --
-89.203 -89.203 -10.388 -10.388 -10.376 -10.376 -10.361 -10.361
-10.356 -10.356  -8.138  -8.138  -6.049  -6.049  -6.045  -6.045
 -6.041  -6.041  -1.018  -0.991  -0.894  -0.868  -0.855  -0.800
 -0.721  -0.688  -0.652  -0.638  -0.637  -0.574  -0.520  -0.509
 -0.508  -0.502  -0.500  -0.460  -0.456  -0.455  -0.424  -0.358
 -0.342  -0.341
 -- Virtual --
 -0.065   0.024   0.031   0.033   0.043   0.056   0.058   0.063
  0.067   0.079   0.079   0.084   0.098   0.104   0.105   0.105
  0.124   0.127   0.144   0.149   0.161   0.166   0.170   0.170
  0.171   0.178   0.182   0.193   0.193   0.206   0.220   0.221
  0.222   0.222   0.230   0.238   0.242   0.246   0.249   0.263
  0.265   0.268   0.275   0.275   0.280   0.281   0.289   0.298
  0.306   0.310   0.315   0.322   0.332   0.334   0.335   0.342
  0.345   0.351   0.355   0.355   0.358   0.368   0.372   0.377
  0.379   0.379   0.393   0.397   0.398   0.404   0.407   0.415
  0.422   0.429   0.432   0.439   0.444   0.445   0.452   0.454
  0.459   0.464   0.470   0.472   0.485   0.486   0.490   0.501
  0.504   0.514   0.516   0.523   0.524   0.529   0.542   0.546
  0.547   0.557   0.561   0.580   0.588   0.591   0.596   0.599
  0.611   0.622   0.627   0.638   0.644   0.650   0.654   0.661
  0.677   0.680   0.685   0.692   0.700   0.707   0.711   0.714
  0.727   0.728   0.735   0.735   0.742   0.752   0.753   0.756
  0.760   0.761   0.772   0.774   0.777   0.783   0.786   0.793
  0.797   0.800   0.815   0.825   0.840   0.841   0.852   0.856
  0.857   0.859   0.874   0.890   0.898   0.920   0.922   0.924
  0.932   0.936   0.958   0.961   0.986   0.990   0.994   1.005
  1.012   1.013   1.021   1.023   1.046   1.062   1.064   1.065
  1.097   1.105   1.128   1.145   1.146   1.156   1.163   1.177
  1.222   1.223   1.231   1.247   1.258   1.288   1.293   1.334
  1.339   1.366   1.369   1.387   1.397   1.429   1.431   1.437
  1.452   1.475   1.478   1.485   1.486   1.500   1.520   1.535
  1.561   1.569   1.578   1.593   1.621   1.626   1.652   1.657
  1.676   1.694   1.703   1.705   1.722   1.729   1.731   1.734
  1.747   1.750   1.753   1.799   1.805   1.812   1.819   1.835
  1.846   1.855   1.858   1.883   1.894   1.905   1.913   1.923
  1.952   1.963   1.964   1.998   2.000   2.012   2.041   2.056
  2.057   2.064   2.083   2.096   2.104   2.114   2.122   2.136
  2.151   2.165   2.166   2.177   2.184   2.209   2.223   2.245
  2.257   2.266   2.283   2.306   2.323   2.323   2.346   2.368
  2.404   2.416   2.449   2.502   2.506   2.579   2.598   2.616
  2.630   2.633   2.639   2.716   2.719   2.748   2.749   2.791
  2.798   2.830   2.843   2.857   2.857   2.859   2.908   2.910
  2.920   2.931   2.956   3.007   3.048   3.054   3.055   3.084
  3.096   3.101   3.111   3.119   3.123   3.142   3.142   3.154
  3.170   3.192   3.209   3.222   3.225   3.234   3.262   3.272
  3.273   3.279   3.298   3.306   3.312   3.346   3.349   3.357
  3.359   3.368   3.401   3.426   3.462   3.465   3.470   3.489
  3.490   3.496   3.509   3.520   3.533   3.545   3.564   3.585
  3.587   3.595   3.603   3.612   3.652   3.665   3.669   3.707
  3.718   3.723   3.732   3.738   3.753   3.779   3.787   3.802
  3.813   3.859   3.860   3.865   3.896   3.903   3.912   3.925
  3.936   3.937   3.962   3.987   4.011   4.026   4.045   4.073
  4.080   4.091   4.100   4.104   4.134   4.143   4.170   4.254
  4.267   4.273   4.278   4.295   4.315   4.330   4.369   4.394
  4.403   4.425   4.451   4.475   4.504   4.543   4.547   4.547
  4.560   4.623   4.636   4.658   4.704   4.726   4.739   4.773
  4.830   4.878   4.887   4.914   4.950   4.976   4.989   5.038
  5.088   5.151   5.199   5.220   5.244   5.251   5.268   5.295
  5.318   5.320   5.360   5.383   5.431   5.515   5.553   5.589
  5.746   5.773   5.791   5.885   5.925   6.227   6.316   6.910
  6.952   6.957   6.972   7.067   7.108   7.116   7.192   7.494
  7.571   9.188   9.239   9.711   9.745   9.750   9.835  20.708
 21.011  23.138  23.299  23.417  23.472  23.494  23.629  23.924
 24.044
 --------------------------------------------------------------
 
          Ground-State Mulliken Net Atomic Charges

     Atom                 Charge (a.u.)    Spin (a.u.)
  --------------------------------------------------------
      1 S                    -0.182171       0.091054
      2 C                    -0.190070       0.452259
      3 H                     0.230210       0.015534
      4 C                    -0.288558      -0.083941
      5 H                     0.152079      -0.000508
      6 C                    -0.234804       0.344154
      7 H                     0.086865       0.024568
      8 C                     0.426364       0.157449
      9 C                     0.417703       0.156608
     10 C                    -0.223777       0.343467
     11 H                     0.086598       0.024505
     12 C                    -0.281796      -0.083184
     13 H                     0.152384      -0.000408
     14 C                    -0.195729       0.451699
     15 H                     0.227753       0.015748
     16 S                    -0.183050       0.090997
  --------------------------------------------------------
  Sum of atomic charges =     0.000000
  Sum of spin   charges =     2.000000

 -----------------------------------------------------------------
                    Cartesian Multipole Moments
 -----------------------------------------------------------------
    Charge (ESU x 10^10)
                -9.6064
    Dipole Moment (Debye)
         X       7.9228      Y      -1.5828      Z      17.9776
       Tot      19.7096
    Quadrupole Moments (Debye-Ang)
        XX    -108.5596     XY       0.9227     YY     -85.0644
        XZ     -27.3269     YZ       3.9660     ZZ    -121.6195
    Octopole Moments (Debye-Ang^2)
       XXX     270.2621    XXY     -19.8505    XYY      69.8669
       YYY     -41.6272    XXZ     220.1143    XYZ      -4.7730
       YYZ     159.8447    XZZ     143.2873    YZZ     -26.0381
       ZZZ     545.5138
    Hexadecapole Moments (Debye-Ang^3)
      XXXX   -2245.6337   XXXY      60.3370   XXYY    -419.9200
      XYYY      77.7821   YYYY    -162.7512   XXXZ    -915.1079
      XXYZ      32.1104   XYYZ    -262.4339   YYYZ      19.9403
      XXZZ    -980.5178   XYZZ      48.1683   YYZZ    -516.6401
      XZZZ    -891.9431   YZZZ      87.0896   ZZZZ   -2851.1215
 -----------------------------------------------------------------
 Calculating analytic gradient of the SCF energy
 Number of grid points used for NLC = 44548
 Gradient of SCF Energy
            1           2           3           4           5           6
    1   0.0000842  -0.0001947   0.0000256  -0.0000032  -0.0000037   0.0000622
    2  -0.0000058   0.0000273  -0.0000307  -0.0000556   0.0000104   0.0000530
    3   0.0001450   0.0000641  -0.0000218  -0.0001805  -0.0000185   0.0000857
            7           8           9          10          11          12
    1   0.0000056  -0.0000880   0.0001882  -0.0000827  -0.0000222   0.0001414
    2   0.0000009  -0.0000487  -0.0000006   0.0000311   0.0000223  -0.0000517
    3   0.0000028  -0.0001658  -0.0000586   0.0000309   0.0000002  -0.0000759
           13          14          15          16
    1   0.0000049   0.0000513   0.0000018  -0.0001709
    2   0.0000236   0.0000364  -0.0000205   0.0000086
    3   0.0000006   0.0002035  -0.0000153   0.0000036
 Max gradient component =       2.035E-04
 RMS gradient           =       8.084E-05
 Gradient time:  CPU 92.73 s  wall 92.29 s
 Geometry Optimization Parameters
   NAtoms,    NIC,     NZ,  NCons,   NDum,   NFix, NCnnct, MaxDiis
       16     111       0       1       0       0       0       0

 Cartesian Hessian Update
 Hessian Updated using BFGS Update


** CONSTRAINED OPTIMIZATION IN DELOCALIZED INTERNAL COORDINATES **
   Searching for a Minimum

   Optimization Cycle:   3

                       Coordinates (Angstroms)
     ATOM                X               Y               Z
      1  S        -0.0067136194    0.4474099247   -0.0255070658
      2  C         1.7045009842    0.2147009079   -0.0479033179
      3  H         2.2775955727    0.3273367300    0.8565177764
      4  C         2.1893135155   -0.1125438176   -1.3134357893
      5  H         3.2382050714   -0.2889937099   -1.5010987193
      6  C         1.2179018420   -0.1866692705   -2.2782322368
      7  H         1.3931054183   -0.4250784616   -3.3148420078
      8  C        -0.1118120729    0.0954663236   -1.7566841794
      9  C        -1.2746386537    0.1047562350   -2.4365928687
     10  C        -1.4741853577   -0.1653499846   -3.8532044507
     11  H        -0.6585692153   -0.4096209900   -4.5140414501
     12  C        -2.7898745139   -0.0719516181   -4.2273916986
     13  H        -3.1432396036   -0.2366040841   -5.2345859841
     14  C        -3.6516844814    0.2591820614   -3.1827128142
     15  H        -4.7195249777    0.3861465650   -3.2378931263
     16  S        -2.8315716085    0.4700208787   -1.6779219072
   Point Group: c1    Number of degrees of freedom:    42


   Energy is  -1104.695095587

              Constraints and their Current Values
                                        Value     Constraint
   Dihedral:        6   8   9  10       -0.000        0.000
 Hessian Updated using BFGS Update

 32 Hessian modes will be used to form the next step
  Hessian Eigenvalues:
     0.043980    0.045000    0.045000    0.045000    0.045001    0.045017
     0.136109    0.160068    0.160587    0.177355    0.221248    0.222626
     0.237575    0.246813    0.250006    0.279362    0.282924    0.320100
     0.320858    0.359846    0.359862    0.360471    0.361148    0.363813
     0.364002    0.364786    0.366885    0.448139    0.448606    0.491775
     0.495583    0.583436

 Minimum Search - Taking Simple RFO Step
 Searching for Lamda that Minimizes Along All modes
 Value Taken    Lamda =   0.00000000
 Step Taken.  Stepsize is  0.001596

                             Maximum     Tolerance    Cnvgd?
         Gradient           0.000203      0.000300     YES
         Displacement       0.000803      0.001200     YES
         Energy change     -0.000011      0.000001      NO

 Final energy is   -1104.69509558720     


 ******************************
 **  OPTIMIZATION CONVERGED  **
 ******************************

                       Coordinates (Angstroms)
     ATOM                X               Y               Z
      1  S        -0.0067136194    0.4474099247   -0.0255070658
      2  C         1.7045009842    0.2147009079   -0.0479033179
      3  H         2.2775955727    0.3273367300    0.8565177764
      4  C         2.1893135155   -0.1125438176   -1.3134357893
      5  H         3.2382050714   -0.2889937099   -1.5010987193
      6  C         1.2179018420   -0.1866692705   -2.2782322368
      7  H         1.3931054183   -0.4250784616   -3.3148420078
      8  C        -0.1118120729    0.0954663236   -1.7566841794
      9  C        -1.2746386537    0.1047562350   -2.4365928687
     10  C        -1.4741853577   -0.1653499846   -3.8532044507
     11  H        -0.6585692153   -0.4096209900   -4.5140414501
     12  C        -2.7898745139   -0.0719516181   -4.2273916986
     13  H        -3.1432396036   -0.2366040841   -5.2345859841
     14  C        -3.6516844814    0.2591820614   -3.1827128142
     15  H        -4.7195249777    0.3861465650   -3.2378931263
     16  S        -2.8315716085    0.4700208787   -1.6779219072

Z-matrix Print:
$molecule
0 3
S 
C  1 1.727110
H  2 1.076616 1 120.160368
C  2 1.394168 1 112.826391 3 -179.920919 0
H  4 1.080058 2 122.260987 1 179.860788 0
C  4 1.371119 2 113.894399 1 -0.149497 0
H  6 1.078005 4 124.990857 2 179.960783 0
C  6 1.455937 4 112.613806 2 -0.019778 0
C  8 1.347044 6 127.512263 4 -179.953799 0
C  9 1.455872 8 127.457242 6 -0.000000 0
H  10 1.077777 9 122.339728 8 -0.002614 0
C  10 1.371050 9 112.609646 8 -179.986506 0
H  12 1.080008 10 123.925242 9 -179.987764 0
C  12 1.394174 10 113.882799 9 0.014544 0
H  14 1.076777 12 127.058285 10 -179.944642 0
S  14 1.726683 12 112.856634 10 0.102023 0
$end

 
 --------------------------------------------------------------
 
                    Orbital Energies (a.u.)
 --------------------------------------------------------------
 
 Alpha MOs
 -- Occupied --
-89.203 -89.203 -10.391 -10.390 -10.384 -10.384 -10.362 -10.362
-10.359 -10.359  -8.139  -8.139  -6.049  -6.049  -6.046  -6.045
 -6.044  -6.044  -1.025  -0.999  -0.903  -0.876  -0.861  -0.815
 -0.734  -0.694  -0.659  -0.646  -0.642  -0.579  -0.531  -0.525
 -0.514  -0.509  -0.506  -0.491  -0.461  -0.460  -0.429  -0.404
 -0.374  -0.360  -0.304  -0.200
 -- Virtual --
  0.031   0.033   0.044   0.056   0.059   0.063   0.065   0.066
  0.079   0.082   0.085   0.090   0.097   0.104   0.124   0.127
  0.142   0.146   0.147   0.160   0.165   0.170   0.170   0.178
  0.182   0.191   0.194   0.205   0.215   0.218   0.220   0.221
  0.229   0.236   0.242   0.246   0.250   0.259   0.264   0.266
  0.270   0.274   0.276   0.280   0.287   0.297   0.301   0.310
  0.314   0.321   0.330   0.331   0.335   0.340   0.345   0.350
  0.354   0.354   0.356   0.367   0.372   0.374   0.376   0.377
  0.390   0.392   0.396   0.403   0.406   0.411   0.421   0.427
  0.430   0.439   0.442   0.444   0.450   0.452   0.456   0.463
  0.468   0.469   0.484   0.484   0.489   0.499   0.503   0.515
  0.516   0.523   0.524   0.527   0.541   0.544   0.545   0.555
  0.558   0.579   0.587   0.590   0.596   0.596   0.610   0.621
  0.627   0.634   0.644   0.646   0.651   0.658   0.675   0.677
  0.683   0.688   0.698   0.703   0.705   0.710   0.724   0.726
  0.732   0.734   0.740   0.751   0.751   0.752   0.759   0.760
  0.769   0.770   0.775   0.782   0.785   0.789   0.794   0.799
  0.811   0.822   0.839   0.841   0.848   0.853   0.854   0.854
  0.870   0.888   0.895   0.911   0.919   0.919   0.928   0.935
  0.956   0.958   0.975   0.980   0.991   0.995   1.005   1.010
  1.020   1.023   1.042   1.056   1.062   1.062   1.093   1.098
  1.123   1.133   1.144   1.155   1.161   1.165   1.217   1.220
  1.229   1.244   1.256   1.283   1.286   1.330   1.336   1.364
  1.364   1.376   1.388   1.417   1.429   1.429   1.449   1.473
  1.473   1.481   1.483   1.490   1.515   1.530   1.555   1.566
  1.573   1.589   1.601   1.621   1.648   1.651   1.664   1.688
  1.697   1.697   1.715   1.725   1.729   1.729   1.739   1.748
  1.749   1.785   1.793   1.795   1.801   1.828   1.833   1.843
  1.855   1.861   1.877   1.895   1.900   1.917   1.945   1.959
  1.960   1.987   1.992   2.011   2.030   2.043   2.050   2.056
  2.079   2.087   2.089   2.103   2.117   2.132   2.146   2.151
  2.158   2.165   2.172   2.201   2.218   2.234   2.248   2.250
  2.268   2.302   2.312   2.317   2.335   2.356   2.391   2.409
  2.438   2.492   2.496   2.569   2.590   2.600   2.620   2.620
  2.623   2.697   2.708   2.727   2.731   2.783   2.784   2.817
  2.832   2.848   2.850   2.851   2.888   2.897   2.908   2.911
  2.942   2.997   3.037   3.039   3.045   3.059   3.071   3.083
  3.098   3.102   3.114   3.129   3.133   3.138   3.158   3.181
  3.197   3.201   3.202   3.219   3.233   3.243   3.264   3.264
  3.282   3.294   3.297   3.332   3.335   3.336   3.343   3.353
  3.380   3.412   3.445   3.446   3.451   3.472   3.474   3.476
  3.502   3.507   3.520   3.530   3.548   3.565   3.573   3.577
  3.586   3.600   3.639   3.650   3.654   3.695   3.702   3.710
  3.722   3.728   3.746   3.763   3.772   3.789   3.800   3.842
  3.847   3.857   3.884   3.890   3.899   3.911   3.921   3.926
  3.950   3.979   4.007   4.019   4.040   4.063   4.069   4.077
  4.089   4.093   4.123   4.134   4.153   4.242   4.259   4.264
  4.271   4.288   4.309   4.311   4.350   4.375   4.396   4.421
  4.445   4.469   4.498   4.526   4.533   4.539   4.551   4.605
  4.624   4.647   4.687   4.715   4.723   4.756   4.817   4.864
  4.871   4.877   4.915   4.965   4.970   5.020   5.070   5.137
  5.182   5.211   5.220   5.236   5.257   5.283   5.300   5.306
  5.341   5.374   5.392   5.488   5.528   5.552   5.730   5.761
  5.778   5.866   5.908   6.211   6.302   6.909   6.950   6.955
  6.970   7.064   7.107   7.113   7.192   7.492   7.568   9.183
  9.234   9.711   9.745   9.749   9.835  20.706  21.010  23.135
 23.296  23.412  23.466  23.488  23.626  23.922  24.040
 
 Beta MOs
 -- Occupied --
-89.203 -89.203 -10.388 -10.388 -10.376 -10.376 -10.361 -10.361
-10.356 -10.356  -8.138  -8.138  -6.049  -6.049  -6.045  -6.045
 -6.041  -6.041  -1.018  -0.991  -0.894  -0.868  -0.855  -0.800
 -0.721  -0.688  -0.652  -0.638  -0.637  -0.574  -0.520  -0.509
 -0.508  -0.502  -0.500  -0.460  -0.456  -0.455  -0.424  -0.358
 -0.342  -0.341
 -- Virtual --
 -0.065   0.024   0.031   0.033   0.043   0.056   0.058   0.063
  0.067   0.079   0.079   0.084   0.098   0.104   0.105   0.105
  0.124   0.127   0.144   0.149   0.161   0.166   0.170   0.170
  0.171   0.178   0.182   0.193   0.193   0.206   0.220   0.221
  0.222   0.222   0.230   0.238   0.242   0.246   0.249   0.263
  0.265   0.268   0.275   0.275   0.280   0.281   0.289   0.298
  0.306   0.310   0.315   0.322   0.332   0.334   0.335   0.342
  0.345   0.351   0.355   0.355   0.358   0.368   0.372   0.377
  0.379   0.379   0.393   0.397   0.398   0.404   0.407   0.415
  0.422   0.429   0.432   0.439   0.444   0.445   0.452   0.454
  0.459   0.464   0.470   0.472   0.485   0.486   0.490   0.501
  0.504   0.514   0.516   0.523   0.524   0.529   0.542   0.546
  0.547   0.557   0.561   0.580   0.588   0.591   0.596   0.599
  0.611   0.622   0.627   0.638   0.644   0.650   0.654   0.661
  0.677   0.680   0.685   0.692   0.700   0.707   0.711   0.714
  0.727   0.728   0.735   0.735   0.742   0.752   0.753   0.756
  0.760   0.761   0.772   0.774   0.777   0.783   0.786   0.793
  0.797   0.800   0.815   0.825   0.840   0.841   0.852   0.856
  0.857   0.859   0.874   0.890   0.898   0.920   0.922   0.924
  0.932   0.936   0.958   0.961   0.986   0.990   0.994   1.005
  1.012   1.013   1.021   1.023   1.046   1.062   1.064   1.065
  1.097   1.105   1.128   1.145   1.146   1.156   1.163   1.177
  1.222   1.223   1.231   1.247   1.258   1.288   1.293   1.334
  1.339   1.366   1.369   1.387   1.397   1.429   1.431   1.437
  1.452   1.475   1.478   1.485   1.486   1.500   1.520   1.535
  1.561   1.569   1.578   1.593   1.621   1.626   1.652   1.657
  1.676   1.694   1.703   1.705   1.722   1.729   1.731   1.734
  1.747   1.750   1.753   1.799   1.805   1.812   1.819   1.835
  1.846   1.855   1.858   1.883   1.894   1.905   1.913   1.923
  1.952   1.963   1.964   1.998   2.000   2.012   2.041   2.056
  2.057   2.064   2.083   2.096   2.104   2.114   2.122   2.136
  2.151   2.165   2.166   2.177   2.184   2.209   2.223   2.245
  2.257   2.266   2.283   2.306   2.323   2.323   2.346   2.368
  2.404   2.416   2.449   2.502   2.506   2.579   2.598   2.616
  2.630   2.633   2.639   2.716   2.719   2.748   2.749   2.791
  2.798   2.830   2.843   2.857   2.857   2.859   2.908   2.910
  2.920   2.931   2.956   3.007   3.048   3.054   3.055   3.084
  3.096   3.101   3.111   3.119   3.123   3.142   3.142   3.154
  3.170   3.192   3.209   3.222   3.225   3.234   3.262   3.272
  3.273   3.279   3.298   3.306   3.312   3.346   3.349   3.357
  3.359   3.368   3.401   3.426   3.462   3.465   3.470   3.489
  3.490   3.496   3.509   3.520   3.533   3.545   3.564   3.585
  3.587   3.595   3.603   3.612   3.652   3.665   3.669   3.707
  3.718   3.723   3.732   3.738   3.753   3.779   3.787   3.802
  3.813   3.859   3.860   3.865   3.896   3.903   3.912   3.925
  3.936   3.937   3.962   3.987   4.011   4.026   4.045   4.073
  4.080   4.091   4.100   4.104   4.134   4.143   4.170   4.254
  4.267   4.273   4.278   4.295   4.315   4.330   4.369   4.394
  4.403   4.425   4.451   4.475   4.504   4.543   4.547   4.547
  4.560   4.623   4.636   4.658   4.704   4.726   4.739   4.773
  4.830   4.878   4.887   4.914   4.950   4.976   4.989   5.038
  5.088   5.151   5.199   5.220   5.244   5.251   5.268   5.295
  5.318   5.320   5.360   5.383   5.431   5.515   5.553   5.589
  5.746   5.773   5.791   5.885   5.925   6.227   6.316   6.910
  6.952   6.957   6.972   7.067   7.108   7.116   7.192   7.494
  7.571   9.188   9.239   9.711   9.745   9.750   9.835  20.708
 21.011  23.138  23.299  23.417  23.472  23.494  23.629  23.924
 24.044
 --------------------------------------------------------------
 
          Ground-State Mulliken Net Atomic Charges

     Atom                 Charge (a.u.)    Spin (a.u.)
  --------------------------------------------------------
      1 S                    -0.182171       0.091054
      2 C                    -0.190070       0.452259
      3 H                     0.230210       0.015534
      4 C                    -0.288558      -0.083941
      5 H                     0.152079      -0.000508
      6 C                    -0.234804       0.344154
      7 H                     0.086865       0.024568
      8 C                     0.426364       0.157449
      9 C                     0.417703       0.156608
     10 C                    -0.223777       0.343467
     11 H                     0.086598       0.024505
     12 C                    -0.281796      -0.083184
     13 H                     0.152384      -0.000408
     14 C                    -0.195729       0.451699
     15 H                     0.227753       0.015748
     16 S                    -0.183050       0.090997
  --------------------------------------------------------
  Sum of atomic charges =     0.000000
  Sum of spin   charges =     2.000000

 -----------------------------------------------------------------
                    Cartesian Multipole Moments
 -----------------------------------------------------------------
    Charge (ESU x 10^10)
                -9.6064
    Dipole Moment (Debye)
         X       7.9228      Y      -1.5828      Z      17.9776
       Tot      19.7096
    Quadrupole Moments (Debye-Ang)
        XX    -108.5596     XY       0.9227     YY     -85.0644
        XZ     -27.3269     YZ       3.9660     ZZ    -121.6195
    Octopole Moments (Debye-Ang^2)
       XXX     270.2621    XXY     -19.8505    XYY      69.8669
       YYY     -41.6272    XXZ     220.1143    XYZ      -4.7730
       YYZ     159.8447    XZZ     143.2873    YZZ     -26.0381
       ZZZ     545.5138
    Hexadecapole Moments (Debye-Ang^3)
      XXXX   -2245.6337   XXXY      60.3370   XXYY    -419.9200
      XYYY      77.7821   YYYY    -162.7512   XXXZ    -915.1079
      XXYZ      32.1104   XYYZ    -262.4339   YYYZ      19.9403
      XXZZ    -980.5178   XYZZ      48.1683   YYZZ    -516.6401
      XZZZ    -891.9431   YZZZ      87.0896   ZZZZ   -2851.1215
 -----------------------------------------------------------------
Archival summary:
1\1\nid01268\OPT\ProcedureUnspecified\BasisUnspecified\286(3)\bwood\ThuFeb2200:42:532018ThuFeb2200:42:532018\0\\#,OPT,ProcedureUnspecified,BasisUnspecified,\\0,3\S\C,1,1.72711\H,2,1.07662,1,120.16\C,2,1.39417,1,112.826,3,-179.921,0\H,4,1.08006,2,122.261,1,179.861,0\C,4,1.37112,2,113.894,1,-0.149497,0\H,6,1.07801,4,124.991,2,179.961,0\C,6,1.45594,4,112.614,2,-0.0197781,0\C,8,1.34704,6,127.512,4,-179.954,0\C,9,1.45587,8,127.457,6,-0,0\H,10,1.07778,9,122.34,8,-0.00261372,0\C,10,1.37105,9,112.61,8,-179.987,0\H,12,1.08001,10,123.925,9,-179.988,0\C,12,1.39417,10,113.883,9,0.0145437,0\H,14,1.07678,12,127.058,10,-179.945,0\S,14,1.72668,12,112.857,10,0.102023,0\\\@

 Total job time:  1581.70s(wall), 1593.91s(cpu) 
 Thu Feb 22 00:42:53 2018

        *************************************************************
        *                                                           *
        *  Thank you very much for using Q-Chem.  Have a nice day.  *
        *                                                           *
        *************************************************************


0 sent ACK to 0 
now end server 0 ... 
