
Running Job 1 of 1 mol.qin
qchem mol.qin_26457.0 /tmp/chain_scratch/ 1
/global/common/cori/software/qchem/5.1/exe/qcprog.exe mol.qin_26457.0 /tmp/chain_scratch/
Check license passed

                  Welcome to Q-Chem
     A Quantum Leap Into The Future Of Chemistry


 Q-Chem 5.1, Q-Chem, Inc., Pleasanton, CA (2018)

 Yihan Shao,  Zhengting Gan,  E. Epifanovsky,  A. T. B. Gilbert,  M. Wormit,  
 J. Kussmann,  A. W. Lange,  A. Behn,  Jia Deng,  Xintian Feng,  D. Ghosh,  
 M. Goldey,  P. R. Horn,  L. D. Jacobson,  I. Kaliman,  T. Kus,  A. Landau,  
 Jie Liu,  E. I. Proynov,  R. M. Richard,  R. P. Steele,  E. J. Sundstrom,  
 H. L. Woodcock III,  P. M. Zimmerman,  D. Zuev,  B. Albrecht,  E. Alguire,  
 S. A. Baeppler,  D. Barton,  Z. Benda,  Y. A. Bernard,  E. J. Berquist,  
 K. B. Bravaya,  H. Burton,  D. Casanova,  Chun-Min Chang,  Yunqing Chen,  
 A. Chien,  K. D. Closser,  M. P. Coons,  S. Coriani,  S. Dasgupta,  
 A. L. Dempwolff,  M. Diedenhofen,  Hainam Do,  R. G. Edgar,  Po-Tung Fang,  
 S. Faraji,  S. Fatehi,  Qingguo Feng,  K. D. Fenk,  J. Fosso-Tande,  
 Qinghui Ge,  A. Ghysels,  G. Gidofalvi,  J. Gomes,  J. Gonthier,  A. Gunina,  
 D. Hait,  M. W. D. Hanson-Heine,  P. H. P. Harbach,  A. W. Hauser,  
 J. E. Herr,  E. G. Hohenstein,  Z. C. Holden,  Kerwin Hui,  B. C. Huynh,  
 T.-C. Jagau,  Hyunjun Ji,  B. Kaduk,  K. Khistyaev,  Jaehoon Kim,  
 P. Klunzinger,  K. Koh,  D. Kosenkov,  L. Koulias,  T. Kowalczyk,  
 C. M. Krauter,  A. Kunitsa,  Ka Un Lao,  A. Laurent,  K. V. Lawler,  
 Joonho Lee,  D. Lefrancois,  S. Lehtola,  D. S. Levine,  Yi-Pei Li,  
 You-Sheng Lin,  Fenglai Liu,  E. Livshits,  A. Luenser,  P. Manohar,  
 E. Mansoor,  S. F. Manzer,  Shan-Ping Mao,  Yuezhi Mao,  N. Mardirossian,  
 A. V. Marenich,  T. Markovich,  L. A. Martinez-Martinez,  S. A. Maurer,  
 N. J. Mayhall,  S. C. McKenzie,  J.-M. Mewes,  A. F. Morrison,  
 J. W. Mullinax,  K. Nanda,  T. S. Nguyen-Beck,  R. Olivares-Amaya,  
 J. A. Parkhill,  T. M. Perrine,  F. Plasser,  P. Pokhilko,  S. Prager,  
 A. Prociuk,  E. Ramos,  D. R. Rehn,  F. Rob,  M. Schneider,  N. Sergueev,  
 S. M. Sharada,  S. Sharma,  D. W. Small,  T. Stauch,  T. Stein,  
 Yu-Chuan Su,  A. J. W. Thom,  A. Tkatchenko,  T. Tsuchimochi,  N. M. Tubman,  
 L. Vogt,  M. L. Vidal,  O. Vydrov,  M. A. Watson,  J. Wenzel,  
 M. de Wergifosse,  T. A. Wesolowski,  A. White,  J. Witte,  A. Yamada,  
 Jun Yang,  K. Yao,  S. Yeganeh,  S. R. Yost,  Zhi-Qiang You,  A. Zech,  
 Igor Ying Zhang,  Xing Zhang,  Yan Zhao,  Ying Zhu,  B. R. Brooks,  
 G. K. L. Chan,  C. J. Cramer,  M. S. Gordon,  W. J. Hehre,  A. Klamt,  
 M. W. Schmidt,  C. D. Sherrill,  D. G. Truhlar,  A. Aspuru-Guzik,  R. Baer,  
 A. T. Bell,  N. A. Besley,  Jeng-Da Chai,  R. A. DiStasio Jr.,  A. Dreuw,  
 B. D. Dunietz,  T. R. Furlani,  Chao-Ping Hsu,  Yousung Jung,  Jing Kong,  
 D. S. Lambrecht,  WanZhen Liang,  C. Ochsenfeld,  V. A. Rassolov,  
 L. V. Slipchenko,  J. E. Subotnik,  T. Van Voorhis,  J. M. Herbert,  
 A. I. Krylov,  P. M. W. Gill,  M. Head-Gordon

 Contributors to earlier versions of Q-Chem not listed above: 
 R. D. Adamson,  B. Austin,  J. Baker,  G. J. O. Beran,  K. Brandhorst,  
 S. T. Brown,  E. F. C. Byrd,  A. K. Chakraborty,  C.-L. Cheng,  
 Siu Hung Chien,  D. M. Chipman,  D. L. Crittenden,  H. Dachsel,  
 R. J. Doerksen,  A. D. Dutoi,  L. Fusti-Molnar,  W. A. Goddard III,  
 A. Golubeva-Zadorozhnaya,  S. R. Gwaltney,  G. Hawkins,  A. Heyden,  
 S. Hirata,  G. Kedziora,  F. J. Keil,  C. Kelley,  Jihan Kim,  R. A. King,  
 R. Z. Khaliullin,  P. P. Korambath,  W. Kurlancheek,  A. M. Lee,  M. S. Lee,  
 S. V. Levchenko,  Ching Yeh Lin,  D. Liotard,  R. C. Lochan,  I. Lotan,  
 P. E. Maslen,  N. Nair,  D. P. O'Neill,  D. Neuhauser,  E. Neuscamman,  
 C. M. Oana,  R. Olson,  B. Peters,  R. Peverati,  P. A. Pieniazek,  
 Y. M. Rhee,  J. Ritchie,  M. A. Rohrdanz,  E. Rosta,  N. J. Russ,  
 H. F. Schaefer III,  N. E. Schultz,  N. Shenvi,  A. C. Simmonett,  A. Sodt,  
 D. Stuck,  K. S. Thanthiriwatte,  V. Vanovschi,  Tao Wang,  A. Warshel,  
 C. F. Williams,  Q. Wu,  X. Xu,  W. Zhang

 Please cite Q-Chem as follows:
 Y. Shao et al., Mol. Phys. 113, 184-215 (2015)
 DOI: 10.1080/00268976.2014.952696

 Q-Chem 5.1.0 for Intel X86 EM64T Linux

 Parts of Q-Chem use Armadillo 8.300.2 (Tropical Shenanigans).
 http://arma.sourceforge.net/

 Q-Chem begins on Fri Dec 28 17:44:14 2018  

Host: cori08
0

     Scratch files written to /tmp/chain_scratch//
 Jun2518 |scratch|qcdevops|jenkins|workspace|build_RNUM -1
Processing $rem in /global/common/cori/software/qchem/5.1/config/preferences.
 MEM_TOTAL  96000 
The previous job contains 0 fragments, simply inherited here
Symmetry turned off for PCM/SM12/SMD calculation

Checking the input file for inconsistencies... 	...done.

--------------------------------------------------------------
User input:
--------------------------------------------------------------
$molecule
read
$end

$rem
job_type = freq
basis = 6-31++g**
max_scf_cycles = 200
gen_scfman = true
xc_grid = 3
scf_algorithm = diis_gdm
method = wb97xd
geom_opt_max_cycles = 200
solvent_method = smd
ideriv = 1
scf_guess = read
$end

$smx
solvent acetonitrile
$end
--------------------------------------------------------------
 ----------------------------------------------------------------
             Standard Nuclear Orientation (Angstroms)
    I     Atom           X                Y                Z
 ----------------------------------------------------------------
    1      Li      3.1351740028     0.0301864208    -0.0899927667
    2      C      -1.8538615271     0.7559400247    -0.0168212819
    3      O      -0.5147111757     1.0899260690     0.4909313057
    4      C      -1.8646023775    -0.7607766071     0.0024922094
    5      S       0.5219694491    -0.0076412814     0.0393130319
    6      O      -0.5007768592    -1.1187101760    -0.4129945813
    7      O       1.3372826952     0.4021260438    -1.1028267119
    8      O       1.3544483179    -0.4032823856     1.1682731513
    9      H      -2.5631330789     1.1984966982     0.6776960709
   10      H      -1.9477570036     1.1752479173    -1.0172464239
   11      H      -2.0311006070    -1.1662410891     0.9955158647
   12      H      -2.5345042973    -1.1951653734    -0.7350107572
 ----------------------------------------------------------------
 Nuclear Repulsion Energy =   484.2071654516 hartrees
 There are       33 alpha and       33 beta electrons
 Requested basis set is 6-31++G(d,p)
 There are 57 shells and 180 basis functions

 Total QAlloc Memory Limit  96000 MB
 Mega-Array Size       188 MB
 MEM_STATIC part       192 MB

                       Distance Matrix (Angstroms)
             Li(  1)   C (  2)   O (  3)   C (  4)   S (  5)   O (  6)
   C (  2)  5.042078
   O (  3)  3.844760  1.470606
   C (  4)  5.062800  1.516878  2.342195
   S (  5)  2.616675  2.496153  1.575855  2.502857
   O (  6)  3.826804  2.345657  2.386493  1.469954  1.576409
   O (  7)  2.096803  3.389394  2.538309  3.581360  1.461892  2.483400
   O (  8)  2.223086  3.611301  2.486407  3.442257  1.457431  2.540493
   H (  9)  5.867282  1.086866  2.059782  2.186915  3.373449  3.288216
   H ( 10)  5.292178  1.088800  2.082186  2.189743  2.935148  2.778690
   H ( 11)  5.412962  2.179684  2.764839  1.085458  2.962236  2.080397
   H ( 12)  5.836333  2.187666  3.286965  1.086910  3.369247  2.060482
             O (  7)   O (  8)   H (  9)   H ( 10)   H ( 11)
   O (  8)  2.409745
   H (  9)  4.360930  4.260728
   H ( 10)  3.375874  4.262958  1.803346
   H ( 11)  4.267180  3.474751  2.444597  3.088807
   H ( 12)  4.204446  4.401536  2.779600  2.458208  1.802491
 
 A cutoff of  1.0D-12 yielded   1574 shell pairs
 There are     16206 function pairs
 
 -------------------------------------------------------
 OpenMP Integral Computing Module                       
 Release: version 1.0, May 2013, Q-Chem Inc. Pittsburgh 
 -------------------------------------------------------
 Integral Job Info:
 Integral job number is                      11
 Integral operator is                         1
 short-range coefficients              22203600
 long-range coefficients              100000000
 Omega coefficients                         200
 if combine SR and LR in K                    1
 Integral screening is                        0
 Integral computing path is                   2
 max size of driver memory is            800000
 size of driver memory is                593474
 size of scratch memory is             15604072
 max col of scratch BK array               1296
 max len of scratch array in speh3          155
 max len of scratch index in speh4           18
 max int batch size is                      520
 min int batch size is                       52
 fixed nKL is                                52
 max L of basis functions is                  2
 order of int derivative is                   0
 number of shells is                         57
 number of basis is                         180
 number of cartesian basis is               180
 number of contracted shell pairs          1574
 number of primitive shell pairs           5390
 maxK2 (contraction) of shell pair           36
 max number of K2 of shell pair               1
 max number of CS2 of shell pair            176
 max number of PS2 of shell pair           1056
 mem total for path MDJ                  537180
 -------------------------------------------------------
 Smallest overlap matrix eigenvalue = 1.31E-04

 -----------------------------------------------------------------------
  General SCF calculation program by
  Eric Jon Sundstrom, Paul Horn, Yuezhi Mao, Dmitri Zuev, Alec White,
  David Stuck, Shaama M.S., Shane Yost, Joonho Lee, David Small,
  Daniel Levine, Susi Lehtola, Hugh Burton, Evgeny Epifanovsky
 -----------------------------------------------------------------------
 Exchange:     0.2220 Hartree-Fock + 1.0000 wB97X-D + LR-HF
 Correlation:  1.0000 wB97X-D
 Using SG-3 standard quadrature grid
 Dispersion:   Grimme D
 
 Citation of the SMD model:
 Marenich, A.V.; Cramer, C.J.; Truhlar, D.G.
 J. Phys. Chem. B 2009, 113, 6378-6396.
 iSolventCode=          53
 Solvent: acetonitrile                                                    
 
 vradii
            1           2           3           4           5           6
    1   2.1476001   1.8500000   2.1680000   1.8500000   2.4900000   2.1680000
            7           8           9          10          11          12
    1   2.1680000   2.1680000   1.2000000   1.2000000   1.2000000   1.2000000
Changing PCM_TESSEL_METHOD to VTN
Changing PCM_VDW_RADII to SMD_RADIUS
 Discretize the solute cavity surface with Lebedev spheres
	Using 302 Lebedev grid points for each H atom
	Using 302 Lebedev grid points for other atoms
	Atomic van der Waals radii will be scaled by 1.20
 Removing interior tesserae...
 Keep 1147 surface tesserae and discard 2477 interior tesserae
 Molecular Surface Area = 164.686 Angst**2
 
 Citation of the SMD model:
 Marenich, A.V.; Cramer, C.J.; Truhlar, D.G.
 J. Phys. Chem. B 2009, 113, 6378-6396.
 iSolventCode=          53
 Solvent: acetonitrile                                                    
 
 vradii
            1           2           3           4           5           6
    1   2.1476001   1.8500000   2.1680000   1.8500000   2.4900000   2.1680000
            7           8           9          10          11          12
    1   2.1680000   2.1680000   1.2000000   1.2000000   1.2000000   1.2000000
 using 32 threads for integral computing
 -------------------------------------------------------
 OpenMP Integral computing Module                
 Release: version 1.0, May 2013, Q-Chem Inc. Pittsburgh 
 -------------------------------------------------------
 using 32 threads for integral computing
 -------------------------------------------------------
 OpenMP Integral computing Module                
 Release: version 1.0, May 2013, Q-Chem Inc. Pittsburgh 
 -------------------------------------------------------
 -------------------------------------------------------
 OpenMP BLAS3 based DFT computing Module                
 Release: version 1.0, May 2013, Q-Chem Inc. Pittsburgh 
 -------------------------------------------------------
 A restricted SCF calculation will be
 performed using DIIS, GDM
 SCF converges when RMS gradient is below 1.0e-08
 ---------------------------------------
  Cycle       Energy         DIIS error
 ---------------------------------------
    1    -784.8384849266      4.04e-04  
    2    -784.9323913113      4.43e-04  Done DIIS. Switching to GDM
 ---------------------------------------
  Cycle       Energy        RMS Gradient
 ---------------------------------------
    1    -784.9323913113      6.43e-03   Normal BFGS step
    2    -784.9333667991      2.94e-03   Normal BFGS step
    3    -784.9336038810      1.19e-03   Normal BFGS step
    4    -784.9336437692      5.60e-04   Normal BFGS step
    5    -784.9336479524      2.89e-04   Normal BFGS step
    6    -784.9336493717      1.01e-04   Normal BFGS step
    7    -784.9336495443      5.60e-05   Normal BFGS step
    8    -784.9336495982      8.77e-06   Normal BFGS step
    9    -784.9336496004      7.76e-06   Normal BFGS step
   10    -784.9336496010      2.79e-06   Normal BFGS step
   11    -784.9336496011      8.64e-07   Normal BFGS step
   12    -784.9336496011      1.46e-07   Normal BFGS step
   13    -784.9336496011      3.40e-08   Normal BFGS step
   14    -784.9336496011      9.89e-09  Convergence criterion met
 ---------------------------------------
 SCF time:   CPU 579.98s  wall 23.00s 
(0)  E-EN(g) gas-phase elect-nuc energy                    0.000000000 a.u.
(3)  G-ENP(liq) elect-nuc-pol free energy of system     -784.933649601 a.u.
(4)  G-CDS(liq) cavity-dispersion-solvent structure 
     free energy                                               -0.3958 kcal/mol
(6)  G-S(liq) free energy of system                     -784.934280348 a.u.
(9)  DeltaG-S(liq) free energy of  solvation
     (9) = (6) - (0)                                      -492553.6950 kcal/mol
 SCF   energy in the final basis set =     -784.9336496011
 Total energy in the final basis set =     -784.9342803484
 
 --------------------------------------------------------------
 
                    Orbital Energies (a.u.)
 --------------------------------------------------------------
 
 Alpha MOs
 -- Occupied --
-89.382 -19.389 -19.389 -19.346 -19.345 -10.399 -10.399  -8.366
 -6.318  -6.316  -6.315  -2.164  -1.354  -1.227  -1.207  -1.177
 -0.926  -0.814  -0.778  -0.678  -0.671  -0.637  -0.622  -0.592
 -0.571  -0.540  -0.523  -0.510  -0.490  -0.487  -0.485  -0.440
 -0.428
 -- Virtual --
  0.008   0.017   0.017   0.019   0.042   0.062   0.066   0.068
  0.070   0.085   0.089   0.090   0.093   0.115   0.122   0.133
  0.135   0.135   0.140   0.149   0.172   0.175   0.179   0.195
  0.203   0.204   0.212   0.216   0.216   0.220   0.239   0.247
  0.264   0.272   0.276   0.278   0.292   0.307   0.321   0.342
  0.346   0.351   0.354   0.365   0.383   0.393   0.404   0.405
  0.415   0.422   0.427   0.444   0.471   0.501   0.567   0.581
  0.610   0.644   0.665   0.675   0.684   0.732   0.744   0.764
  0.770   0.783   0.828   0.849   0.865   0.901   1.014   1.018
  1.062   1.103   1.114   1.133   1.143   1.172   1.184   1.238
  1.248   1.251   1.307   1.321   1.332   1.377   1.382   1.405
  1.409   1.424   1.448   1.489   1.493   1.522   1.584   1.642
  1.655   1.667   1.692   1.756   1.798   1.835   1.846   1.861
  1.904   1.914   1.959   1.984   1.987   2.001   2.033   2.062
  2.096   2.112   2.176   2.193   2.214   2.267   2.279   2.346
  2.392   2.411   2.508   2.601   2.642   2.648   2.667   2.740
  2.757   2.810   2.835   2.916   2.935   2.941   2.973   3.116
  3.377   3.395   3.535   3.592   4.063   4.212   4.295   4.308
  4.378   4.530   4.757
 --------------------------------------------------------------
 
          Ground-State Mulliken Net Atomic Charges

     Atom                 Charge (a.u.)
  ----------------------------------------
      1 Li                    0.770790
      2 C                    -0.151681
      3 O                    -0.530635
      4 C                    -0.148247
      5 S                     1.791849
      6 O                    -0.535556
      7 O                    -0.593987
      8 O                    -0.588706
      9 H                     0.256114
     10 H                     0.237685
     11 H                     0.237448
     12 H                     0.254925
  ----------------------------------------
  Sum of atomic charges =     1.000000

 -----------------------------------------------------------------
                    Cartesian Multipole Moments
 -----------------------------------------------------------------
    Charge (ESU x 10^10)
                 4.8032
    Dipole Moment (Debye)
         X       3.5128      Y       0.1348      Z      -0.4585
       Tot       3.5451
    Quadrupole Moments (Debye-Ang)
        XX       6.5598     XY       0.3980     YY     -46.1976
        XZ      -1.1984     YZ       0.3617     ZZ     -50.3588
    Octopole Moments (Debye-Ang^2)
       XXX     112.2948    XXY       1.5103    XYY      -2.2511
       YYY       0.9318    XXZ      -5.2805    XYZ       2.8975
       YYZ      -1.2276    XZZ      -6.4066    YZZ       0.1890
       ZZZ      -3.7438
    Hexadecapole Moments (Debye-Ang^3)
      XXXX       5.9421   XXXY       3.9942   XXYY     -97.3778
      XYYY      -0.3413   YYYY    -189.1879   XXXZ     -15.4779
      XXYZ       8.3698   XYYZ      -0.4663   YYYZ      -0.0957
      XXZZ    -110.2118   XYZZ       0.3930   YYZZ     -55.5538
      XZZZ      -2.0862   YZZZ       0.9436   ZZZZ    -161.7204
 -----------------------------------------------------------------
 Calculating analytic gradient of the SCF energy
 Gradient of CDS energy
            1           2           3           4           5           6
    1   0.0000592  -0.0004780   0.0001897  -0.0004478  -0.0000271   0.0001869
    2   0.0000016   0.0010598  -0.0001519  -0.0010687   0.0000155   0.0001550
    3  -0.0000067  -0.0000426  -0.0000870   0.0000588  -0.0000281   0.0000884
            7           8           9          10          11          12
    1  -0.0001269  -0.0001336   0.0001844   0.0002339   0.0001715   0.0001877
    2  -0.0000274   0.0000245  -0.0001059  -0.0001254   0.0001281   0.0000947
    3   0.0000972  -0.0000883   0.0000385   0.0000547  -0.0000670  -0.0000178
 Gradient of SCF Energy
            1           2           3           4           5           6
    1   0.0063005   0.0418498  -0.0267145   0.0437784  -0.0060186  -0.0260368
    2  -0.0000870  -0.0308725   0.0237377   0.0279383  -0.0002380  -0.0237239
    3  -0.0003377   0.0200198   0.0048689  -0.0150317  -0.0003793  -0.0057160
            7           8           9          10          11          12
    1   0.0196915   0.0205515  -0.0317812  -0.0043690  -0.0073073  -0.0299443
    2   0.0146802  -0.0143204   0.0170896   0.0140606  -0.0115436  -0.0167210
    3  -0.0407903   0.0419145   0.0294868  -0.0404238   0.0379298  -0.0315411
 Max gradient component =       4.378E-02
 RMS gradient           =       2.424E-02
 Computing VTN gradient.
 Updating gradient with PCM contributions...
 -- total gradient after adding PCM contribution --
---------------------------------------------------
  Atom         X              Y              Z     
---------------------------------------------------
   1       0.000001      -0.000054      -0.000078
   2       0.000009      -0.000035       0.000101
   3       0.000017      -0.000044       0.000094
   4       0.000000      -0.000007      -0.000036
   5      -0.000102       0.000054      -0.000001
   6       0.000029       0.000043      -0.000095
   7       0.000009       0.000119       0.000006
   8       0.000067      -0.000057      -0.000050
   9       0.000001      -0.000070       0.000128
  10      -0.000050       0.000100       0.000095
  11       0.000019      -0.000100      -0.000087
  12       0.000001       0.000052      -0.000078
---------------------------------------------------
 Number of fixed atoms: 0
 Gradient time:  CPU 77.34 s  wall 3.48 s
 ######################################################
 ######################################################
 # Starting finite difference calculation for IDERIV  #
 Finite diff step size:  1.88973e-03 a.u.
 ----------------------------------------------------------------
             Standard Nuclear Orientation (Angstroms)
    I     Atom           X                Y                Z
 ----------------------------------------------------------------
    1      Li      3.1361740028     0.0301864208    -0.0899927667
    2      C      -1.8538615271     0.7559400247    -0.0168212819
    3      O      -0.5147111757     1.0899260690     0.4909313057
    4      C      -1.8646023775    -0.7607766071     0.0024922094
    5      S       0.5219694491    -0.0076412814     0.0393130319
    6      O      -0.5007768592    -1.1187101760    -0.4129945813
    7      O       1.3372826952     0.4021260438    -1.1028267119
    8      O       1.3544483179    -0.4032823856     1.1682731513
    9      H      -2.5631330789     1.1984966982     0.6776960709
   10      H      -1.9477570036     1.1752479173    -1.0172464239
   11      H      -2.0311006070    -1.1662410891     0.9955158647
   12      H      -2.5345042973    -1.1951653734    -0.7350107572
 ----------------------------------------------------------------
 Nuclear Repulsion Energy =   484.1963528194 hartrees
 There are       33 alpha and       33 beta electrons
 Discretize the solute cavity surface with Lebedev spheres
	Using 302 Lebedev grid points for each H atom
	Using 302 Lebedev grid points for other atoms
	Atomic van der Waals radii will be scaled by 1.20
 Removing interior tesserae...
 Keep 1148 surface tesserae and discard 2476 interior tesserae
 Molecular Surface Area = 164.882 Angst**2

                       Distance Matrix (Angstroms)
             Li(  1)   C (  2)   O (  3)   C (  4)   S (  5)   O (  6)
   C (  2)  5.043067
   O (  3)  3.845710  1.470606
   C (  4)  5.063787  1.516878  2.342195
   S (  5)  2.617674  2.496153  1.575855  2.502857
   O (  6)  3.827755  2.345657  2.386493  1.469954  1.576409
   O (  7)  2.097661  3.389394  2.538309  3.581360  1.461892  2.483400
   O (  8)  2.223887  3.611301  2.486407  3.442257  1.457431  2.540493
   H (  9)  5.868253  1.086866  2.059782  2.186915  3.373449  3.288216
   H ( 10)  5.293139  1.088800  2.082186  2.189743  2.935148  2.778690
   H ( 11)  5.413917  2.179684  2.764839  1.085458  2.962236  2.080397
   H ( 12)  5.837305  2.187666  3.286965  1.086910  3.369247  2.060482
             O (  7)   O (  8)   H (  9)   H ( 10)   H ( 11)
   O (  8)  2.409745
   H (  9)  4.360930  4.260728
   H ( 10)  3.375874  4.262958  1.803346
   H ( 11)  4.267180  3.474751  2.444597  3.088807
   H ( 12)  4.204446  4.401536  2.779600  2.458208  1.802491
 
 Requested basis set is 6-31++G(d,p)
 There are 57 shells and 180 basis functions
 A cutoff of  1.0D-12 yielded   1574 shell pairs
 There are     16206 function pairs
 Smallest overlap matrix eigenvalue = 1.31E-04

 -----------------------------------------------------------------------
  General SCF calculation program by
  Eric Jon Sundstrom, Paul Horn, Yuezhi Mao, Dmitri Zuev, Alec White,
  David Stuck, Shaama M.S., Shane Yost, Joonho Lee, David Small,
  Daniel Levine, Susi Lehtola, Hugh Burton, Evgeny Epifanovsky
 -----------------------------------------------------------------------
 Exchange:     0.2220 Hartree-Fock + 1.0000 wB97X-D + LR-HF
 Correlation:  1.0000 wB97X-D
 Using SG-3 standard quadrature grid
 Dispersion:   Grimme D
 using 32 threads for integral computing
 -------------------------------------------------------
 OpenMP Integral computing Module                
 Release: version 1.0, May 2013, Q-Chem Inc. Pittsburgh 
 -------------------------------------------------------
 using 32 threads for integral computing
 -------------------------------------------------------
 OpenMP Integral computing Module                
 Release: version 1.0, May 2013, Q-Chem Inc. Pittsburgh 
 -------------------------------------------------------
 -------------------------------------------------------
 OpenMP BLAS3 based DFT computing Module                
 Release: version 1.0, May 2013, Q-Chem Inc. Pittsburgh 
 -------------------------------------------------------
 A restricted SCF calculation will be
 performed using DIIS, GDM
 SCF converges when RMS gradient is below 1.0e-08
 ---------------------------------------
  Cycle       Energy         DIIS error
 ---------------------------------------
    1    -784.9336108579      1.98e-06  
    2    -784.9336496194      6.66e-07  Done DIIS. Switching to GDM
 ---------------------------------------
  Cycle       Energy        RMS Gradient
 ---------------------------------------
    1    -784.9336496194      8.54e-06   Normal BFGS step
    2    -784.9336496200      1.04e-05   Normal BFGS step
    3    -784.9336496212      1.22e-06   Normal BFGS step
    4    -784.9336496213      9.73e-07   Normal BFGS step
    5    -784.9336496213      1.52e-07   Normal BFGS step
    6    -784.9336496213      1.46e-07   Normal BFGS step
    7    -784.9336496213      3.20e-08   Normal BFGS step
    8    -784.9336496213      1.74e-08   Normal BFGS step
    9    -784.9336496213      3.13e-09  Convergence criterion met
 ---------------------------------------
 SCF time:   CPU 392.32s  wall 15.00s 
(0)  E-EN(g) gas-phase elect-nuc energy                    0.000000000 a.u.
(3)  G-ENP(liq) elect-nuc-pol free energy of system     -784.933649621 a.u.
(4)  G-CDS(liq) cavity-dispersion-solvent structure 
     free energy                                               -0.3958 kcal/mol
(6)  G-S(liq) free energy of system                     -784.934280369 a.u.
(9)  DeltaG-S(liq) free energy of  solvation
     (9) = (6) - (0)                                      -492553.6950 kcal/mol
 SCF   energy in the final basis set =     -784.9336496213
 Total energy in the final basis set =     -784.9342803686
 
 --------------------------------------------------------------
 
                    Orbital Energies (a.u.)
 --------------------------------------------------------------
 
 Alpha MOs
 -- Occupied --
-89.382 -19.389 -19.389 -19.346 -19.345 -10.399 -10.399  -8.366
 -6.318  -6.316  -6.315  -2.164  -1.354  -1.227  -1.207  -1.177
 -0.926  -0.814  -0.778  -0.678  -0.671  -0.637  -0.622  -0.592
 -0.571  -0.540  -0.523  -0.510  -0.490  -0.487  -0.485  -0.440
 -0.428
 -- Virtual --
  0.008   0.017   0.017   0.019   0.042   0.062   0.066   0.068
  0.070   0.085   0.089   0.090   0.093   0.115   0.122   0.133
  0.135   0.135   0.140   0.149   0.172   0.175   0.179   0.195
  0.203   0.204   0.212   0.216   0.216   0.220   0.239   0.247
  0.264   0.272   0.276   0.278   0.292   0.307   0.321   0.342
  0.346   0.351   0.354   0.365   0.383   0.393   0.404   0.405
  0.415   0.422   0.427   0.444   0.471   0.501   0.567   0.581
  0.610   0.644   0.665   0.675   0.684   0.732   0.744   0.764
  0.770   0.783   0.828   0.849   0.865   0.901   1.014   1.018
  1.062   1.103   1.114   1.132   1.143   1.172   1.184   1.238
  1.248   1.251   1.307   1.321   1.332   1.377   1.382   1.405
  1.409   1.424   1.448   1.489   1.493   1.522   1.584   1.642
  1.655   1.667   1.692   1.756   1.798   1.836   1.846   1.861
  1.904   1.914   1.959   1.984   1.987   2.001   2.033   2.062
  2.096   2.112   2.176   2.193   2.214   2.267   2.279   2.346
  2.392   2.411   2.508   2.601   2.642   2.648   2.667   2.740
  2.757   2.810   2.835   2.916   2.935   2.941   2.973   3.116
  3.377   3.395   3.535   3.592   4.063   4.212   4.295   4.308
  4.378   4.530   4.757
 --------------------------------------------------------------
 
          Ground-State Mulliken Net Atomic Charges

     Atom                 Charge (a.u.)
  ----------------------------------------
      1 Li                    0.771184
      2 C                    -0.151663
      3 O                    -0.530621
      4 C                    -0.148219
      5 S                     1.791635
      6 O                    -0.535540
      7 O                    -0.594112
      8 O                    -0.588807
      9 H                     0.256109
     10 H                     0.237675
     11 H                     0.237439
     12 H                     0.254920
  ----------------------------------------
  Sum of atomic charges =     1.000000

 -----------------------------------------------------------------
                    Cartesian Multipole Moments
 -----------------------------------------------------------------
    Charge (ESU x 10^10)
                 4.8032
    Dipole Moment (Debye)
         X       3.5187      Y       0.1349      Z      -0.4586
       Tot       3.5510
    Quadrupole Moments (Debye-Ang)
        XX       6.5896     XY       0.3982     YY     -46.1985
        XZ      -1.1989     YZ       0.3619     ZZ     -50.3601
    Octopole Moments (Debye-Ang^2)
       XXX     112.4386    XXY       1.5113    XYY      -2.2507
       YYY       0.9318    XXZ      -5.2834    XYZ       2.8978
       YYZ      -1.2276    XZZ      -6.4071    YZZ       0.1891
       ZZZ      -3.7440
    Hexadecapole Moments (Debye-Ang^3)
      XXXX       6.5083   XXXY       3.9985   XXYY     -97.3825
      XYYY      -0.3413   YYYY    -189.1910   XXXZ     -15.4905
      XXYZ       8.3699   XYYZ      -0.4662   YYYZ      -0.0953
      XXZZ    -110.2162   XYZZ       0.3931   YYZZ     -55.5554
      XZZZ      -2.0863   YZZZ       0.9447   ZZZZ    -161.7266
 -----------------------------------------------------------------
 Calculating analytic gradient of the SCF energy
 Gradient of CDS energy
            1           2           3           4           5           6
    1   0.0000592  -0.0004780   0.0001897  -0.0004478  -0.0000271   0.0001869
    2   0.0000016   0.0010598  -0.0001519  -0.0010687   0.0000155   0.0001550
    3  -0.0000067  -0.0000426  -0.0000870   0.0000588  -0.0000281   0.0000884
            7           8           9          10          11          12
    1  -0.0001269  -0.0001336   0.0001844   0.0002339   0.0001715   0.0001877
    2  -0.0000274   0.0000245  -0.0001059  -0.0001254   0.0001281   0.0000947
    3   0.0000972  -0.0000883   0.0000385   0.0000547  -0.0000670  -0.0000178
 Gradient of SCF Energy
            1           2           3           4           5           6
    1   0.0063730   0.0418418  -0.0266957   0.0437706  -0.0061226  -0.0260183
    2  -0.0000886  -0.0308686   0.0237322   0.0279347  -0.0002404  -0.0237175
    3  -0.0003342   0.0200134   0.0048672  -0.0150259  -0.0003711  -0.0057154
            7           8           9          10          11          12
    1   0.0196843   0.0205574  -0.0317766  -0.0043683  -0.0073058  -0.0299398
    2   0.0146785  -0.0143156   0.0170872   0.0140590  -0.0115421  -0.0167186
    3  -0.0407875   0.0419013   0.0294834  -0.0404176   0.0379239  -0.0315374
 Max gradient component =       4.377E-02
 RMS gradient           =       2.423E-02
 Computing VTN gradient.
 Updating gradient with PCM contributions...
 -- total gradient after adding PCM contribution --
---------------------------------------------------
  Atom         X              Y              Z     
---------------------------------------------------
   1       0.000052      -0.000062      -0.000061
   2       0.000006      -0.000036       0.000098
   3       0.000027      -0.000048       0.000093
   4      -0.000003      -0.000006      -0.000034
   5      -0.000174       0.000052       0.000003
   6       0.000040       0.000047      -0.000094
   7       0.000006       0.000120       0.000004
   8       0.000073      -0.000049      -0.000068
   9       0.000002      -0.000070       0.000128
  10      -0.000049       0.000100       0.000096
  11       0.000019      -0.000100      -0.000087
  12       0.000001       0.000052      -0.000078
---------------------------------------------------
 Number of fixed atoms: 0
 Gradient time:  CPU 76.72 s  wall 3.45 s
 ----------------------------------------------------------------
             Standard Nuclear Orientation (Angstroms)
    I     Atom           X                Y                Z
 ----------------------------------------------------------------
    1      Li      3.1341740028     0.0301864208    -0.0899927667
    2      C      -1.8538615271     0.7559400247    -0.0168212819
    3      O      -0.5147111757     1.0899260690     0.4909313057
    4      C      -1.8646023775    -0.7607766071     0.0024922094
    5      S       0.5219694491    -0.0076412814     0.0393130319
    6      O      -0.5007768592    -1.1187101760    -0.4129945813
    7      O       1.3372826952     0.4021260438    -1.1028267119
    8      O       1.3544483179    -0.4032823856     1.1682731513
    9      H      -2.5631330789     1.1984966982     0.6776960709
   10      H      -1.9477570036     1.1752479173    -1.0172464239
   11      H      -2.0311006070    -1.1662410891     0.9955158647
   12      H      -2.5345042973    -1.1951653734    -0.7350107572
 ----------------------------------------------------------------
 Nuclear Repulsion Energy =   484.2179847577 hartrees
 There are       33 alpha and       33 beta electrons
 Discretize the solute cavity surface with Lebedev spheres
	Using 302 Lebedev grid points for each H atom
	Using 302 Lebedev grid points for other atoms
	Atomic van der Waals radii will be scaled by 1.20
 Removing interior tesserae...
 Keep 1147 surface tesserae and discard 2477 interior tesserae
 Molecular Surface Area = 164.686 Angst**2

                       Distance Matrix (Angstroms)
             Li(  1)   C (  2)   O (  3)   C (  4)   S (  5)   O (  6)
   C (  2)  5.041088
   O (  3)  3.843811  1.470606
   C (  4)  5.061812  1.516878  2.342195
   S (  5)  2.615677  2.496153  1.575855  2.502857
   O (  6)  3.825854  2.345657  2.386493  1.469954  1.576409
   O (  7)  2.095946  3.389394  2.538309  3.581360  1.461892  2.483400
   O (  8)  2.222285  3.611301  2.486407  3.442257  1.457431  2.540493
   H (  9)  5.866311  1.086866  2.059782  2.186915  3.373449  3.288216
   H ( 10)  5.291218  1.088800  2.082186  2.189743  2.935148  2.778690
   H ( 11)  5.412008  2.179684  2.764839  1.085458  2.962236  2.080397
   H ( 12)  5.835362  2.187666  3.286965  1.086910  3.369247  2.060482
             O (  7)   O (  8)   H (  9)   H ( 10)   H ( 11)
   O (  8)  2.409745
   H (  9)  4.360930  4.260728
   H ( 10)  3.375874  4.262958  1.803346
   H ( 11)  4.267180  3.474751  2.444597  3.088807
   H ( 12)  4.204446  4.401536  2.779600  2.458208  1.802491
 
 Requested basis set is 6-31++G(d,p)
 There are 57 shells and 180 basis functions
 A cutoff of  1.0D-12 yielded   1574 shell pairs
 There are     16206 function pairs
 Smallest overlap matrix eigenvalue = 1.31E-04

 -----------------------------------------------------------------------
  General SCF calculation program by
  Eric Jon Sundstrom, Paul Horn, Yuezhi Mao, Dmitri Zuev, Alec White,
  David Stuck, Shaama M.S., Shane Yost, Joonho Lee, David Small,
  Daniel Levine, Susi Lehtola, Hugh Burton, Evgeny Epifanovsky
 -----------------------------------------------------------------------
 Exchange:     0.2220 Hartree-Fock + 1.0000 wB97X-D + LR-HF
 Correlation:  1.0000 wB97X-D
 Using SG-3 standard quadrature grid
 Dispersion:   Grimme D
 using 32 threads for integral computing
 -------------------------------------------------------
 OpenMP Integral computing Module                
 Release: version 1.0, May 2013, Q-Chem Inc. Pittsburgh 
 -------------------------------------------------------
 using 32 threads for integral computing
 -------------------------------------------------------
 OpenMP Integral computing Module                
 Release: version 1.0, May 2013, Q-Chem Inc. Pittsburgh 
 -------------------------------------------------------
 -------------------------------------------------------
 OpenMP BLAS3 based DFT computing Module                
 Release: version 1.0, May 2013, Q-Chem Inc. Pittsburgh 
 -------------------------------------------------------
 A restricted SCF calculation will be
 performed using DIIS, GDM
 SCF converges when RMS gradient is below 1.0e-08
 ---------------------------------------
  Cycle       Energy         DIIS error
 ---------------------------------------
    1    -784.9337269192      3.97e-06  
    2    -784.9336494349      1.33e-06  Done DIIS. Switching to GDM
 ---------------------------------------
  Cycle       Energy        RMS Gradient
 ---------------------------------------
    1    -784.9336494349      1.70e-05   Normal BFGS step
    2    -784.9336494373      2.07e-05   Normal BFGS step
    3    -784.9336494421      2.44e-06   Normal BFGS step
    4    -784.9336494422      1.95e-06   Normal BFGS step
    5    -784.9336494423      3.10e-07   Normal BFGS step
    6    -784.9336494423      2.95e-07   Normal BFGS step
    7    -784.9336494423      6.35e-08   Normal BFGS step
    8    -784.9336494423      3.49e-08   Normal BFGS step
    9    -784.9336494423      6.23e-09  Convergence criterion met
 ---------------------------------------
 SCF time:   CPU 392.56s  wall 15.00s 
(0)  E-EN(g) gas-phase elect-nuc energy                    0.000000000 a.u.
(3)  G-ENP(liq) elect-nuc-pol free energy of system     -784.933649442 a.u.
(4)  G-CDS(liq) cavity-dispersion-solvent structure 
     free energy                                               -0.3958 kcal/mol
(6)  G-S(liq) free energy of system                     -784.934280190 a.u.
(9)  DeltaG-S(liq) free energy of  solvation
     (9) = (6) - (0)                                      -492553.6949 kcal/mol
 SCF   energy in the final basis set =     -784.9336494423
 Total energy in the final basis set =     -784.9342801895
 
 --------------------------------------------------------------
 
                    Orbital Energies (a.u.)
 --------------------------------------------------------------
 
 Alpha MOs
 -- Occupied --
-89.382 -19.389 -19.389 -19.346 -19.345 -10.399 -10.399  -8.366
 -6.318  -6.316  -6.315  -2.163  -1.354  -1.228  -1.207  -1.177
 -0.926  -0.814  -0.778  -0.678  -0.671  -0.637  -0.622  -0.593
 -0.571  -0.540  -0.523  -0.510  -0.490  -0.487  -0.485  -0.440
 -0.428
 -- Virtual --
  0.008   0.017   0.017   0.019   0.042   0.062   0.066   0.068
  0.070   0.085   0.089   0.090   0.093   0.115   0.122   0.133
  0.135   0.135   0.140   0.149   0.172   0.175   0.179   0.195
  0.203   0.204   0.212   0.216   0.216   0.220   0.239   0.247
  0.264   0.273   0.276   0.278   0.292   0.307   0.321   0.342
  0.346   0.351   0.354   0.365   0.383   0.393   0.404   0.405
  0.415   0.422   0.427   0.444   0.471   0.501   0.567   0.581
  0.610   0.644   0.665   0.675   0.685   0.732   0.744   0.764
  0.770   0.784   0.828   0.849   0.865   0.902   1.014   1.018
  1.062   1.103   1.114   1.133   1.143   1.172   1.184   1.238
  1.248   1.251   1.307   1.321   1.332   1.377   1.382   1.405
  1.409   1.424   1.448   1.489   1.493   1.522   1.584   1.642
  1.655   1.667   1.692   1.756   1.798   1.835   1.846   1.861
  1.904   1.914   1.959   1.984   1.987   2.001   2.033   2.062
  2.097   2.113   2.176   2.193   2.214   2.267   2.279   2.346
  2.392   2.411   2.508   2.601   2.642   2.648   2.667   2.740
  2.757   2.810   2.835   2.916   2.935   2.941   2.973   3.116
  3.377   3.395   3.535   3.592   4.063   4.212   4.295   4.308
  4.378   4.530   4.757
 --------------------------------------------------------------
 
          Ground-State Mulliken Net Atomic Charges

     Atom                 Charge (a.u.)
  ----------------------------------------
      1 Li                    0.770395
      2 C                    -0.151699
      3 O                    -0.530648
      4 C                    -0.148276
      5 S                     1.792066
      6 O                    -0.535571
      7 O                    -0.593861
      8 O                    -0.588608
      9 H                     0.256120
     10 H                     0.237696
     11 H                     0.237457
     12 H                     0.254930
  ----------------------------------------
  Sum of atomic charges =     1.000000

 -----------------------------------------------------------------
                    Cartesian Multipole Moments
 -----------------------------------------------------------------
    Charge (ESU x 10^10)
                 4.8032
    Dipole Moment (Debye)
         X       3.5069      Y       0.1348      Z      -0.4585
       Tot       3.5393
    Quadrupole Moments (Debye-Ang)
        XX       6.5299     XY       0.3978     YY     -46.1967
        XZ      -1.1978     YZ       0.3615     ZZ     -50.3576
    Octopole Moments (Debye-Ang^2)
       XXX     112.1510    XXY       1.5093    XYY      -2.2514
       YYY       0.9318    XXZ      -5.2777    XYZ       2.8972
       YYZ      -1.2276    XZZ      -6.4060    YZZ       0.1890
       ZZZ      -3.7436
    Hexadecapole Moments (Debye-Ang^3)
      XXXX       5.3764   XXXY       3.9901   XXYY     -97.3731
      XYYY      -0.3412   YYYY    -189.1847   XXXZ     -15.4654
      XXYZ       8.3697   XYYZ      -0.4663   YYYZ      -0.0960
      XXZZ    -110.2074   XYZZ       0.3930   YYZZ     -55.5522
      XZZZ      -2.0861   YZZZ       0.9426   ZZZZ    -161.7143
 -----------------------------------------------------------------
 Calculating analytic gradient of the SCF energy
 Gradient of CDS energy
            1           2           3           4           5           6
    1   0.0000592  -0.0004780   0.0001897  -0.0004478  -0.0000271   0.0001869
    2   0.0000016   0.0010598  -0.0001519  -0.0010687   0.0000155   0.0001550
    3  -0.0000067  -0.0000426  -0.0000870   0.0000588  -0.0000281   0.0000884
            7           8           9          10          11          12
    1  -0.0001269  -0.0001336   0.0001844   0.0002339   0.0001715   0.0001877
    2  -0.0000274   0.0000245  -0.0001059  -0.0001254   0.0001281   0.0000947
    3   0.0000972  -0.0000883   0.0000385   0.0000547  -0.0000670  -0.0000178
 Gradient of SCF Energy
            1           2           3           4           5           6
    1   0.0062276   0.0418580  -0.0267335   0.0437863  -0.0059140  -0.0260554
    2  -0.0000854  -0.0308765   0.0237433   0.0279420  -0.0002358  -0.0237304
    3  -0.0003410   0.0200263   0.0048704  -0.0150376  -0.0003866  -0.0057166
            7           8           9          10          11          12
    1   0.0196987   0.0205455  -0.0317859  -0.0043698  -0.0073087  -0.0299488
    2   0.0146820  -0.0143250   0.0170920   0.0140623  -0.0115451  -0.0167233
    3  -0.0407931   0.0419271   0.0294902  -0.0404300   0.0379357  -0.0315447
 Max gradient component =       4.379E-02
 RMS gradient           =       2.424E-02
 Computing VTN gradient.
 Updating gradient with PCM contributions...
 -- total gradient after adding PCM contribution --
---------------------------------------------------
  Atom         X              Y              Z     
---------------------------------------------------
   1      -0.000050      -0.000052      -0.000081
   2       0.000013      -0.000034       0.000103
   3       0.000006      -0.000041       0.000095
   4       0.000004      -0.000008      -0.000039
   5      -0.000031       0.000056      -0.000005
   6       0.000018       0.000039      -0.000095
   7       0.000012       0.000118       0.000009
   8       0.000060      -0.000059      -0.000046
   9       0.000001      -0.000070       0.000128
  10      -0.000050       0.000100       0.000095
  11       0.000018      -0.000100      -0.000086
  12       0.000000       0.000052      -0.000078
---------------------------------------------------
 Number of fixed atoms: 0
 Gradient time:  CPU 77.95 s  wall 3.47 s
 ----------------------------------------------------------------
             Standard Nuclear Orientation (Angstroms)
    I     Atom           X                Y                Z
 ----------------------------------------------------------------
    1      Li      3.1351740028     0.0311864208    -0.0899927667
    2      C      -1.8538615271     0.7559400247    -0.0168212819
    3      O      -0.5147111757     1.0899260690     0.4909313057
    4      C      -1.8646023775    -0.7607766071     0.0024922094
    5      S       0.5219694491    -0.0076412814     0.0393130319
    6      O      -0.5007768592    -1.1187101760    -0.4129945813
    7      O       1.3372826952     0.4021260438    -1.1028267119
    8      O       1.3544483179    -0.4032823856     1.1682731513
    9      H      -2.5631330789     1.1984966982     0.6776960709
   10      H      -1.9477570036     1.1752479173    -1.0172464239
   11      H      -2.0311006070    -1.1662410891     0.9955158647
   12      H      -2.5345042973    -1.1951653734    -0.7350107572
 ----------------------------------------------------------------
 Nuclear Repulsion Energy =   484.2070930401 hartrees
 There are       33 alpha and       33 beta electrons
 Discretize the solute cavity surface with Lebedev spheres
	Using 302 Lebedev grid points for each H atom
	Using 302 Lebedev grid points for other atoms
	Atomic van der Waals radii will be scaled by 1.20
 Removing interior tesserae...
 Keep 1147 surface tesserae and discard 2477 interior tesserae
 Molecular Surface Area = 164.686 Angst**2

                       Distance Matrix (Angstroms)
             Li(  1)   C (  2)   O (  3)   C (  4)   S (  5)   O (  6)
   C (  2)  5.041934
   O (  3)  3.844485  1.470606
   C (  4)  5.062956  1.516878  2.342195
   S (  5)  2.616690  2.496153  1.575855  2.502857
   O (  6)  3.827105  2.345657  2.386493  1.469954  1.576409
   O (  7)  2.096626  3.389394  2.538309  3.581360  1.461892  2.483400
   O (  8)  2.223281  3.611301  2.486407  3.442257  1.457431  2.540493
   H (  9)  5.867083  1.086866  2.059782  2.186915  3.373449  3.288216
   H ( 10)  5.291962  1.088800  2.082186  2.189743  2.935148  2.778690
   H ( 11)  5.413183  2.179684  2.764839  1.085458  2.962236  2.080397
   H ( 12)  5.836543  2.187666  3.286965  1.086910  3.369247  2.060482
             O (  7)   O (  8)   H (  9)   H ( 10)   H ( 11)
   O (  8)  2.409745
   H (  9)  4.360930  4.260728
   H ( 10)  3.375874  4.262958  1.803346
   H ( 11)  4.267180  3.474751  2.444597  3.088807
   H ( 12)  4.204446  4.401536  2.779600  2.458208  1.802491
 
 Requested basis set is 6-31++G(d,p)
 There are 57 shells and 180 basis functions
 A cutoff of  1.0D-12 yielded   1574 shell pairs
 There are     16206 function pairs
 Smallest overlap matrix eigenvalue = 1.31E-04

 -----------------------------------------------------------------------
  General SCF calculation program by
  Eric Jon Sundstrom, Paul Horn, Yuezhi Mao, Dmitri Zuev, Alec White,
  David Stuck, Shaama M.S., Shane Yost, Joonho Lee, David Small,
  Daniel Levine, Susi Lehtola, Hugh Burton, Evgeny Epifanovsky
 -----------------------------------------------------------------------
 Exchange:     0.2220 Hartree-Fock + 1.0000 wB97X-D + LR-HF
 Correlation:  1.0000 wB97X-D
 Using SG-3 standard quadrature grid
 Dispersion:   Grimme D
 using 32 threads for integral computing
 -------------------------------------------------------
 OpenMP Integral computing Module                
 Release: version 1.0, May 2013, Q-Chem Inc. Pittsburgh 
 -------------------------------------------------------
 using 32 threads for integral computing
 -------------------------------------------------------
 OpenMP Integral computing Module                
 Release: version 1.0, May 2013, Q-Chem Inc. Pittsburgh 
 -------------------------------------------------------
 -------------------------------------------------------
 OpenMP BLAS3 based DFT computing Module                
 Release: version 1.0, May 2013, Q-Chem Inc. Pittsburgh 
 -------------------------------------------------------
 A restricted SCF calculation will be
 performed using DIIS, GDM
 SCF converges when RMS gradient is below 1.0e-08
 ---------------------------------------
  Cycle       Energy         DIIS error
 ---------------------------------------
    1    -784.9336107106      2.44e-06  
    2    -784.9336497009      8.36e-07  Done DIIS. Switching to GDM
 ---------------------------------------
  Cycle       Energy        RMS Gradient
 ---------------------------------------
    1    -784.9336497009      1.22e-05   Normal BFGS step
    2    -784.9336497025      1.47e-05   Normal BFGS step
    3    -784.9336497044      1.82e-06   Normal BFGS step
    4    -784.9336497045      1.24e-06   Normal BFGS step
    5    -784.9336497045      2.88e-07   Normal BFGS step
    6    -784.9336497045      2.25e-07   Normal BFGS step
    7    -784.9336497045      4.65e-08   Normal BFGS step
    8    -784.9336497045      2.73e-08   Normal BFGS step
    9    -784.9336497045      4.39e-09  Convergence criterion met
 ---------------------------------------
 SCF time:   CPU 392.03s  wall 15.00s 
(0)  E-EN(g) gas-phase elect-nuc energy                    0.000000000 a.u.
(3)  G-ENP(liq) elect-nuc-pol free energy of system     -784.933649705 a.u.
(4)  G-CDS(liq) cavity-dispersion-solvent structure 
     free energy                                               -0.3958 kcal/mol
(6)  G-S(liq) free energy of system                     -784.934280452 a.u.
(9)  DeltaG-S(liq) free energy of  solvation
     (9) = (6) - (0)                                      -492553.6951 kcal/mol
 SCF   energy in the final basis set =     -784.9336497045
 Total energy in the final basis set =     -784.9342804518
 
 --------------------------------------------------------------
 
                    Orbital Energies (a.u.)
 --------------------------------------------------------------
 
 Alpha MOs
 -- Occupied --
-89.382 -19.389 -19.389 -19.346 -19.345 -10.399 -10.399  -8.366
 -6.318  -6.316  -6.315  -2.164  -1.354  -1.227  -1.207  -1.177
 -0.926  -0.814  -0.778  -0.678  -0.671  -0.637  -0.622  -0.592
 -0.571  -0.540  -0.523  -0.510  -0.490  -0.487  -0.485  -0.440
 -0.428
 -- Virtual --
  0.008   0.017   0.017   0.019   0.042   0.062   0.066   0.068
  0.070   0.085   0.089   0.090   0.093   0.115   0.122   0.133
  0.135   0.135   0.140   0.149   0.172   0.175   0.179   0.195
  0.203   0.204   0.212   0.216   0.216   0.220   0.239   0.247
  0.264   0.273   0.276   0.278   0.292   0.307   0.321   0.342
  0.346   0.351   0.354   0.365   0.383   0.393   0.404   0.405
  0.415   0.422   0.427   0.444   0.471   0.501   0.567   0.581
  0.610   0.644   0.665   0.675   0.684   0.732   0.744   0.764
  0.770   0.783   0.828   0.849   0.865   0.901   1.014   1.018
  1.062   1.103   1.114   1.133   1.143   1.172   1.184   1.238
  1.248   1.251   1.307   1.321   1.332   1.377   1.382   1.405
  1.409   1.424   1.448   1.489   1.493   1.522   1.584   1.642
  1.655   1.667   1.692   1.756   1.798   1.835   1.846   1.861
  1.904   1.914   1.959   1.984   1.987   2.001   2.033   2.062
  2.096   2.112   2.176   2.193   2.214   2.267   2.279   2.346
  2.392   2.411   2.508   2.601   2.642   2.648   2.667   2.740
  2.757   2.810   2.835   2.916   2.935   2.941   2.973   3.116
  3.377   3.395   3.535   3.592   4.063   4.212   4.295   4.308
  4.378   4.530   4.757
 --------------------------------------------------------------
 
          Ground-State Mulliken Net Atomic Charges

     Atom                 Charge (a.u.)
  ----------------------------------------
      1 Li                    0.770791
      2 C                    -0.151692
      3 O                    -0.530627
      4 C                    -0.148231
      5 S                     1.791840
      6 O                    -0.535563
      7 O                    -0.593981
      8 O                    -0.588710
      9 H                     0.256115
     10 H                     0.237685
     11 H                     0.237447
     12 H                     0.254925
  ----------------------------------------
  Sum of atomic charges =     1.000000

 -----------------------------------------------------------------
                    Cartesian Multipole Moments
 -----------------------------------------------------------------
    Charge (ESU x 10^10)
                 4.8032
    Dipole Moment (Debye)
         X       3.5128      Y       0.1390      Z      -0.4585
       Tot       3.5453
    Quadrupole Moments (Debye-Ang)
        XX       6.5598     XY       0.4120     YY     -46.1973
        XZ      -1.1982     YZ       0.3613     ZZ     -50.3589
    Octopole Moments (Debye-Ang^2)
       XXX     112.2949    XXY       1.5550    XYY      -2.2502
       YYY       0.9296    XXZ      -5.2800    XYZ       2.8962
       YYZ      -1.2274    XZZ      -6.4066    YZZ       0.1881
       ZZZ      -3.7439
    Hexadecapole Moments (Debye-Ang^3)
      XXXX       5.9422   XXXY       4.1340   XXYY     -97.3750
      XYYY      -0.3468   YYYY    -189.1881   XXXZ     -15.4770
      XXYZ       8.3657   XYYZ      -0.4660   YYYZ      -0.0955
      XXZZ    -110.2118   XYZZ       0.3908   YYZZ     -55.5538
      XZZZ      -2.0862   YZZZ       0.9438   ZZZZ    -161.7205
 -----------------------------------------------------------------
 Calculating analytic gradient of the SCF energy
 Gradient of CDS energy
            1           2           3           4           5           6
    1   0.0000592  -0.0004780   0.0001897  -0.0004478  -0.0000271   0.0001869
    2   0.0000016   0.0010598  -0.0001519  -0.0010687   0.0000155   0.0001550
    3  -0.0000067  -0.0000426  -0.0000870   0.0000588  -0.0000281   0.0000884
            7           8           9          10          11          12
    1  -0.0001269  -0.0001336   0.0001844   0.0002339   0.0001715   0.0001877
    2  -0.0000274   0.0000245  -0.0001059  -0.0001254   0.0001281   0.0000947
    3   0.0000972  -0.0000883   0.0000385   0.0000547  -0.0000670  -0.0000178
 Gradient of SCF Energy
            1           2           3           4           5           6
    1   0.0062992   0.0418516  -0.0267130   0.0437766  -0.0060208  -0.0260391
    2  -0.0000765  -0.0308723   0.0237367   0.0279384  -0.0002207  -0.0237251
    3  -0.0003369   0.0200202   0.0048711  -0.0150312  -0.0003916  -0.0057134
            7           8           9          10          11          12
    1   0.0196928   0.0205543  -0.0317813  -0.0043688  -0.0073076  -0.0299441
    2   0.0146660  -0.0143338   0.0170899   0.0140612  -0.0115431  -0.0167206
    3  -0.0407864   0.0419168   0.0294872  -0.0404244   0.0379292  -0.0315406
 Max gradient component =       4.378E-02
 RMS gradient           =       2.424E-02
 Computing VTN gradient.
 Updating gradient with PCM contributions...
 -- total gradient after adding PCM contribution --
---------------------------------------------------
  Atom         X              Y              Z     
---------------------------------------------------
   1      -0.000001      -0.000053      -0.000077
   2       0.000009      -0.000035       0.000101
   3       0.000018      -0.000045       0.000095
   4       0.000000      -0.000008      -0.000036
   5      -0.000104       0.000070      -0.000011
   6       0.000027       0.000042      -0.000093
   7       0.000009       0.000111       0.000011
   8       0.000070      -0.000064      -0.000048
   9       0.000001      -0.000070       0.000128
  10      -0.000050       0.000100       0.000095
  11       0.000019      -0.000100      -0.000087
  12       0.000001       0.000052      -0.000078
---------------------------------------------------
 Number of fixed atoms: 0
 Gradient time:  CPU 77.09 s  wall 3.47 s
 ----------------------------------------------------------------
             Standard Nuclear Orientation (Angstroms)
    I     Atom           X                Y                Z
 ----------------------------------------------------------------
    1      Li      3.1351740028     0.0291864208    -0.0899927667
    2      C      -1.8538615271     0.7559400247    -0.0168212819
    3      O      -0.5147111757     1.0899260690     0.4909313057
    4      C      -1.8646023775    -0.7607766071     0.0024922094
    5      S       0.5219694491    -0.0076412814     0.0393130319
    6      O      -0.5007768592    -1.1187101760    -0.4129945813
    7      O       1.3372826952     0.4021260438    -1.1028267119
    8      O       1.3544483179    -0.4032823856     1.1682731513
    9      H      -2.5631330789     1.1984966982     0.6776960709
   10      H      -1.9477570036     1.1752479173    -1.0172464239
   11      H      -2.0311006070    -1.1662410891     0.9955158647
   12      H      -2.5345042973    -1.1951653734    -0.7350107572
 ----------------------------------------------------------------
 Nuclear Repulsion Energy =   484.2072336661 hartrees
 There are       33 alpha and       33 beta electrons
 Discretize the solute cavity surface with Lebedev spheres
	Using 302 Lebedev grid points for each H atom
	Using 302 Lebedev grid points for other atoms
	Atomic van der Waals radii will be scaled by 1.20
 Removing interior tesserae...
 Keep 1148 surface tesserae and discard 2476 interior tesserae
 Molecular Surface Area = 164.882 Angst**2

                       Distance Matrix (Angstroms)
             Li(  1)   C (  2)   O (  3)   C (  4)   S (  5)   O (  6)
   C (  2)  5.042222
   O (  3)  3.845036  1.470606
   C (  4)  5.062643  1.516878  2.342195
   S (  5)  2.616661  2.496153  1.575855  2.502857
   O (  6)  3.826504  2.345657  2.386493  1.469954  1.576409
   O (  7)  2.096981  3.389394  2.538309  3.581360  1.461892  2.483400
   O (  8)  2.222891  3.611301  2.486407  3.442257  1.457431  2.540493
   H (  9)  5.867481  1.086866  2.059782  2.186915  3.373449  3.288216
   H ( 10)  5.292395  1.088800  2.082186  2.189743  2.935148  2.778690
   H ( 11)  5.412741  2.179684  2.764839  1.085458  2.962236  2.080397
   H ( 12)  5.836124  2.187666  3.286965  1.086910  3.369247  2.060482
             O (  7)   O (  8)   H (  9)   H ( 10)   H ( 11)
   O (  8)  2.409745
   H (  9)  4.360930  4.260728
   H ( 10)  3.375874  4.262958  1.803346
   H ( 11)  4.267180  3.474751  2.444597  3.088807
   H ( 12)  4.204446  4.401536  2.779600  2.458208  1.802491
 
 Requested basis set is 6-31++G(d,p)
 There are 57 shells and 180 basis functions
 A cutoff of  1.0D-12 yielded   1574 shell pairs
 There are     16206 function pairs
 Smallest overlap matrix eigenvalue = 1.31E-04

 -----------------------------------------------------------------------
  General SCF calculation program by
  Eric Jon Sundstrom, Paul Horn, Yuezhi Mao, Dmitri Zuev, Alec White,
  David Stuck, Shaama M.S., Shane Yost, Joonho Lee, David Small,
  Daniel Levine, Susi Lehtola, Hugh Burton, Evgeny Epifanovsky
 -----------------------------------------------------------------------
 Exchange:     0.2220 Hartree-Fock + 1.0000 wB97X-D + LR-HF
 Correlation:  1.0000 wB97X-D
 Using SG-3 standard quadrature grid
 Dispersion:   Grimme D
 using 32 threads for integral computing
 -------------------------------------------------------
 OpenMP Integral computing Module                
 Release: version 1.0, May 2013, Q-Chem Inc. Pittsburgh 
 -------------------------------------------------------
 using 32 threads for integral computing
 -------------------------------------------------------
 OpenMP Integral computing Module                
 Release: version 1.0, May 2013, Q-Chem Inc. Pittsburgh 
 -------------------------------------------------------
 -------------------------------------------------------
 OpenMP BLAS3 based DFT computing Module                
 Release: version 1.0, May 2013, Q-Chem Inc. Pittsburgh 
 -------------------------------------------------------
 A restricted SCF calculation will be
 performed using DIIS, GDM
 SCF converges when RMS gradient is below 1.0e-08
 ---------------------------------------
  Cycle       Energy         DIIS error
 ---------------------------------------
    1    -784.9336498264      2.90e-06  
    2    -784.9336494326      1.27e-06  Done DIIS. Switching to GDM
 ---------------------------------------
  Cycle       Energy        RMS Gradient
 ---------------------------------------
    1    -784.9336494326      2.39e-05   Normal BFGS step
    2    -784.9336494346      2.61e-05   Normal BFGS step
    3    -784.9336494413      3.02e-06   Normal BFGS step
    4    -784.9336494414      1.07e-06   Normal BFGS step
    5    -784.9336494415      4.34e-07   Normal BFGS step
    6    -784.9336494415      3.22e-07   Normal BFGS step
    7    -784.9336494415      1.36e-08   Normal BFGS step
    8    -784.9336494415      1.37e-08   Normal BFGS step
    9    -784.9336494415      1.41e-09  Convergence criterion met
 ---------------------------------------
 SCF time:   CPU 394.78s  wall 15.00s 
(0)  E-EN(g) gas-phase elect-nuc energy                    0.000000000 a.u.
(3)  G-ENP(liq) elect-nuc-pol free energy of system     -784.933649441 a.u.
(4)  G-CDS(liq) cavity-dispersion-solvent structure 
     free energy                                               -0.3958 kcal/mol
(6)  G-S(liq) free energy of system                     -784.934280189 a.u.
(9)  DeltaG-S(liq) free energy of  solvation
     (9) = (6) - (0)                                      -492553.6949 kcal/mol
 SCF   energy in the final basis set =     -784.9336494415
 Total energy in the final basis set =     -784.9342801887
 
 --------------------------------------------------------------
 
                    Orbital Energies (a.u.)
 --------------------------------------------------------------
 
 Alpha MOs
 -- Occupied --
-89.382 -19.389 -19.389 -19.346 -19.345 -10.399 -10.399  -8.366
 -6.318  -6.316  -6.315  -2.164  -1.354  -1.227  -1.207  -1.177
 -0.926  -0.814  -0.778  -0.678  -0.671  -0.637  -0.622  -0.592
 -0.571  -0.540  -0.523  -0.510  -0.490  -0.487  -0.485  -0.440
 -0.428
 -- Virtual --
  0.008   0.017   0.017   0.019   0.042   0.062   0.066   0.068
  0.070   0.085   0.089   0.090   0.093   0.115   0.122   0.133
  0.135   0.135   0.140   0.149   0.172   0.175   0.179   0.195
  0.203   0.204   0.212   0.216   0.216   0.220   0.239   0.247
  0.264   0.272   0.276   0.278   0.292   0.307   0.321   0.342
  0.346   0.351   0.354   0.365   0.383   0.393   0.404   0.405
  0.415   0.422   0.427   0.444   0.471   0.501   0.567   0.581
  0.610   0.644   0.665   0.675   0.684   0.732   0.744   0.764
  0.770   0.783   0.828   0.849   0.865   0.901   1.014   1.018
  1.062   1.103   1.114   1.133   1.143   1.172   1.184   1.238
  1.248   1.251   1.307   1.321   1.332   1.377   1.382   1.405
  1.409   1.424   1.448   1.489   1.493   1.522   1.584   1.642
  1.655   1.667   1.692   1.756   1.798   1.835   1.846   1.861
  1.904   1.914   1.959   1.984   1.987   2.001   2.033   2.062
  2.096   2.112   2.176   2.193   2.214   2.267   2.279   2.346
  2.392   2.411   2.508   2.601   2.642   2.648   2.667   2.740
  2.757   2.810   2.835   2.916   2.935   2.941   2.973   3.116
  3.377   3.395   3.535   3.592   4.063   4.212   4.295   4.308
  4.378   4.530   4.757
 --------------------------------------------------------------
 
          Ground-State Mulliken Net Atomic Charges

     Atom                 Charge (a.u.)
  ----------------------------------------
      1 Li                    0.770789
      2 C                    -0.151671
      3 O                    -0.530643
      4 C                    -0.148263
      5 S                     1.791861
      6 O                    -0.535548
      7 O                    -0.593992
      8 O                    -0.588705
      9 H                     0.256114
     10 H                     0.237686
     11 H                     0.237449
     12 H                     0.254925
  ----------------------------------------
  Sum of atomic charges =     1.000000

 -----------------------------------------------------------------
                    Cartesian Multipole Moments
 -----------------------------------------------------------------
    Charge (ESU x 10^10)
                 4.8032
    Dipole Moment (Debye)
         X       3.5128      Y       0.1307      Z      -0.4586
       Tot       3.5450
    Quadrupole Moments (Debye-Ang)
        XX       6.5597     XY       0.3840     YY     -46.1979
        XZ      -1.1986     YZ       0.3621     ZZ     -50.3588
    Octopole Moments (Debye-Ang^2)
       XXX     112.2946    XXY       1.4656    XYY      -2.2519
       YYY       0.9340    XXZ      -5.2811    XYZ       2.8988
       YYZ      -1.2278    XZZ      -6.4066    YZZ       0.1900
       ZZZ      -3.7437
    Hexadecapole Moments (Debye-Ang^3)
      XXXX       5.9420   XXXY       3.8546   XXYY     -97.3805
      XYYY      -0.3358   YYYY    -189.1877   XXXZ     -15.4789
      XXYZ       8.3740   XYYZ      -0.4666   YYYZ      -0.0958
      XXZZ    -110.2118   XYZZ       0.3953   YYZZ     -55.5537
      XZZZ      -2.0863   YZZZ       0.9435   ZZZZ    -161.7204
 -----------------------------------------------------------------
 Calculating analytic gradient of the SCF energy
 Gradient of CDS energy
            1           2           3           4           5           6
    1   0.0000592  -0.0004780   0.0001897  -0.0004478  -0.0000271   0.0001869
    2   0.0000016   0.0010598  -0.0001519  -0.0010687   0.0000155   0.0001550
    3  -0.0000067  -0.0000426  -0.0000870   0.0000588  -0.0000281   0.0000884
            7           8           9          10          11          12
    1  -0.0001269  -0.0001336   0.0001844   0.0002339   0.0001715   0.0001877
    2  -0.0000274   0.0000245  -0.0001059  -0.0001254   0.0001281   0.0000947
    3   0.0000972  -0.0000883   0.0000385   0.0000547  -0.0000670  -0.0000178
 Gradient of SCF Energy
            1           2           3           4           5           6
    1   0.0063019   0.0418481  -0.0267162   0.0437803  -0.0060160  -0.0260346
    2  -0.0000975  -0.0308727   0.0237388   0.0279382  -0.0002555  -0.0237228
    3  -0.0003384   0.0200195   0.0048665  -0.0150323  -0.0003661  -0.0057186
            7           8           9          10          11          12
    1   0.0196901   0.0205484  -0.0317811  -0.0043694  -0.0073070  -0.0299445
    2   0.0146945  -0.0143068   0.0170893   0.0140600  -0.0115442  -0.0167213
    3  -0.0407943   0.0419117   0.0294864  -0.0404232   0.0379304  -0.0315415
 Max gradient component =       4.378E-02
 RMS gradient           =       2.424E-02
 Computing VTN gradient.
 Updating gradient with PCM contributions...
 -- total gradient after adding PCM contribution --
---------------------------------------------------
  Atom         X              Y              Z     
---------------------------------------------------
   1       0.000003      -0.000062      -0.000063
   2       0.000009      -0.000034       0.000101
   3       0.000015      -0.000043       0.000092
   4       0.000001      -0.000007      -0.000036
   5      -0.000100       0.000037       0.000009
   6       0.000030       0.000044      -0.000096
   7       0.000009       0.000127       0.000002
   8       0.000063      -0.000044      -0.000068
   9       0.000001      -0.000070       0.000128
  10      -0.000050       0.000100       0.000095
  11       0.000019      -0.000100      -0.000087
  12       0.000001       0.000052      -0.000078
---------------------------------------------------
 Number of fixed atoms: 0
 Gradient time:  CPU 77.04 s  wall 3.47 s
 ----------------------------------------------------------------
             Standard Nuclear Orientation (Angstroms)
    I     Atom           X                Y                Z
 ----------------------------------------------------------------
    1      Li      3.1351740028     0.0301864208    -0.0889927667
    2      C      -1.8538615271     0.7559400247    -0.0168212819
    3      O      -0.5147111757     1.0899260690     0.4909313057
    4      C      -1.8646023775    -0.7607766071     0.0024922094
    5      S       0.5219694491    -0.0076412814     0.0393130319
    6      O      -0.5007768592    -1.1187101760    -0.4129945813
    7      O       1.3372826952     0.4021260438    -1.1028267119
    8      O       1.3544483179    -0.4032823856     1.1682731513
    9      H      -2.5631330789     1.1984966982     0.6776960709
   10      H      -1.9477570036     1.1752479173    -1.0172464239
   11      H      -2.0311006070    -1.1662410891     0.9955158647
   12      H      -2.5345042973    -1.1951653734    -0.7350107572
 ----------------------------------------------------------------
 Nuclear Repulsion Energy =   484.2074774688 hartrees
 There are       33 alpha and       33 beta electrons
 Discretize the solute cavity surface with Lebedev spheres
	Using 302 Lebedev grid points for each H atom
	Using 302 Lebedev grid points for other atoms
	Atomic van der Waals radii will be scaled by 1.20
 Removing interior tesserae...
 Keep 1147 surface tesserae and discard 2477 interior tesserae
 Molecular Surface Area = 164.686 Angst**2

                       Distance Matrix (Angstroms)
             Li(  1)   C (  2)   O (  3)   C (  4)   S (  5)   O (  6)
   C (  2)  5.042063
   O (  3)  3.844609  1.470606
   C (  4)  5.062781  1.516878  2.342195
   S (  5)  2.616626  2.496153  1.575855  2.502857
   O (  6)  3.826889  2.345657  2.386493  1.469954  1.576409
   O (  7)  2.097287  3.389394  2.538309  3.581360  1.461892  2.483400
   O (  8)  2.222520  3.611301  2.486407  3.442257  1.457431  2.540493
   H (  9)  5.867151  1.086866  2.059782  2.186915  3.373449  3.288216
   H ( 10)  5.292354  1.088800  2.082186  2.189743  2.935148  2.778690
   H ( 11)  5.412762  2.179684  2.764839  1.085458  2.962236  2.080397
   H ( 12)  5.836444  2.187666  3.286965  1.086910  3.369247  2.060482
             O (  7)   O (  8)   H (  9)   H ( 10)   H ( 11)
   O (  8)  2.409745
   H (  9)  4.360930  4.260728
   H ( 10)  3.375874  4.262958  1.803346
   H ( 11)  4.267180  3.474751  2.444597  3.088807
   H ( 12)  4.204446  4.401536  2.779600  2.458208  1.802491
 
 Requested basis set is 6-31++G(d,p)
 There are 57 shells and 180 basis functions
 A cutoff of  1.0D-12 yielded   1574 shell pairs
 There are     16206 function pairs
 Smallest overlap matrix eigenvalue = 1.31E-04

 -----------------------------------------------------------------------
  General SCF calculation program by
  Eric Jon Sundstrom, Paul Horn, Yuezhi Mao, Dmitri Zuev, Alec White,
  David Stuck, Shaama M.S., Shane Yost, Joonho Lee, David Small,
  Daniel Levine, Susi Lehtola, Hugh Burton, Evgeny Epifanovsky
 -----------------------------------------------------------------------
 Exchange:     0.2220 Hartree-Fock + 1.0000 wB97X-D + LR-HF
 Correlation:  1.0000 wB97X-D
 Using SG-3 standard quadrature grid
 Dispersion:   Grimme D
 using 32 threads for integral computing
 -------------------------------------------------------
 OpenMP Integral computing Module                
 Release: version 1.0, May 2013, Q-Chem Inc. Pittsburgh 
 -------------------------------------------------------
 using 32 threads for integral computing
 -------------------------------------------------------
 OpenMP Integral computing Module                
 Release: version 1.0, May 2013, Q-Chem Inc. Pittsburgh 
 -------------------------------------------------------
 -------------------------------------------------------
 OpenMP BLAS3 based DFT computing Module                
 Release: version 1.0, May 2013, Q-Chem Inc. Pittsburgh 
 -------------------------------------------------------
 A restricted SCF calculation will be
 performed using DIIS, GDM
 SCF converges when RMS gradient is below 1.0e-08
 ---------------------------------------
  Cycle       Energy         DIIS error
 ---------------------------------------
    1    -784.9336510107      2.08e-06  
    2    -784.9336497307      9.71e-07  Done DIIS. Switching to GDM
 ---------------------------------------
  Cycle       Energy        RMS Gradient
 ---------------------------------------
    1    -784.9336497307      1.91e-05   Normal BFGS step
    2    -784.9336497313      2.05e-05   Normal BFGS step
    3    -784.9336497356      1.90e-06   Normal BFGS step
    4    -784.9336497357      6.26e-07   Normal BFGS step
    5    -784.9336497357      2.10e-07   Normal BFGS step
    6    -784.9336497357      1.84e-07   Normal BFGS step
    7    -784.9336497357      1.20e-08   Normal BFGS step
    8    -784.9336497357      9.94e-09  Convergence criterion met
 ---------------------------------------
 SCF time:   CPU 354.54s  wall 14.00s 
(0)  E-EN(g) gas-phase elect-nuc energy                    0.000000000 a.u.
(3)  G-ENP(liq) elect-nuc-pol free energy of system     -784.933649736 a.u.
(4)  G-CDS(liq) cavity-dispersion-solvent structure 
     free energy                                               -0.3958 kcal/mol
(6)  G-S(liq) free energy of system                     -784.934280483 a.u.
(9)  DeltaG-S(liq) free energy of  solvation
     (9) = (6) - (0)                                      -492553.6951 kcal/mol
 SCF   energy in the final basis set =     -784.9336497357
 Total energy in the final basis set =     -784.9342804830
 
 --------------------------------------------------------------
 
                    Orbital Energies (a.u.)
 --------------------------------------------------------------
 
 Alpha MOs
 -- Occupied --
-89.382 -19.389 -19.389 -19.346 -19.345 -10.399 -10.399  -8.366
 -6.318  -6.316  -6.315  -2.164  -1.354  -1.227  -1.207  -1.177
 -0.926  -0.814  -0.778  -0.678  -0.671  -0.637  -0.622  -0.592
 -0.571  -0.540  -0.523  -0.510  -0.490  -0.487  -0.485  -0.440
 -0.428
 -- Virtual --
  0.008   0.017   0.017   0.019   0.042   0.062   0.066   0.068
  0.070   0.085   0.089   0.090   0.093   0.115   0.122   0.133
  0.135   0.135   0.140   0.149   0.172   0.175   0.179   0.195
  0.203   0.204   0.212   0.216   0.216   0.220   0.239   0.247
  0.264   0.272   0.276   0.278   0.292   0.307   0.321   0.342
  0.346   0.351   0.354   0.365   0.383   0.393   0.404   0.405
  0.415   0.422   0.427   0.444   0.471   0.501   0.567   0.581
  0.610   0.644   0.665   0.675   0.684   0.732   0.744   0.764
  0.770   0.783   0.828   0.849   0.865   0.901   1.014   1.018
  1.062   1.103   1.114   1.133   1.143   1.172   1.184   1.238
  1.248   1.251   1.307   1.321   1.332   1.377   1.382   1.405
  1.409   1.424   1.448   1.489   1.493   1.522   1.584   1.642
  1.655   1.667   1.692   1.756   1.798   1.836   1.846   1.861
  1.904   1.914   1.959   1.984   1.987   2.001   2.033   2.062
  2.096   2.112   2.176   2.193   2.214   2.267   2.279   2.346
  2.392   2.411   2.508   2.601   2.642   2.648   2.667   2.740
  2.757   2.810   2.835   2.916   2.935   2.941   2.973   3.116
  3.377   3.395   3.535   3.592   4.063   4.212   4.295   4.308
  4.378   4.530   4.757
 --------------------------------------------------------------
 
          Ground-State Mulliken Net Atomic Charges

     Atom                 Charge (a.u.)
  ----------------------------------------
      1 Li                    0.770780
      2 C                    -0.151730
      3 O                    -0.530634
      4 C                    -0.148215
      5 S                     1.791894
      6 O                    -0.535560
      7 O                    -0.594010
      8 O                    -0.588698
      9 H                     0.256113
     10 H                     0.237685
     11 H                     0.237447
     12 H                     0.254927
  ----------------------------------------
  Sum of atomic charges =     1.000000

 -----------------------------------------------------------------
                    Cartesian Multipole Moments
 -----------------------------------------------------------------
    Charge (ESU x 10^10)
                 4.8032
    Dipole Moment (Debye)
         X       3.5127      Y       0.1349      Z      -0.4545
       Tot       3.5446
    Quadrupole Moments (Debye-Ang)
        XX       6.5596     XY       0.3982     YY     -46.1976
        XZ      -1.1848     YZ       0.3618     ZZ     -50.3596
    Octopole Moments (Debye-Ang^2)
       XXX     112.2942    XXY       1.5108    XYY      -2.2511
       YYY       0.9317    XXZ      -5.2370    XYZ       2.8979
       YYZ      -1.2282    XZZ      -6.4092    YZZ       0.1891
       ZZZ      -3.7463
    Hexadecapole Moments (Debye-Ang^3)
      XXXX       5.9414   XXXY       3.9951   XXYY     -97.3778
      XYYY      -0.3413   YYYY    -189.1878   XXXZ     -15.3401
      XXYZ       8.3712   XYYZ      -0.4680   YYYZ      -0.0957
      XXZZ    -110.2201   XYZZ       0.3934   YYZZ     -55.5536
      XZZZ      -2.0927   YZZZ       0.9435   ZZZZ    -161.7196
 -----------------------------------------------------------------
 Calculating analytic gradient of the SCF energy
 Gradient of CDS energy
            1           2           3           4           5           6
    1   0.0000592  -0.0004780   0.0001897  -0.0004478  -0.0000271   0.0001869
    2   0.0000016   0.0010598  -0.0001519  -0.0010687   0.0000155   0.0001550
    3  -0.0000067  -0.0000426  -0.0000870   0.0000588  -0.0000281   0.0000884
            7           8           9          10          11          12
    1  -0.0001269  -0.0001336   0.0001844   0.0002339   0.0001715   0.0001877
    2  -0.0000274   0.0000245  -0.0001059  -0.0001254   0.0001281   0.0000947
    3   0.0000972  -0.0000883   0.0000385   0.0000547  -0.0000670  -0.0000178
 Gradient of SCF Energy
            1           2           3           4           5           6
    1   0.0063028   0.0418483  -0.0267146   0.0437795  -0.0060057  -0.0260375
    2  -0.0000850  -0.0308724   0.0237408   0.0279384  -0.0002525  -0.0237209
    3  -0.0003325   0.0200190   0.0048611  -0.0150328  -0.0003242  -0.0057234
            7           8           9          10          11          12
    1   0.0196868   0.0205427  -0.0317813  -0.0043696  -0.0073068  -0.0299445
    2   0.0146843  -0.0143183   0.0170897   0.0140605  -0.0115438  -0.0167209
    3  -0.0408158   0.0418940   0.0294872  -0.0404228   0.0379310  -0.0315407
 Max gradient component =       4.378E-02
 RMS gradient           =       2.424E-02
 Computing VTN gradient.
 Updating gradient with PCM contributions...
 -- total gradient after adding PCM contribution --
---------------------------------------------------
  Atom         X              Y              Z     
---------------------------------------------------
   1       0.000003      -0.000053      -0.000078
   2       0.000009      -0.000035       0.000101
   3       0.000016      -0.000043       0.000089
   4       0.000000      -0.000007      -0.000037
   5      -0.000097       0.000044       0.000039
   6       0.000028       0.000044      -0.000099
   7       0.000009       0.000123      -0.000009
   8       0.000060      -0.000056      -0.000063
   9       0.000001      -0.000070       0.000128
  10      -0.000050       0.000100       0.000095
  11       0.000019      -0.000100      -0.000087
  12       0.000001       0.000052      -0.000078
---------------------------------------------------
 Number of fixed atoms: 0
 Gradient time:  CPU 77.70 s  wall 3.49 s
 ----------------------------------------------------------------
             Standard Nuclear Orientation (Angstroms)
    I     Atom           X                Y                Z
 ----------------------------------------------------------------
    1      Li      3.1351740028     0.0301864208    -0.0909927667
    2      C      -1.8538615271     0.7559400247    -0.0168212819
    3      O      -0.5147111757     1.0899260690     0.4909313057
    4      C      -1.8646023775    -0.7607766071     0.0024922094
    5      S       0.5219694491    -0.0076412814     0.0393130319
    6      O      -0.5007768592    -1.1187101760    -0.4129945813
    7      O       1.3372826952     0.4021260438    -1.1028267119
    8      O       1.3544483179    -0.4032823856     1.1682731513
[...]
     6    1.139464878420761e-02   6.302960623862971e-03   9.403446735124013e-03
     7    6.801111497949886e-04   7.258590147560049e-04  -4.245990671264372e-04
     8    1.072217349528480e-03   5.351693596412541e-04   1.077873747683325e-03
     9   -1.062226947247174e-04   4.063475704047439e-05   1.995504548625887e-04
    10    2.943322789918109e-04  -1.812213756347006e-04   5.368450531225284e-04
    11   -1.649612688813474e-02  -1.146458029794361e-02  -1.380548385145299e-02
    12    1.318491006491037e-01   8.810153594374502e-02   1.904940573091673e-01




 # Finishing finite difference calculation for IDERIV #
 ######################################################
 ######################################################
 Requested basis set is 6-31++G(d,p)
 There are 57 shells and 180 basis functions
 **********************************************************************
 **                                                                  **
 **                       VIBRATIONAL ANALYSIS                       **
 **                       --------------------                       **
 **                                                                  **
 **        VIBRATIONAL FREQUENCIES (CM**-1) AND NORMAL MODES         **
 **     FORCE CONSTANTS (mDYN/ANGSTROM) AND REDUCED MASSES (AMU)     **
 **                  INFRARED INTENSITIES (KM/MOL)                   **
 **                                                                  **
 **********************************************************************
 

 Mode:                 1                      2                      3
 Frequency:        76.74                 161.36                 186.45
 Force Cnst:      0.0280                 0.1177                 0.0859
 Red. Mass:       8.0675                 7.6720                 4.1936
 IR Active:          YES                    YES                    YES
 IR Intens:       82.814                 82.775                 18.675
 Raman Active:       YES                    YES                    YES
               X      Y      Z        X      Y      Z        X      Y      Z
 Li         0.129  0.793 -0.412   -0.064  0.429  0.765    0.041 -0.082  0.058
 C          0.040  0.078 -0.001    0.042  0.057  0.052   -0.066 -0.076  0.080
 O          0.065  0.004 -0.043    0.081 -0.016 -0.025    0.004  0.086 -0.161
 C         -0.045  0.077 -0.009   -0.051  0.061  0.115    0.095 -0.052  0.253
 S          0.001 -0.107  0.050   -0.004 -0.064 -0.111   -0.005  0.028 -0.051
 O         -0.075  0.011 -0.062   -0.086 -0.038  0.040   -0.020  0.071 -0.166
 O          0.089 -0.168  0.071   -0.051 -0.026 -0.102    0.145  0.052  0.064
 O         -0.133 -0.120  0.120    0.099 -0.086 -0.179   -0.170 -0.099  0.023
 H          0.080  0.111  0.020    0.100  0.130  0.066   -0.008 -0.028  0.108
 H          0.032  0.084  0.003    0.013  0.021  0.038   -0.143 -0.249  0.033
 H         -0.037  0.077 -0.007   -0.010  0.078  0.137    0.412 -0.009  0.344
 H         -0.078  0.104  0.008   -0.106  0.054  0.173   -0.096 -0.249  0.551
 TransDip   0.076  0.262 -0.103   -0.038  0.158  0.242    0.047 -0.079  0.103

 Mode:                 4                      5                      6
 Frequency:       312.16                 318.53                 392.97
 Force Cnst:      0.5798                 0.4252                 0.2810
 Red. Mass:      10.0990                 7.1132                 3.0879
 IR Active:          YES                    YES                    YES
 IR Intens:        4.769                259.484                 17.713
 Raman Active:       YES                    YES                    YES
               X      Y      Z        X      Y      Z        X      Y      Z
 Li         0.009  0.030 -0.163    0.959 -0.058  0.085   -0.023 -0.002  0.012
 C          0.050  0.014 -0.251   -0.071 -0.005  0.015   -0.124 -0.021  0.218
 O          0.008  0.108 -0.210   -0.081 -0.016  0.022    0.025  0.084 -0.156
 C         -0.026  0.024  0.064   -0.080 -0.005 -0.009   -0.080 -0.071 -0.130
 S         -0.001 -0.009  0.053   -0.012  0.014 -0.023    0.013  0.032 -0.020
 O          0.035 -0.138  0.338   -0.072 -0.009  0.042    0.005 -0.007  0.126
 O         -0.093  0.392  0.129   -0.070  0.021 -0.050    0.127 -0.037  0.025
 O          0.040 -0.391 -0.116   -0.039  0.008 -0.008    0.003 -0.028 -0.031
 H          0.007  0.161 -0.383   -0.077 -0.010  0.014    0.032 -0.183  0.476
 H         -0.013 -0.125 -0.340   -0.074  0.003  0.018   -0.199  0.072  0.320
 H         -0.167  0.108  0.107   -0.121 -0.009 -0.020   -0.292 -0.192 -0.264
 H          0.034 -0.050  0.047   -0.062  0.019 -0.042    0.098  0.176 -0.444
 TransDip   0.003  0.012 -0.069    0.516 -0.008  0.005   -0.134  0.007  0.014

 Mode:                 7                      8                      9
 Frequency:       455.29                 461.57                 516.90
 Force Cnst:      1.1601                 1.4177                 2.2164
 Red. Mass:       9.4985                11.2939                14.0797
 IR Active:          YES                    YES                    YES
 IR Intens:       51.170                 23.923                 62.359
 Raman Active:       YES                    YES                    YES
               X      Y      Z        X      Y      Z        X      Y      Z
 Li        -0.001 -0.011 -0.085   -0.013 -0.077 -0.049   -0.070  0.052 -0.085
 C         -0.211 -0.001 -0.133    0.164  0.101  0.149    0.058 -0.003 -0.082
 O         -0.174 -0.169 -0.019    0.158 -0.195 -0.106   -0.128 -0.172  0.407
 C         -0.254  0.065  0.100   -0.142  0.074  0.039   -0.037  0.022  0.082
 S          0.025 -0.052  0.022    0.007 -0.210 -0.145    0.006  0.156 -0.245
 O         -0.194  0.094 -0.049   -0.075 -0.256 -0.004    0.067 -0.077  0.350
 O          0.334  0.025  0.232    0.052  0.392  0.091    0.422 -0.043 -0.087
 O          0.382  0.104 -0.148   -0.165  0.348  0.163   -0.354 -0.069 -0.123
 H         -0.173  0.174 -0.198    0.305  0.153  0.262   -0.120  0.080 -0.314
 H         -0.182 -0.063 -0.183    0.105  0.123  0.183    0.150  0.040 -0.127
 H         -0.121  0.129  0.174   -0.176  0.032  0.003   -0.148  0.082  0.110
 H         -0.295 -0.125  0.248   -0.154  0.230 -0.036    0.046 -0.027  0.032
 TransDip  -0.226 -0.036 -0.011    0.024 -0.139 -0.068   -0.040  0.146 -0.203

 Mode:                10                     11                     12
 Frequency:       670.79                 687.26                 804.27
 Force Cnst:      3.8780                 1.2547                 3.9323
 Red. Mass:      14.6279                 4.5085                10.3177
 IR Active:          YES                    YES                    YES
 IR Intens:       24.836                  1.867                 10.743
 Raman Active:       YES                    YES                    YES
               X      Y      Z        X      Y      Z        X      Y      Z
 Li        -0.132  0.001  0.047   -0.001  0.007 -0.006   -0.072  0.006  0.013
 C         -0.205 -0.066 -0.046    0.236 -0.228 -0.030   -0.186  0.030 -0.018
 O         -0.029 -0.378 -0.142    0.166  0.078  0.044   -0.096  0.400  0.199
 C         -0.194  0.043  0.042   -0.198 -0.207  0.030   -0.218 -0.016  0.026
 S          0.332  0.018  0.008   -0.003  0.074  0.016    0.200 -0.022 -0.012
 O         -0.048  0.387  0.114   -0.190  0.089 -0.025   -0.044 -0.366 -0.171
 O         -0.120  0.107 -0.341    0.012  0.016  0.004    0.069  0.069 -0.205
 O         -0.083 -0.136  0.332   -0.007  0.024 -0.003    0.072 -0.067  0.198
 H          0.071  0.174  0.089    0.202  0.138 -0.305   -0.424 -0.025 -0.209
 H         -0.237 -0.084 -0.048    0.208 -0.449 -0.172   -0.124 -0.056 -0.069
 H         -0.220  0.051  0.041   -0.347 -0.292 -0.069   -0.185 -0.014  0.038
 H         -0.030 -0.099 -0.041   -0.126  0.112 -0.235   -0.323  0.019  0.094
 TransDip   0.158  0.010  0.018    0.031 -0.030  0.004    0.100 -0.030 -0.007

 Mode:                13                     14                     15
 Frequency:       840.77                 906.00                 942.38
 Force Cnst:      2.9460                 1.9192                 2.4576
 Red. Mass:       7.0734                 3.9683                 4.6969
 IR Active:          YES                    YES                    YES
 IR Intens:      284.612                 41.651                365.728
 Raman Active:       YES                    YES                    YES
               X      Y      Z        X      Y      Z        X      Y      Z
 Li        -0.001  0.017  0.005    0.004  0.000  0.004    0.027 -0.004 -0.002
 C         -0.068  0.063 -0.045    0.165  0.051  0.121   -0.223  0.124 -0.071
 O          0.163 -0.241 -0.083   -0.184 -0.067 -0.092    0.245  0.010  0.068
 C          0.000  0.005 -0.042   -0.189  0.040  0.133   -0.219 -0.161  0.027
 S          0.002  0.275  0.100   -0.008  0.054  0.027   -0.052 -0.025 -0.009
 O         -0.127 -0.313 -0.097    0.227 -0.056 -0.104    0.246  0.059 -0.018
 O          0.000 -0.038 -0.011   -0.018 -0.048 -0.003   -0.026 -0.009  0.033
 O          0.005 -0.047 -0.002    0.008 -0.038 -0.018   -0.031  0.019 -0.033
 H          0.326  0.093  0.334    0.156  0.503 -0.161    0.053  0.563 -0.052
 H          0.024  0.405  0.118    0.107 -0.331 -0.053   -0.083  0.144 -0.093
 H          0.055  0.151  0.089   -0.270 -0.105  0.002   -0.047 -0.141  0.072
 H         -0.314 -0.159  0.347   -0.016  0.449 -0.259   -0.080 -0.560  0.110
 TransDip  -0.024  0.523  0.133   -0.031  0.121  0.165   -0.606 -0.081 -0.035

 Mode:                16                     17                     18
 Frequency:      1035.22                1041.02                1188.53
 Force Cnst:      1.6562                 1.0742                 1.5817
 Red. Mass:       2.6230                 1.6824                 1.9004
 IR Active:          YES                    YES                    YES
 IR Intens:      158.615                 68.096                145.826
 Raman Active:       YES                    YES                    YES
               X      Y      Z        X      Y      Z        X      Y      Z
 Li         0.009  0.002 -0.001   -0.003  0.001 -0.003    0.009 -0.002  0.005
 C         -0.142 -0.188 -0.029   -0.093  0.095  0.016    0.015  0.053 -0.128
 O          0.142 -0.026  0.021    0.010 -0.023  0.012   -0.003 -0.002  0.002
 C          0.003  0.213  0.073    0.148 -0.085  0.055   -0.001 -0.072  0.148
 S         -0.019  0.009  0.002    0.006 -0.001 -0.002   -0.066 -0.005  0.005
 O          0.065 -0.027 -0.027   -0.081 -0.023 -0.010    0.012  0.018 -0.032
 O         -0.015 -0.007  0.020    0.004  0.007 -0.001    0.053  0.024 -0.074
 O         -0.017  0.012 -0.018    0.004  0.003  0.005    0.044 -0.022  0.062
 H         -0.309 -0.285 -0.141   -0.025  0.611 -0.229    0.175 -0.486  0.363
 H         -0.132 -0.331 -0.093   -0.109 -0.222 -0.157    0.032  0.429  0.072
 H         -0.196  0.146 -0.021   -0.073 -0.213 -0.087   -0.314 -0.061  0.094
 H          0.080  0.640 -0.236    0.370  0.302 -0.378    0.295  0.227 -0.306
 TransDip  -0.392  0.090 -0.029    0.209  0.132 -0.094   -0.371 -0.052  0.098

 Mode:                19                     20                     21
 Frequency:      1206.65                1275.62                1294.10
 Force Cnst:      5.0622                 1.1224                19.3418
 Red. Mass:       5.9010                 1.1708                19.6026
 IR Active:          YES                    YES                    YES
 IR Intens:      352.044                 10.631                441.895
 Raman Active:       YES                    YES                    YES
               X      Y      Z        X      Y      Z        X      Y      Z
 Li        -0.022 -0.005 -0.004    0.000 -0.002  0.002    0.001 -0.016  0.057
 C         -0.012  0.074 -0.109   -0.022 -0.052 -0.061   -0.008  0.005  0.022
 O         -0.038  0.025  0.014   -0.028  0.030  0.040    0.001  0.001 -0.032
 C         -0.028 -0.085  0.126    0.009  0.046 -0.022    0.009 -0.004  0.003
 S          0.229  0.005 -0.018    0.003 -0.012  0.002    0.039 -0.166  0.485
 O         -0.025 -0.012 -0.042    0.005 -0.007  0.001   -0.008  0.001 -0.029
 O         -0.178 -0.090  0.252    0.000  0.000  0.002    0.270  0.157 -0.444
 O         -0.164  0.076 -0.213   -0.008  0.006 -0.009   -0.331  0.176 -0.505
 H          0.023 -0.479  0.273    0.721  0.226  0.506   -0.131  0.009 -0.098
 H         -0.025  0.374  0.058   -0.241 -0.295 -0.104    0.050  0.050  0.026
 H         -0.392 -0.040  0.093    0.032  0.048 -0.017   -0.068  0.016  0.005
 H          0.180  0.158 -0.220    0.010  0.001  0.005   -0.013 -0.013  0.030
 TransDip   0.601 -0.008  0.000    0.082 -0.055 -0.033    0.060 -0.217  0.634

 Mode:                22                     23                     24
 Frequency:      1406.71                1449.95                1577.51
 Force Cnst:      1.5314                 1.3404                 1.7038
 Red. Mass:       1.3135                 1.0821                 1.1621
 IR Active:          YES                    YES                    YES
 IR Intens:        0.585                 10.812                 10.497
 Raman Active:       YES                    YES                    YES
               X      Y      Z        X      Y      Z        X      Y      Z
 Li        -0.000  0.001 -0.002    0.000  0.000  0.002    0.001 -0.001 -0.000
 C         -0.033 -0.148  0.013   -0.025 -0.026 -0.041    0.013 -0.012  0.003
 O         -0.023  0.027 -0.009   -0.008  0.007 -0.003    0.006  0.001 -0.001
 C          0.026  0.040  0.015   -0.018 -0.043  0.003   -0.092  0.054  0.018
 S          0.003 -0.008 -0.006    0.005 -0.006  0.000    0.005  0.008  0.005
 O         -0.001 -0.002 -0.011    0.010  0.008  0.027   -0.025 -0.022 -0.002
 O         -0.004  0.002  0.005   -0.002 -0.002  0.002   -0.003 -0.003  0.002
 O         -0.001  0.001 -0.002   -0.003  0.005 -0.001   -0.004 -0.002 -0.005
 H          0.177  0.475 -0.156    0.081  0.100 -0.008   -0.016 -0.046 -0.007
 H          0.335  0.607  0.280    0.098  0.291  0.078    0.017  0.011  0.015
 H         -0.238  0.154  0.053    0.584 -0.245 -0.041    0.652 -0.025  0.100
 H          0.180 -0.131 -0.030   -0.380  0.574  0.000    0.547 -0.274 -0.417
 TransDip   0.012  0.021  0.004    0.043  0.088 -0.039   -0.068  0.034 -0.070

 Mode:                25                     26                     27
 Frequency:      1802.07                2035.35                3231.76
 Force Cnst:      2.1799                 2.6161                 6.7106
 Red. Mass:       1.1393                 1.0718                 1.0905
 IR Active:          YES                    YES                    YES
 IR Intens:       19.893                  8.096                  7.221
 Raman Active:       YES                    YES                    YES
               X      Y      Z        X      Y      Z        X      Y      Z
 Li        -0.000  0.002  0.001   -0.000  0.004 -0.006   -0.000  0.000 -0.000
 C         -0.002  0.005  0.021   -0.063  0.011  0.039   -0.057  0.036  0.053
 O          0.000 -0.001  0.005   -0.006  0.001 -0.004   -0.000 -0.000 -0.000
 C         -0.003 -0.089 -0.057    0.002 -0.001 -0.002   -0.008 -0.006 -0.008
 S         -0.001 -0.002 -0.001    0.002 -0.001 -0.002    0.001 -0.000 -0.000
 O          0.005  0.008 -0.004   -0.004  0.001  0.004    0.000 -0.000 -0.000
 O          0.001  0.006  0.002   -0.003  0.005 -0.000   -0.000  0.000 -0.000
 O          0.001 -0.004 -0.000    0.002 -0.002 -0.004    0.000 -0.000 -0.000
 H         -0.011  0.031 -0.001    0.038 -0.092  0.237    0.640 -0.394 -0.636
 H         -0.031 -0.062 -0.002    0.816 -0.122 -0.498    0.030 -0.013  0.016
 H          0.065  0.721  0.604    0.008  0.004  0.004    0.002  0.003 -0.000
 H         -0.056  0.225 -0.197   -0.000 -0.000 -0.002    0.092  0.056  0.097
 TransDip   0.102  0.100  0.001    0.040 -0.075  0.032    0.046 -0.011 -0.072

 Mode:                28                     29                     30
 Frequency:      3236.07                4010.41                6036.66
 Force Cnst:      6.7149                10.2624                23.2324
 Red. Mass:       1.0883                 1.0830                 1.0821
 IR Active:          YES                    YES                    YES
 IR Intens:        2.590                  6.017                  9.725
 Raman Active:       YES                    YES                    YES
               X      Y      Z        X      Y      Z        X      Y      Z
 Li         0.000 -0.000 -0.000   -0.000  0.002 -0.004   -0.000 -0.001 -0.000
 C          0.009 -0.005 -0.007   -0.029  0.038 -0.067   -0.000 -0.000 -0.002
 O          0.001  0.000  0.000   -0.001 -0.001  0.002    0.000  0.001 -0.003
 C         -0.055 -0.034 -0.055    0.001 -0.002  0.001    0.012  0.052 -0.062
 S          0.000  0.000  0.000    0.000 -0.000 -0.001   -0.000 -0.000 -0.000
 O         -0.001  0.000  0.000   -0.003  0.001  0.002    0.000 -0.001  0.003
 O         -0.000  0.000  0.000   -0.002  0.003 -0.001    0.000 -0.003 -0.001
 O         -0.000 -0.000 -0.000    0.001 -0.001 -0.002    0.000  0.003  0.001
 H         -0.095  0.057  0.094   -0.009  0.001  0.030    0.001  0.002 -0.003
 H         -0.006  0.003 -0.006    0.405 -0.463  0.783    0.001 -0.003 -0.002
 H          0.006  0.016 -0.010    0.003 -0.003 -0.002   -0.150 -0.611  0.773
 H          0.633  0.374  0.656    0.000  0.003  0.003    0.003 -0.000  0.008
 TransDip  -0.025  0.003  0.045   -0.050  0.023 -0.057    0.060 -0.037 -0.071

 STANDARD THERMODYNAMIC QUANTITIES AT   298.15 K  AND     1.00 ATM

   This Molecule has  0 Imaginary Frequencies
   Zero point vibrational energy:       56.555 kcal/mol

   Atom    1 Element Li Has Mass    7.01600
   Atom    2 Element C  Has Mass   12.00000
   Atom    3 Element O  Has Mass   15.99491
   Atom    4 Element C  Has Mass   12.00000
   Atom    5 Element S  Has Mass   31.97207
   Atom    6 Element O  Has Mass   15.99491
   Atom    7 Element O  Has Mass   15.99491
   Atom    8 Element O  Has Mass   15.99491
   Atom    9 Element H  Has Mass    1.00783
   Atom   10 Element H  Has Mass    1.00783
   Atom   11 Element H  Has Mass    1.00783
   Atom   12 Element H  Has Mass    1.00783
   Molecular Mass:   130.999030 amu
   Principal axes and moments of inertia in amu*Bohr^2:
                             1           2           3
    Eigenvalues --      409.36711  1063.52109  1108.95845
          X               0.99999    -0.00368     0.00100
          Y               0.00372     0.99935    -0.03587
          Z              -0.00086     0.03588     0.99936
   Rotational Symmetry Number is   1
   The Molecule is an Asymmetric Top
   Translational Enthalpy:        0.889 kcal/mol
   Rotational Enthalpy:           0.889 kcal/mol
   Vibrational Enthalpy:         59.352 kcal/mol
   gas constant (RT):             0.592 kcal/mol
   Translational Entropy:        40.523  cal/mol.K
   Rotational Entropy:           27.670  cal/mol.K
   Vibrational Entropy:          16.231  cal/mol.K

   Total Enthalpy:               61.722 kcal/mol
   Total Entropy:                84.423  cal/mol.K
Archival summary:
1\1\nid01014\FREQ\ProcedureUnspecified\BasisUnspecified\142i14(1+,1)\sblau\FriDec2818:09:372018FriDec2818:09:372018\0\\#,FREQ,ProcedureUnspecified,BasisUnspecified,\\1,1\S\O,1,1.45743\O,1,1.46189,2,111.268\O,1,1.57586,2,110.05,3,-126.435,0\C,4,1.47061,1,109.994,2,-133.594,0\H,5,1.08687,4,106.329,1,152.497,0\H,5,1.0888,4,107.957,1,-87.1925,0\C,5,1.51688,4,103.246,1,33.0804,0\H,8,1.08546,5,112.721,4,78.4447,0\H,8,1.08691,5,113.287,4,-152.866,0\O,8,1.46995,5,103.492,4,-38.0437,0\Li,3,2.0968,1,92.9291,2,0.593709,0\\\@

 Total job time:  1522.68s(wall), 38779.86s(cpu) 
 Fri Dec 28 18:09:37 2018

        *************************************************************
        *                                                           *
        *  Thank you very much for using Q-Chem.  Have a nice day.  *
        *                                                           *
        *************************************************************


