
Running Job 1 of 1 mol.qin
qchem mol.qin_16205.0 /tmp/chain_scratch/ 1
/global/common/cori/software/qchem/5.1/exe/qcprog.exe mol.qin_16205.0 /tmp/chain_scratch/
Check license passed

                  Welcome to Q-Chem
     A Quantum Leap Into The Future Of Chemistry


 Q-Chem 5.1, Q-Chem, Inc., Pleasanton, CA (2018)

 Yihan Shao,  Zhengting Gan,  E. Epifanovsky,  A. T. B. Gilbert,  M. Wormit,  
 J. Kussmann,  A. W. Lange,  A. Behn,  Jia Deng,  Xintian Feng,  D. Ghosh,  
 M. Goldey,  P. R. Horn,  L. D. Jacobson,  I. Kaliman,  T. Kus,  A. Landau,  
 Jie Liu,  E. I. Proynov,  R. M. Richard,  R. P. Steele,  E. J. Sundstrom,  
 H. L. Woodcock III,  P. M. Zimmerman,  D. Zuev,  B. Albrecht,  E. Alguire,  
 S. A. Baeppler,  D. Barton,  Z. Benda,  Y. A. Bernard,  E. J. Berquist,  
 K. B. Bravaya,  H. Burton,  D. Casanova,  Chun-Min Chang,  Yunqing Chen,  
 A. Chien,  K. D. Closser,  M. P. Coons,  S. Coriani,  S. Dasgupta,  
 A. L. Dempwolff,  M. Diedenhofen,  Hainam Do,  R. G. Edgar,  Po-Tung Fang,  
 S. Faraji,  S. Fatehi,  Qingguo Feng,  K. D. Fenk,  J. Fosso-Tande,  
 Qinghui Ge,  A. Ghysels,  G. Gidofalvi,  J. Gomes,  J. Gonthier,  A. Gunina,  
 D. Hait,  M. W. D. Hanson-Heine,  P. H. P. Harbach,  A. W. Hauser,  
 J. E. Herr,  E. G. Hohenstein,  Z. C. Holden,  Kerwin Hui,  B. C. Huynh,  
 T.-C. Jagau,  Hyunjun Ji,  B. Kaduk,  K. Khistyaev,  Jaehoon Kim,  
 P. Klunzinger,  K. Koh,  D. Kosenkov,  L. Koulias,  T. Kowalczyk,  
 C. M. Krauter,  A. Kunitsa,  Ka Un Lao,  A. Laurent,  K. V. Lawler,  
 Joonho Lee,  D. Lefrancois,  S. Lehtola,  D. S. Levine,  Yi-Pei Li,  
 You-Sheng Lin,  Fenglai Liu,  E. Livshits,  A. Luenser,  P. Manohar,  
 E. Mansoor,  S. F. Manzer,  Shan-Ping Mao,  Yuezhi Mao,  N. Mardirossian,  
 A. V. Marenich,  T. Markovich,  L. A. Martinez-Martinez,  S. A. Maurer,  
 N. J. Mayhall,  S. C. McKenzie,  J.-M. Mewes,  A. F. Morrison,  
 J. W. Mullinax,  K. Nanda,  T. S. Nguyen-Beck,  R. Olivares-Amaya,  
 J. A. Parkhill,  T. M. Perrine,  F. Plasser,  P. Pokhilko,  S. Prager,  
 A. Prociuk,  E. Ramos,  D. R. Rehn,  F. Rob,  M. Schneider,  N. Sergueev,  
 S. M. Sharada,  S. Sharma,  D. W. Small,  T. Stauch,  T. Stein,  
 Yu-Chuan Su,  A. J. W. Thom,  A. Tkatchenko,  T. Tsuchimochi,  N. M. Tubman,  
 L. Vogt,  M. L. Vidal,  O. Vydrov,  M. A. Watson,  J. Wenzel,  
 M. de Wergifosse,  T. A. Wesolowski,  A. White,  J. Witte,  A. Yamada,  
 Jun Yang,  K. Yao,  S. Yeganeh,  S. R. Yost,  Zhi-Qiang You,  A. Zech,  
 Igor Ying Zhang,  Xing Zhang,  Yan Zhao,  Ying Zhu,  B. R. Brooks,  
 G. K. L. Chan,  C. J. Cramer,  M. S. Gordon,  W. J. Hehre,  A. Klamt,  
 M. W. Schmidt,  C. D. Sherrill,  D. G. Truhlar,  A. Aspuru-Guzik,  R. Baer,  
 A. T. Bell,  N. A. Besley,  Jeng-Da Chai,  R. A. DiStasio Jr.,  A. Dreuw,  
 B. D. Dunietz,  T. R. Furlani,  Chao-Ping Hsu,  Yousung Jung,  Jing Kong,  
 D. S. Lambrecht,  WanZhen Liang,  C. Ochsenfeld,  V. A. Rassolov,  
 L. V. Slipchenko,  J. E. Subotnik,  T. Van Voorhis,  J. M. Herbert,  
 A. I. Krylov,  P. M. W. Gill,  M. Head-Gordon

 Contributors to earlier versions of Q-Chem not listed above: 
 R. D. Adamson,  B. Austin,  J. Baker,  G. J. O. Beran,  K. Brandhorst,  
 S. T. Brown,  E. F. C. Byrd,  A. K. Chakraborty,  C.-L. Cheng,  
 Siu Hung Chien,  D. M. Chipman,  D. L. Crittenden,  H. Dachsel,  
 R. J. Doerksen,  A. D. Dutoi,  L. Fusti-Molnar,  W. A. Goddard III,  
 A. Golubeva-Zadorozhnaya,  S. R. Gwaltney,  G. Hawkins,  A. Heyden,  
 S. Hirata,  G. Kedziora,  F. J. Keil,  C. Kelley,  Jihan Kim,  R. A. King,  
 R. Z. Khaliullin,  P. P. Korambath,  W. Kurlancheek,  A. M. Lee,  M. S. Lee,  
 S. V. Levchenko,  Ching Yeh Lin,  D. Liotard,  R. C. Lochan,  I. Lotan,  
 P. E. Maslen,  N. Nair,  D. P. O'Neill,  D. Neuhauser,  E. Neuscamman,  
 C. M. Oana,  R. Olson,  B. Peters,  R. Peverati,  P. A. Pieniazek,  
 Y. M. Rhee,  J. Ritchie,  M. A. Rohrdanz,  E. Rosta,  N. J. Russ,  
 H. F. Schaefer III,  N. E. Schultz,  N. Shenvi,  A. C. Simmonett,  A. Sodt,  
 D. Stuck,  K. S. Thanthiriwatte,  V. Vanovschi,  Tao Wang,  A. Warshel,  
 C. F. Williams,  Q. Wu,  X. Xu,  W. Zhang

 Please cite Q-Chem as follows:
 Y. Shao et al., Mol. Phys. 113, 184-215 (2015)
 DOI: 10.1080/00268976.2014.952696

 Q-Chem 5.1.0 for Intel X86 EM64T Linux

 Parts of Q-Chem use Armadillo 8.300.2 (Tropical Shenanigans).
 http://arma.sourceforge.net/

 Q-Chem begins on Fri Dec 28 12:30:53 2018  

Host: cori08
0

     Scratch files written to /tmp/chain_scratch//
 Jun2518 |scratch|qcdevops|jenkins|workspace|build_RNUM -1
Processing $rem in /global/common/cori/software/qchem/5.1/config/preferences.
 MEM_TOTAL  96000 
The previous job contains 0 fragments, simply inherited here
Symmetry turned off for PCM/SM12/SMD calculation

Checking the input file for inconsistencies... 	...done.

--------------------------------------------------------------
User input:
--------------------------------------------------------------
$molecule
read
$end

$rem
job_type = freq
basis = 6-31++g**
max_scf_cycles = 200
gen_scfman = true
xc_grid = 3
scf_algorithm = diis_gdm
method = wb97xd
geom_opt_max_cycles = 200
solvent_method = smd
ideriv = 1
scf_guess = read
$end

$smx
solvent acetonitrile
$end
--------------------------------------------------------------
 ----------------------------------------------------------------
             Standard Nuclear Orientation (Angstroms)
    I     Atom           X                Y                Z
 ----------------------------------------------------------------
    1      Li      3.1328406343     0.0062113080    -0.0235813069
    2      C      -1.8562890322     0.7572801942    -0.0135717931
    3      O      -0.5079498569     1.1006251026     0.4606464363
    4      C      -1.8612232434    -0.7598338176     0.0116065433
    5      S       0.5233407854    -0.0018740656     0.0095052188
    6      O      -0.5036922022    -1.1155709281    -0.4250159658
    7      O       1.3370243822     0.3957457492    -1.1358196058
    8      O       1.3598976765    -0.3909682393     1.1403522198
    9      H      -2.5511289423     1.1993877848     0.6957232697
   10      H      -1.9790928090     1.1707046438    -1.0140495017
   11      H      -2.0138253903    -1.1633958442     1.0075897736
   12      H      -2.5414744633    -1.1982056261    -0.7140561772
 ----------------------------------------------------------------
 Nuclear Repulsion Energy =   484.2239100244 hartrees
 There are       33 alpha and       33 beta electrons
 Requested basis set is 6-31++G(d,p)
 There are 57 shells and 180 basis functions

 Total QAlloc Memory Limit  96000 MB
 Mega-Array Size       188 MB
 MEM_STATIC part       192 MB

                       Distance Matrix (Angstroms)
             Li(  1)   C (  2)   O (  3)   C (  4)   S (  5)   O (  6)
   C (  2)  5.045356
   O (  3)  3.832437  1.469962
   C (  4)  5.052597  1.517331  2.343991
   S (  5)  2.609722  2.497896  1.575625  2.502130
   O (  6)  3.826737  2.346567  2.386617  1.469721  1.576048
   O (  7)  2.147968  3.404027  2.539584  3.588975  1.460120  2.485469
   O (  8)  2.157735  3.604701  2.485097  3.433038  1.459465  2.539369
   H (  9)  5.852229  1.086904  2.059028  2.186901  3.371393  3.287413
   H ( 10)  5.335629  1.089475  2.084203  2.189256  2.946995  2.784030
   H ( 11)  5.377682  2.180960  2.773553  1.085418  2.963531  2.082102
   H ( 12)  5.841680  2.187254  3.286301  1.086967  3.368656  2.059837
             O (  7)   O (  8)   H (  9)   H ( 10)   H ( 11)
   O (  8)  2.408402
   H (  9)  4.372428  4.245357
   H ( 10)  3.407642  4.269558  1.803156
   H ( 11)  4.272390  3.463564  2.443093  3.088083
   H ( 12)  4.214418  4.394447  2.781371  2.453162  1.801025
 
 A cutoff of  1.0D-12 yielded   1574 shell pairs
 There are     16206 function pairs
 
 -------------------------------------------------------
 OpenMP Integral Computing Module                       
 Release: version 1.0, May 2013, Q-Chem Inc. Pittsburgh 
 -------------------------------------------------------
 Integral Job Info:
 Integral job number is                      11
 Integral operator is                         1
 short-range coefficients              22203600
 long-range coefficients              100000000
 Omega coefficients                         200
 if combine SR and LR in K                    1
 Integral screening is                        0
 Integral computing path is                   2
 max size of driver memory is            800000
 size of driver memory is                593474
 size of scratch memory is             15604072
 max col of scratch BK array               1296
 max len of scratch array in speh3          155
 max len of scratch index in speh4           18
 max int batch size is                      520
 min int batch size is                       52
 fixed nKL is                                52
 max L of basis functions is                  2
 order of int derivative is                   0
 number of shells is                         57
 number of basis is                         180
 number of cartesian basis is               180
 number of contracted shell pairs          1574
 number of primitive shell pairs           5389
 maxK2 (contraction) of shell pair           36
 max number of K2 of shell pair               1
 max number of CS2 of shell pair            176
 max number of PS2 of shell pair           1056
 mem total for path MDJ                  537180
 -------------------------------------------------------
 Smallest overlap matrix eigenvalue = 1.31E-04

 -----------------------------------------------------------------------
  General SCF calculation program by
  Eric Jon Sundstrom, Paul Horn, Yuezhi Mao, Dmitri Zuev, Alec White,
  David Stuck, Shaama M.S., Shane Yost, Joonho Lee, David Small,
  Daniel Levine, Susi Lehtola, Hugh Burton, Evgeny Epifanovsky
 -----------------------------------------------------------------------
 Exchange:     0.2220 Hartree-Fock + 1.0000 wB97X-D + LR-HF
 Correlation:  1.0000 wB97X-D
 Using SG-3 standard quadrature grid
 Dispersion:   Grimme D
 
 Citation of the SMD model:
 Marenich, A.V.; Cramer, C.J.; Truhlar, D.G.
 J. Phys. Chem. B 2009, 113, 6378-6396.
 iSolventCode=          53
 Solvent: acetonitrile                                                    
 
 vradii
            1           2           3           4           5           6
    1   2.1476001   1.8500000   2.1680000   1.8500000   2.4900000   2.1680000
            7           8           9          10          11          12
    1   2.1680000   2.1680000   1.2000000   1.2000000   1.2000000   1.2000000
Changing PCM_TESSEL_METHOD to VTN
Changing PCM_VDW_RADII to SMD_RADIUS
 Discretize the solute cavity surface with Lebedev spheres
	Using 302 Lebedev grid points for each H atom
	Using 302 Lebedev grid points for other atoms
	Atomic van der Waals radii will be scaled by 1.20
 Removing interior tesserae...
 Keep 1149 surface tesserae and discard 2475 interior tesserae
 Molecular Surface Area = 164.569 Angst**2
 
 Citation of the SMD model:
 Marenich, A.V.; Cramer, C.J.; Truhlar, D.G.
 J. Phys. Chem. B 2009, 113, 6378-6396.
 iSolventCode=          53
 Solvent: acetonitrile                                                    
 
 vradii
            1           2           3           4           5           6
    1   2.1476001   1.8500000   2.1680000   1.8500000   2.4900000   2.1680000
            7           8           9          10          11          12
    1   2.1680000   2.1680000   1.2000000   1.2000000   1.2000000   1.2000000
 using 32 threads for integral computing
 -------------------------------------------------------
 OpenMP Integral computing Module                
 Release: version 1.0, May 2013, Q-Chem Inc. Pittsburgh 
 -------------------------------------------------------
 using 32 threads for integral computing
 -------------------------------------------------------
 OpenMP Integral computing Module                
 Release: version 1.0, May 2013, Q-Chem Inc. Pittsburgh 
 -------------------------------------------------------
 -------------------------------------------------------
 OpenMP BLAS3 based DFT computing Module                
 Release: version 1.0, May 2013, Q-Chem Inc. Pittsburgh 
 -------------------------------------------------------
 A restricted SCF calculation will be
 performed using DIIS, GDM
 SCF converges when RMS gradient is below 1.0e-08
 ---------------------------------------
  Cycle       Energy         DIIS error
 ---------------------------------------
    1    -784.8385747578      4.02e-04  
    2    -784.9324136611      4.38e-04  Done DIIS. Switching to GDM
 ---------------------------------------
  Cycle       Energy        RMS Gradient
 ---------------------------------------
    1    -784.9324136611      6.42e-03   Normal BFGS step
    2    -784.9333850094      2.97e-03   Normal BFGS step
    3    -784.9336092745      1.21e-03   Normal BFGS step
    4    -784.9336464193      4.34e-04   Normal BFGS step
    5    -784.9336496989      1.89e-04   Normal BFGS step
    6    -784.9336504464      8.65e-05   Normal BFGS step
    7    -784.9336505266      4.43e-05   Normal BFGS step
    8    -784.9336505652      7.93e-06   Normal BFGS step
    9    -784.9336505670      4.69e-06   Normal BFGS step
   10    -784.9336505672      3.35e-06   Normal BFGS step
   11    -784.9336505673      7.45e-07   Normal BFGS step
   12    -784.9336505673      1.59e-07   Normal BFGS step
   13    -784.9336505673      3.24e-08   Normal BFGS step
   14    -784.9336505673      9.80e-09  Convergence criterion met
 ---------------------------------------
 SCF time:   CPU 578.52s  wall 24.00s 
(0)  E-EN(g) gas-phase elect-nuc energy                    0.000000000 a.u.
(3)  G-ENP(liq) elect-nuc-pol free energy of system     -784.933650567 a.u.
(4)  G-CDS(liq) cavity-dispersion-solvent structure 
     free energy                                               -0.3980 kcal/mol
(6)  G-S(liq) free energy of system                     -784.934284871 a.u.
(9)  DeltaG-S(liq) free energy of  solvation
     (9) = (6) - (0)                                      -492553.6979 kcal/mol
 SCF   energy in the final basis set =     -784.9336505673
 Total energy in the final basis set =     -784.9342848709
 
 --------------------------------------------------------------
 
                    Orbital Energies (a.u.)
 --------------------------------------------------------------
 
 Alpha MOs
 -- Occupied --
-89.382 -19.389 -19.389 -19.346 -19.346 -10.399 -10.399  -8.366
 -6.318  -6.317  -6.315  -2.163  -1.354  -1.228  -1.208  -1.177
 -0.927  -0.815  -0.779  -0.678  -0.671  -0.637  -0.623  -0.593
 -0.571  -0.540  -0.523  -0.510  -0.490  -0.487  -0.486  -0.440
 -0.428
 -- Virtual --
  0.008   0.017   0.017   0.019   0.042   0.062   0.066   0.068
  0.070   0.085   0.089   0.089   0.093   0.115   0.121   0.133
  0.135   0.135   0.140   0.149   0.171   0.175   0.179   0.195
  0.203   0.204   0.212   0.216   0.216   0.220   0.239   0.248
  0.266   0.272   0.277   0.277   0.293   0.306   0.320   0.342
  0.346   0.351   0.354   0.364   0.383   0.393   0.404   0.405
  0.415   0.422   0.427   0.444   0.471   0.501   0.568   0.581
  0.609   0.644   0.665   0.674   0.684   0.733   0.743   0.766
  0.769   0.782   0.829   0.849   0.865   0.902   1.015   1.017
  1.063   1.103   1.113   1.131   1.143   1.176   1.180   1.239
  1.247   1.250   1.307   1.321   1.331   1.378   1.381   1.405
  1.409   1.426   1.447   1.490   1.492   1.521   1.585   1.642
  1.655   1.667   1.694   1.756   1.797   1.839   1.847   1.862
  1.904   1.914   1.958   1.983   1.994   1.996   2.034   2.061
  2.090   2.109   2.176   2.194   2.213   2.267   2.279   2.346
  2.393   2.410   2.510   2.601   2.641   2.647   2.667   2.740
  2.756   2.809   2.835   2.916   2.935   2.941   2.972   3.116
  3.375   3.395   3.533   3.593   4.063   4.211   4.295   4.309
  4.377   4.529   4.756
 --------------------------------------------------------------
 
          Ground-State Mulliken Net Atomic Charges

     Atom                 Charge (a.u.)
  ----------------------------------------
      1 Li                    0.768476
      2 C                    -0.155209
      3 O                    -0.530947
      4 C                    -0.148123
      5 S                     1.796864
      6 O                    -0.534082
      7 O                    -0.592311
      8 O                    -0.591029
      9 H                     0.255335
     10 H                     0.238277
     11 H                     0.238138
     12 H                     0.254611
  ----------------------------------------
  Sum of atomic charges =     1.000000

 -----------------------------------------------------------------
                    Cartesian Multipole Moments
 -----------------------------------------------------------------
    Charge (ESU x 10^10)
                 4.8032
    Dipole Moment (Debye)
         X       3.4738      Y       0.0340      Z      -0.1220
       Tot       3.4761
    Quadrupole Moments (Debye-Ang)
        XX       6.4316     XY       0.0797     YY     -46.1886
        XZ      -0.3389     YZ       0.3444     ZZ     -50.3813
    Octopole Moments (Debye-Ang^2)
       XXX     111.6865    XXY       0.3504    XYY      -2.2851
       YYY       0.3389    XXZ      -1.4518    XYZ       2.9027
       YYZ      -0.3436    XZZ      -6.6856    YZZ       0.0074
       ZZZ      -0.9204
    Hexadecapole Moments (Debye-Ang^3)
      XXXX       3.5943   XXXY       0.7926   XXYY     -97.4325
      XYYY      -0.2146   YYYY    -189.1954   XXXZ      -4.2910
      XXYZ       8.2965   XYYZ      -0.0669   YYYZ      -0.0889
      XXZZ    -110.6207   XYZZ       0.0640   YYZZ     -55.4444
      XZZZ      -0.3592   YZZZ       0.8817   ZZZZ    -161.3161
 -----------------------------------------------------------------
 Calculating analytic gradient of the SCF energy
 Gradient of CDS energy
            1           2           3           4           5           6
    1   0.0000599  -0.0004626   0.0001883  -0.0004327  -0.0000190   0.0001877
    2   0.0000001   0.0010642  -0.0001535  -0.0010743   0.0000114   0.0001569
    3  -0.0000011  -0.0000527  -0.0000853   0.0000836  -0.0000200   0.0000813
            7           8           9          10          11          12
    1  -0.0001297  -0.0001319   0.0001855   0.0002095   0.0001584   0.0001867
    2  -0.0000256   0.0000248  -0.0001068  -0.0001277   0.0001301   0.0001004
    3   0.0000943  -0.0000913   0.0000365   0.0000537  -0.0000727  -0.0000263
 Gradient of SCF Energy
            1           2           3           4           5           6
    1   0.0060943   0.0428950  -0.0265070   0.0440214  -0.0054677  -0.0260919
    2  -0.0000476  -0.0307052   0.0238420   0.0283517  -0.0002136  -0.0239921
    3  -0.0000408   0.0195546   0.0051606  -0.0158367   0.0003203  -0.0054591
            7           8           9          10          11          12
    1   0.0195370   0.0205258  -0.0311044  -0.0061391  -0.0073083  -0.0304551
    2   0.0143838  -0.0139694   0.0170981   0.0137937  -0.0116093  -0.0169321
    3  -0.0415313   0.0412058   0.0301049  -0.0408120   0.0382266  -0.0308930
 Max gradient component =       4.402E-02
 RMS gradient           =       2.433E-02
 Computing VTN gradient.
 Updating gradient with PCM contributions...
 -- total gradient after adding PCM contribution --
---------------------------------------------------
  Atom         X              Y              Z     
---------------------------------------------------
   1      -0.000030       0.000064       0.000042
   2       0.000023       0.000087       0.000008
   3       0.000007      -0.000037       0.000060
   4      -0.000051      -0.000111       0.000037
   5      -0.000039       0.000051      -0.000076
   6      -0.000068      -0.000006      -0.000013
   7      -0.000032       0.000096       0.000010
   8       0.000087      -0.000106      -0.000079
   9       0.000000      -0.000033       0.000091
  10       0.000012      -0.000053       0.000150
  11       0.000101       0.000026      -0.000170
  12      -0.000012       0.000021      -0.000060
---------------------------------------------------
 Number of fixed atoms: 0
 Gradient time:  CPU 77.71 s  wall 3.95 s
 ######################################################
 ######################################################
 # Starting finite difference calculation for IDERIV  #
 Finite diff step size:  1.88973e-03 a.u.
 ----------------------------------------------------------------
             Standard Nuclear Orientation (Angstroms)
    I     Atom           X                Y                Z
 ----------------------------------------------------------------
    1      Li      3.1338406343     0.0062113080    -0.0235813069
    2      C      -1.8562890322     0.7572801942    -0.0135717931
    3      O      -0.5079498569     1.1006251026     0.4606464363
    4      C      -1.8612232434    -0.7598338176     0.0116065433
    5      S       0.5233407854    -0.0018740656     0.0095052188
    6      O      -0.5036922022    -1.1155709281    -0.4250159658
    7      O       1.3370243822     0.3957457492    -1.1358196058
    8      O       1.3598976765    -0.3909682393     1.1403522198
    9      H      -2.5511289423     1.1993877848     0.6957232697
   10      H      -1.9790928090     1.1707046438    -1.0140495017
   11      H      -2.0138253903    -1.1633958442     1.0075897736
   12      H      -2.5414744633    -1.1982056261    -0.7140561772
 ----------------------------------------------------------------
 Nuclear Repulsion Energy =   484.2130584362 hartrees
 There are       33 alpha and       33 beta electrons
 Discretize the solute cavity surface with Lebedev spheres
	Using 302 Lebedev grid points for each H atom
	Using 302 Lebedev grid points for other atoms
	Atomic van der Waals radii will be scaled by 1.20
 Removing interior tesserae...
 Keep 1149 surface tesserae and discard 2475 interior tesserae
 Molecular Surface Area = 164.569 Angst**2

                       Distance Matrix (Angstroms)
             Li(  1)   C (  2)   O (  3)   C (  4)   S (  5)   O (  6)
   C (  2)  5.046345
   O (  3)  3.833387  1.469962
   C (  4)  5.053586  1.517331  2.343991
   S (  5)  2.610722  2.497896  1.575625  2.502130
   O (  6)  3.827687  2.346567  2.386617  1.469721  1.576048
   O (  7)  2.148804  3.404027  2.539584  3.588975  1.460120  2.485469
   O (  8)  2.158557  3.604701  2.485097  3.433038  1.459465  2.539369
   H (  9)  5.853200  1.086904  2.059028  2.186901  3.371393  3.287413
   H ( 10)  5.336587  1.089475  2.084203  2.189256  2.946995  2.784030
   H ( 11)  5.378639  2.180960  2.773553  1.085418  2.963531  2.082102
   H ( 12)  5.842652  2.187254  3.286301  1.086967  3.368656  2.059837
             O (  7)   O (  8)   H (  9)   H ( 10)   H ( 11)
   O (  8)  2.408402
   H (  9)  4.372428  4.245357
   H ( 10)  3.407642  4.269558  1.803156
   H ( 11)  4.272390  3.463564  2.443093  3.088083
   H ( 12)  4.214418  4.394447  2.781371  2.453162  1.801025
 
 Requested basis set is 6-31++G(d,p)
 There are 57 shells and 180 basis functions
 A cutoff of  1.0D-12 yielded   1574 shell pairs
 There are     16206 function pairs
 Smallest overlap matrix eigenvalue = 1.31E-04

 -----------------------------------------------------------------------
  General SCF calculation program by
  Eric Jon Sundstrom, Paul Horn, Yuezhi Mao, Dmitri Zuev, Alec White,
  David Stuck, Shaama M.S., Shane Yost, Joonho Lee, David Small,
  Daniel Levine, Susi Lehtola, Hugh Burton, Evgeny Epifanovsky
 -----------------------------------------------------------------------
 Exchange:     0.2220 Hartree-Fock + 1.0000 wB97X-D + LR-HF
 Correlation:  1.0000 wB97X-D
 Using SG-3 standard quadrature grid
 Dispersion:   Grimme D
 using 32 threads for integral computing
 -------------------------------------------------------
 OpenMP Integral computing Module                
 Release: version 1.0, May 2013, Q-Chem Inc. Pittsburgh 
 -------------------------------------------------------
 using 32 threads for integral computing
 -------------------------------------------------------
 OpenMP Integral computing Module                
 Release: version 1.0, May 2013, Q-Chem Inc. Pittsburgh 
 -------------------------------------------------------
 -------------------------------------------------------
 OpenMP BLAS3 based DFT computing Module                
 Release: version 1.0, May 2013, Q-Chem Inc. Pittsburgh 
 -------------------------------------------------------
 A restricted SCF calculation will be
 performed using DIIS, GDM
 SCF converges when RMS gradient is below 1.0e-08
 ---------------------------------------
  Cycle       Energy         DIIS error
 ---------------------------------------
    1    -784.9336116550      1.99e-06  
    2    -784.9336506871      6.45e-07  Done DIIS. Switching to GDM
 ---------------------------------------
  Cycle       Energy        RMS Gradient
 ---------------------------------------
    1    -784.9336506871      8.75e-06   Normal BFGS step
    2    -784.9336506878      1.01e-05   Normal BFGS step
    3    -784.9336506889      1.31e-06   Normal BFGS step
    4    -784.9336506889      9.91e-07   Normal BFGS step
    5    -784.9336506889      1.40e-07   Normal BFGS step
    6    -784.9336506889      9.01e-08   Normal BFGS step
    7    -784.9336506889      1.84e-08   Normal BFGS step
    8    -784.9336506889      1.44e-08   Normal BFGS step
    9    -784.9336506889      5.16e-09  Convergence criterion met
 ---------------------------------------
 SCF time:   CPU 390.81s  wall 17.00s 
(0)  E-EN(g) gas-phase elect-nuc energy                    0.000000000 a.u.
(3)  G-ENP(liq) elect-nuc-pol free energy of system     -784.933650689 a.u.
(4)  G-CDS(liq) cavity-dispersion-solvent structure 
     free energy                                               -0.3980 kcal/mol
(6)  G-S(liq) free energy of system                     -784.934284993 a.u.
(9)  DeltaG-S(liq) free energy of  solvation
     (9) = (6) - (0)                                      -492553.6979 kcal/mol
 SCF   energy in the final basis set =     -784.9336506889
 Total energy in the final basis set =     -784.9342849925
 
 --------------------------------------------------------------
 
                    Orbital Energies (a.u.)
 --------------------------------------------------------------
 
 Alpha MOs
 -- Occupied --
-89.382 -19.389 -19.389 -19.346 -19.346 -10.399 -10.399  -8.366
 -6.318  -6.316  -6.315  -2.163  -1.354  -1.228  -1.208  -1.177
 -0.927  -0.815  -0.779  -0.678  -0.671  -0.637  -0.623  -0.593
 -0.571  -0.540  -0.523  -0.510  -0.490  -0.487  -0.486  -0.440
 -0.428
 -- Virtual --
  0.008   0.017   0.017   0.019   0.042   0.062   0.066   0.068
  0.070   0.085   0.089   0.089   0.093   0.115   0.121   0.133
  0.135   0.135   0.140   0.149   0.171   0.175   0.179   0.195
  0.203   0.204   0.212   0.216   0.216   0.220   0.239   0.248
  0.266   0.272   0.277   0.277   0.293   0.306   0.320   0.342
  0.346   0.351   0.354   0.364   0.383   0.393   0.404   0.405
  0.415   0.422   0.427   0.444   0.471   0.501   0.568   0.581
  0.609   0.644   0.665   0.674   0.684   0.733   0.743   0.766
  0.769   0.781   0.828   0.849   0.865   0.902   1.015   1.017
  1.063   1.103   1.113   1.131   1.143   1.176   1.180   1.239
  1.247   1.250   1.307   1.321   1.331   1.378   1.381   1.405
  1.409   1.426   1.447   1.490   1.492   1.521   1.585   1.642
  1.655   1.667   1.694   1.756   1.797   1.839   1.847   1.862
  1.904   1.914   1.958   1.983   1.994   1.996   2.034   2.061
  2.090   2.109   2.177   2.194   2.213   2.267   2.279   2.346
  2.393   2.410   2.510   2.601   2.641   2.647   2.667   2.740
  2.756   2.809   2.835   2.916   2.935   2.941   2.972   3.116
  3.375   3.395   3.533   3.593   4.063   4.211   4.295   4.309
  4.377   4.529   4.756
 --------------------------------------------------------------
 
          Ground-State Mulliken Net Atomic Charges

     Atom                 Charge (a.u.)
  ----------------------------------------
      1 Li                    0.768870
      2 C                    -0.155184
      3 O                    -0.530932
      4 C                    -0.148096
      5 S                     1.796637
      6 O                    -0.534067
      7 O                    -0.592422
      8 O                    -0.591137
      9 H                     0.255330
     10 H                     0.238267
     11 H                     0.238128
     12 H                     0.254606
  ----------------------------------------
  Sum of atomic charges =     1.000000

 -----------------------------------------------------------------
                    Cartesian Multipole Moments
 -----------------------------------------------------------------
    Charge (ESU x 10^10)
                 4.8032
    Dipole Moment (Debye)
         X       3.4797      Y       0.0340      Z      -0.1221
       Tot       3.4820
    Quadrupole Moments (Debye-Ang)
        XX       6.4615     XY       0.0798     YY     -46.1895
        XZ      -0.3390     YZ       0.3446     ZZ     -50.3826
    Octopole Moments (Debye-Ang^2)
       XXX     111.8302    XXY       0.3506    XYY      -2.2847
       YYY       0.3389    XXZ      -1.4526    XYZ       2.9030
       YYZ      -0.3436    XZZ      -6.6862    YZZ       0.0074
       ZZZ      -0.9205
    Hexadecapole Moments (Debye-Ang^3)
      XXXX       4.1591   XXXY       0.7935   XXYY     -97.4372
      XYYY      -0.2147   YYYY    -189.1985   XXXZ      -4.2944
      XXYZ       8.2966   XYYZ      -0.0669   YYYZ      -0.0886
      XXZZ    -110.6253   XYZZ       0.0640   YYZZ     -55.4460
      XZZZ      -0.3593   YZZZ       0.8827   ZZZZ    -161.3223
 -----------------------------------------------------------------
 Calculating analytic gradient of the SCF energy
 Gradient of CDS energy
            1           2           3           4           5           6
    1   0.0000599  -0.0004626   0.0001883  -0.0004327  -0.0000190   0.0001877
    2   0.0000001   0.0010642  -0.0001535  -0.0010743   0.0000114   0.0001569
    3  -0.0000011  -0.0000527  -0.0000853   0.0000836  -0.0000200   0.0000813
            7           8           9          10          11          12
    1  -0.0001297  -0.0001319   0.0001855   0.0002095   0.0001584   0.0001867
    2  -0.0000256   0.0000248  -0.0001068  -0.0001277   0.0001301   0.0001004
    3   0.0000943  -0.0000913   0.0000365   0.0000537  -0.0000727  -0.0000263
 Gradient of SCF Energy
            1           2           3           4           5           6
    1   0.0061663   0.0428871  -0.0264881   0.0440134  -0.0055747  -0.0260732
    2  -0.0000476  -0.0307014   0.0238362   0.0283480  -0.0002142  -0.0239859
    3  -0.0000409   0.0195483   0.0051594  -0.0158307   0.0003225  -0.0054582
            7           8           9          10          11          12
    1   0.0195372   0.0205273  -0.0310998  -0.0061381  -0.0073070  -0.0304505
    2   0.0143805  -0.0139659   0.0170957   0.0137920  -0.0116077  -0.0169298
    3  -0.0415238   0.0411967   0.0301014  -0.0408059   0.0382205  -0.0308894
 Max gradient component =       4.401E-02
 RMS gradient           =       2.433E-02
 Computing VTN gradient.
 Updating gradient with PCM contributions...
 -- total gradient after adding PCM contribution --
---------------------------------------------------
  Atom         X              Y              Z     
---------------------------------------------------
   1       0.000021       0.000064       0.000042
   2       0.000020       0.000086       0.000006
   3       0.000017      -0.000041       0.000059
   4      -0.000054      -0.000110       0.000040
   5      -0.000111       0.000051      -0.000074
   6      -0.000057      -0.000002      -0.000013
   7      -0.000030       0.000096       0.000010
   8       0.000090      -0.000105      -0.000080
   9       0.000001      -0.000033       0.000091
  10       0.000013      -0.000053       0.000150
  11       0.000101       0.000026      -0.000170
  12      -0.000011       0.000021      -0.000061
---------------------------------------------------
 Number of fixed atoms: 0
 Gradient time:  CPU 76.22 s  wall 3.49 s
 ----------------------------------------------------------------
             Standard Nuclear Orientation (Angstroms)
    I     Atom           X                Y                Z
 ----------------------------------------------------------------
    1      Li      3.1318406343     0.0062113080    -0.0235813069
    2      C      -1.8562890322     0.7572801942    -0.0135717931
    3      O      -0.5079498569     1.1006251026     0.4606464363
    4      C      -1.8612232434    -0.7598338176     0.0116065433
    5      S       0.5233407854    -0.0018740656     0.0095052188
    6      O      -0.5036922022    -1.1155709281    -0.4250159658
    7      O       1.3370243822     0.3957457492    -1.1358196058
    8      O       1.3598976765    -0.3909682393     1.1403522198
    9      H      -2.5511289423     1.1993877848     0.6957232697
   10      H      -1.9790928090     1.1707046438    -1.0140495017
   11      H      -2.0138253903    -1.1633958442     1.0075897736
   12      H      -2.5414744633    -1.1982056261    -0.7140561772
 ----------------------------------------------------------------
 Nuclear Repulsion Energy =   484.2347682969 hartrees
 There are       33 alpha and       33 beta electrons
 Discretize the solute cavity surface with Lebedev spheres
	Using 302 Lebedev grid points for each H atom
	Using 302 Lebedev grid points for other atoms
	Atomic van der Waals radii will be scaled by 1.20
 Removing interior tesserae...
 Keep 1149 surface tesserae and discard 2475 interior tesserae
 Molecular Surface Area = 164.569 Angst**2

                       Distance Matrix (Angstroms)
             Li(  1)   C (  2)   O (  3)   C (  4)   S (  5)   O (  6)
   C (  2)  5.044367
   O (  3)  3.831487  1.469962
   C (  4)  5.051609  1.517331  2.343991
   S (  5)  2.608722  2.497896  1.575625  2.502130
   O (  6)  3.825787  2.346567  2.386617  1.469721  1.576048
   O (  7)  2.147132  3.404027  2.539584  3.588975  1.460120  2.485469
   O (  8)  2.156913  3.604701  2.485097  3.433038  1.459465  2.539369
   H (  9)  5.851257  1.086904  2.059028  2.186901  3.371393  3.287413
   H ( 10)  5.334671  1.089475  2.084203  2.189256  2.946995  2.784030
   H ( 11)  5.376725  2.180960  2.773553  1.085418  2.963531  2.082102
   H ( 12)  5.840709  2.187254  3.286301  1.086967  3.368656  2.059837
             O (  7)   O (  8)   H (  9)   H ( 10)   H ( 11)
   O (  8)  2.408402
   H (  9)  4.372428  4.245357
   H ( 10)  3.407642  4.269558  1.803156
   H ( 11)  4.272390  3.463564  2.443093  3.088083
   H ( 12)  4.214418  4.394447  2.781371  2.453162  1.801025
 
 Requested basis set is 6-31++G(d,p)
 There are 57 shells and 180 basis functions
 A cutoff of  1.0D-12 yielded   1574 shell pairs
 There are     16206 function pairs
 Smallest overlap matrix eigenvalue = 1.31E-04

 -----------------------------------------------------------------------
  General SCF calculation program by
  Eric Jon Sundstrom, Paul Horn, Yuezhi Mao, Dmitri Zuev, Alec White,
  David Stuck, Shaama M.S., Shane Yost, Joonho Lee, David Small,
  Daniel Levine, Susi Lehtola, Hugh Burton, Evgeny Epifanovsky
 -----------------------------------------------------------------------
 Exchange:     0.2220 Hartree-Fock + 1.0000 wB97X-D + LR-HF
 Correlation:  1.0000 wB97X-D
 Using SG-3 standard quadrature grid
 Dispersion:   Grimme D
 using 32 threads for integral computing
 -------------------------------------------------------
 OpenMP Integral computing Module                
 Release: version 1.0, May 2013, Q-Chem Inc. Pittsburgh 
 -------------------------------------------------------
 using 32 threads for integral computing
 -------------------------------------------------------
 OpenMP Integral computing Module                
 Release: version 1.0, May 2013, Q-Chem Inc. Pittsburgh 
 -------------------------------------------------------
 -------------------------------------------------------
 OpenMP BLAS3 based DFT computing Module                
 Release: version 1.0, May 2013, Q-Chem Inc. Pittsburgh 
 -------------------------------------------------------
 A restricted SCF calculation will be
 performed using DIIS, GDM
 SCF converges when RMS gradient is below 1.0e-08
 ---------------------------------------
  Cycle       Energy         DIIS error
 ---------------------------------------
    1    -784.9337283251      3.98e-06  
    2    -784.9336503434      1.29e-06  Done DIIS. Switching to GDM
 ---------------------------------------
  Cycle       Energy        RMS Gradient
 ---------------------------------------
    1    -784.9336503434      1.75e-05   Normal BFGS step
    2    -784.9336503462      2.01e-05   Normal BFGS step
    3    -784.9336503503      2.63e-06   Normal BFGS step
    4    -784.9336503505      1.98e-06   Normal BFGS step
    5    -784.9336503505      2.80e-07   Normal BFGS step
    6    -784.9336503505      1.81e-07   Normal BFGS step
    7    -784.9336503505      3.71e-08   Normal BFGS step
    8    -784.9336503505      2.90e-08   Normal BFGS step
    9    -784.9336503505      1.04e-08   Normal BFGS step
   10    -784.9336503505      8.45e-09  Convergence criterion met
 ---------------------------------------
 SCF time:   CPU 435.61s  wall 17.00s 
(0)  E-EN(g) gas-phase elect-nuc energy                    0.000000000 a.u.
(3)  G-ENP(liq) elect-nuc-pol free energy of system     -784.933650351 a.u.
(4)  G-CDS(liq) cavity-dispersion-solvent structure 
     free energy                                               -0.3980 kcal/mol
(6)  G-S(liq) free energy of system                     -784.934284654 a.u.
(9)  DeltaG-S(liq) free energy of  solvation
     (9) = (6) - (0)                                      -492553.6977 kcal/mol
 SCF   energy in the final basis set =     -784.9336503505
 Total energy in the final basis set =     -784.9342846542
 
 --------------------------------------------------------------
 
                    Orbital Energies (a.u.)
 --------------------------------------------------------------
 
 Alpha MOs
 -- Occupied --
-89.382 -19.389 -19.389 -19.346 -19.346 -10.399 -10.399  -8.366
 -6.318  -6.317  -6.315  -2.163  -1.354  -1.228  -1.208  -1.177
 -0.927  -0.815  -0.779  -0.678  -0.672  -0.637  -0.623  -0.593
 -0.571  -0.540  -0.523  -0.510  -0.490  -0.487  -0.486  -0.441
 -0.428
 -- Virtual --
  0.008   0.017   0.017   0.019   0.042   0.062   0.066   0.068
  0.070   0.085   0.089   0.089   0.093   0.115   0.121   0.133
  0.135   0.135   0.140   0.149   0.171   0.175   0.179   0.195
  0.203   0.204   0.212   0.216   0.216   0.220   0.239   0.248
  0.266   0.272   0.277   0.277   0.293   0.306   0.320   0.342
  0.346   0.351   0.354   0.364   0.383   0.393   0.404   0.405
  0.415   0.422   0.427   0.444   0.471   0.501   0.568   0.581
  0.609   0.644   0.665   0.674   0.685   0.733   0.744   0.766
  0.770   0.782   0.829   0.849   0.865   0.903   1.014   1.017
  1.063   1.103   1.114   1.131   1.143   1.176   1.180   1.239
  1.247   1.250   1.307   1.321   1.331   1.378   1.381   1.405
  1.409   1.426   1.447   1.490   1.492   1.521   1.585   1.642
  1.655   1.667   1.695   1.756   1.797   1.838   1.847   1.862
  1.904   1.914   1.958   1.983   1.994   1.996   2.034   2.061
  2.091   2.109   2.176   2.194   2.213   2.267   2.279   2.346
  2.393   2.410   2.510   2.601   2.641   2.647   2.667   2.740
  2.756   2.809   2.835   2.916   2.935   2.941   2.972   3.116
  3.375   3.395   3.533   3.593   4.063   4.211   4.295   4.309
  4.377   4.529   4.756
 --------------------------------------------------------------
 
          Ground-State Mulliken Net Atomic Charges

     Atom                 Charge (a.u.)
  ----------------------------------------
      1 Li                    0.768081
      2 C                    -0.155233
      3 O                    -0.530961
      4 C                    -0.148150
      5 S                     1.797091
      6 O                    -0.534097
      7 O                    -0.592200
      8 O                    -0.590921
      9 H                     0.255340
     10 H                     0.238287
     11 H                     0.238147
     12 H                     0.254616
  ----------------------------------------
  Sum of atomic charges =     1.000000

 -----------------------------------------------------------------
                    Cartesian Multipole Moments
 -----------------------------------------------------------------
    Charge (ESU x 10^10)
                 4.8032
    Dipole Moment (Debye)
         X       3.4679      Y       0.0340      Z      -0.1220
       Tot       3.4702
    Quadrupole Moments (Debye-Ang)
        XX       6.4018     XY       0.0797     YY     -46.1877
        XZ      -0.3387     YZ       0.3442     ZZ     -50.3800
    Octopole Moments (Debye-Ang^2)
       XXX     111.5430    XXY       0.3502    XYY      -2.2855
       YYY       0.3389    XXZ      -1.4511    XYZ       2.9024
       YYZ      -0.3436    XZZ      -6.6850    YZZ       0.0074
       ZZZ      -0.9204
    Hexadecapole Moments (Debye-Ang^3)
      XXXX       3.0300   XXXY       0.7917   XXYY     -97.4277
      XYYY      -0.2146   YYYY    -189.1923   XXXZ      -4.2877
      XXYZ       8.2963   XYYZ      -0.0669   YYYZ      -0.0892
      XXZZ    -110.6161   XYZZ       0.0640   YYZZ     -55.4428
      XZZZ      -0.3591   YZZZ       0.8806   ZZZZ    -161.3099
 -----------------------------------------------------------------
 Calculating analytic gradient of the SCF energy
 Gradient of CDS energy
            1           2           3           4           5           6
    1   0.0000599  -0.0004626   0.0001883  -0.0004327  -0.0000190   0.0001877
    2   0.0000001   0.0010642  -0.0001535  -0.0010743   0.0000114   0.0001569
    3  -0.0000011  -0.0000527  -0.0000853   0.0000836  -0.0000200   0.0000813
            7           8           9          10          11          12
    1  -0.0001297  -0.0001319   0.0001855   0.0002095   0.0001584   0.0001867
    2  -0.0000256   0.0000248  -0.0001068  -0.0001277   0.0001301   0.0001004
    3   0.0000943  -0.0000913   0.0000365   0.0000537  -0.0000727  -0.0000263
 Gradient of SCF Energy
            1           2           3           4           5           6
    1   0.0060219   0.0429029  -0.0265259   0.0440294  -0.0053605  -0.0261106
    2  -0.0000475  -0.0307091   0.0238479   0.0283553  -0.0002130  -0.0239982
    3  -0.0000407   0.0195609   0.0051618  -0.0158426   0.0003181  -0.0054600
            7           8           9          10          11          12
    1   0.0195369   0.0205244  -0.0311090  -0.0061402  -0.0073096  -0.0304596
    2   0.0143870  -0.0139730   0.0171005   0.0137953  -0.0116108  -0.0169345
    3  -0.0415387   0.0412150   0.0301083  -0.0408181   0.0382326  -0.0308966
 Max gradient component =       4.403E-02
 RMS gradient           =       2.434E-02
 Computing VTN gradient.
 Updating gradient with PCM contributions...
 -- total gradient after adding PCM contribution --
---------------------------------------------------
  Atom         X              Y              Z     
---------------------------------------------------
   1      -0.000080       0.000064       0.000042
   2       0.000027       0.000088       0.000010
   3      -0.000004      -0.000033       0.000060
   4      -0.000047      -0.000112       0.000035
   5       0.000034       0.000051      -0.000077
   6      -0.000079      -0.000010      -0.000014
   7      -0.000034       0.000096       0.000009
   8       0.000084      -0.000106      -0.000077
   9      -0.000000      -0.000033       0.000091
  10       0.000012      -0.000053       0.000150
  11       0.000100       0.000026      -0.000169
  12      -0.000013       0.000021      -0.000060
---------------------------------------------------
 Number of fixed atoms: 0
 Gradient time:  CPU 76.48 s  wall 3.86 s
 ----------------------------------------------------------------
             Standard Nuclear Orientation (Angstroms)
    I     Atom           X                Y                Z
 ----------------------------------------------------------------
    1      Li      3.1328406343     0.0072113080    -0.0235813069
    2      C      -1.8562890322     0.7572801942    -0.0135717931
    3      O      -0.5079498569     1.1006251026     0.4606464363
    4      C      -1.8612232434    -0.7598338176     0.0116065433
    5      S       0.5233407854    -0.0018740656     0.0095052188
    6      O      -0.5036922022    -1.1155709281    -0.4250159658
    7      O       1.3370243822     0.3957457492    -1.1358196058
    8      O       1.3598976765    -0.3909682393     1.1403522198
    9      H      -2.5511289423     1.1993877848     0.6957232697
   10      H      -1.9790928090     1.1707046438    -1.0140495017
   11      H      -2.0138253903    -1.1633958442     1.0075897736
   12      H      -2.5414744633    -1.1982056261    -0.7140561772
 ----------------------------------------------------------------
 Nuclear Repulsion Energy =   484.2238853501 hartrees
 There are       33 alpha and       33 beta electrons
 Discretize the solute cavity surface with Lebedev spheres
	Using 302 Lebedev grid points for each H atom
	Using 302 Lebedev grid points for other atoms
	Atomic van der Waals radii will be scaled by 1.20
 Removing interior tesserae...
 Keep 1149 surface tesserae and discard 2475 interior tesserae
 Molecular Surface Area = 164.569 Angst**2

                       Distance Matrix (Angstroms)
             Li(  1)   C (  2)   O (  3)   C (  4)   S (  5)   O (  6)
   C (  2)  5.045207
   O (  3)  3.832152  1.469962
   C (  4)  5.052749  1.517331  2.343991
   S (  5)  2.609725  2.497896  1.575625  2.502130
   O (  6)  3.827030  2.346567  2.386617  1.469721  1.576048
   O (  7)  2.147787  3.404027  2.539584  3.588975  1.460120  2.485469
   O (  8)  2.157919  3.604701  2.485097  3.433038  1.459465  2.539369
   H (  9)  5.852025  1.086904  2.059028  2.186901  3.371393  3.287413
   H ( 10)  5.335411  1.089475  2.084203  2.189256  2.946995  2.784030
   H ( 11)  5.377900  2.180960  2.773553  1.085418  2.963531  2.082102
   H ( 12)  5.841886  2.187254  3.286301  1.086967  3.368656  2.059837
             O (  7)   O (  8)   H (  9)   H ( 10)   H ( 11)
   O (  8)  2.408402
   H (  9)  4.372428  4.245357
   H ( 10)  3.407642  4.269558  1.803156
   H ( 11)  4.272390  3.463564  2.443093  3.088083
   H ( 12)  4.214418  4.394447  2.781371  2.453162  1.801025
 
 Requested basis set is 6-31++G(d,p)
 There are 57 shells and 180 basis functions
 A cutoff of  1.0D-12 yielded   1574 shell pairs
 There are     16206 function pairs
 Smallest overlap matrix eigenvalue = 1.31E-04

 -----------------------------------------------------------------------
  General SCF calculation program by
  Eric Jon Sundstrom, Paul Horn, Yuezhi Mao, Dmitri Zuev, Alec White,
  David Stuck, Shaama M.S., Shane Yost, Joonho Lee, David Small,
  Daniel Levine, Susi Lehtola, Hugh Burton, Evgeny Epifanovsky
 -----------------------------------------------------------------------
 Exchange:     0.2220 Hartree-Fock + 1.0000 wB97X-D + LR-HF
 Correlation:  1.0000 wB97X-D
 Using SG-3 standard quadrature grid
 Dispersion:   Grimme D
 using 32 threads for integral computing
 -------------------------------------------------------
 OpenMP Integral computing Module                
 Release: version 1.0, May 2013, Q-Chem Inc. Pittsburgh 
 -------------------------------------------------------
 using 32 threads for integral computing
 -------------------------------------------------------
 OpenMP Integral computing Module                
 Release: version 1.0, May 2013, Q-Chem Inc. Pittsburgh 
 -------------------------------------------------------
 -------------------------------------------------------
 OpenMP BLAS3 based DFT computing Module                
 Release: version 1.0, May 2013, Q-Chem Inc. Pittsburgh 
 -------------------------------------------------------
 A restricted SCF calculation will be
 performed using DIIS, GDM
 SCF converges when RMS gradient is below 1.0e-08
 ---------------------------------------
  Cycle       Energy         DIIS error
 ---------------------------------------
    1    -784.9336117093      2.47e-06  
    2    -784.9336504410      8.90e-07  Done DIIS. Switching to GDM
 ---------------------------------------
  Cycle       Energy        RMS Gradient
 ---------------------------------------
    1    -784.9336504410      1.33e-05   Normal BFGS step
    2    -784.9336504423      1.80e-05   Normal BFGS step
    3    -784.9336504448      1.63e-06   Normal BFGS step
    4    -784.9336504449      1.19e-06   Normal BFGS step
    5    -784.9336504449      2.71e-07   Normal BFGS step
    6    -784.9336504449      1.94e-07   Normal BFGS step
    7    -784.9336504449      4.33e-08   Normal BFGS step
    8    -784.9336504449      2.51e-08   Normal BFGS step
    9    -784.9336504449      3.75e-09  Convergence criterion met
 ---------------------------------------
 SCF time:   CPU 388.95s  wall 14.00s 
(0)  E-EN(g) gas-phase elect-nuc energy                    0.000000000 a.u.
(3)  G-ENP(liq) elect-nuc-pol free energy of system     -784.933650445 a.u.
(4)  G-CDS(liq) cavity-dispersion-solvent structure 
     free energy                                               -0.3980 kcal/mol
(6)  G-S(liq) free energy of system                     -784.934284749 a.u.
(9)  DeltaG-S(liq) free energy of  solvation
     (9) = (6) - (0)                                      -492553.6978 kcal/mol
 SCF   energy in the final basis set =     -784.9336504449
 Total energy in the final basis set =     -784.9342847485
 
 --------------------------------------------------------------
 
                    Orbital Energies (a.u.)
 --------------------------------------------------------------
 
 Alpha MOs
 -- Occupied --
-89.382 -19.389 -19.389 -19.346 -19.346 -10.399 -10.399  -8.366
 -6.318  -6.317  -6.315  -2.163  -1.354  -1.228  -1.208  -1.177
 -0.927  -0.815  -0.779  -0.678  -0.671  -0.637  -0.623  -0.593
 -0.571  -0.540  -0.523  -0.510  -0.490  -0.487  -0.486  -0.440
 -0.428
 -- Virtual --
  0.008   0.017   0.017   0.019   0.042   0.062   0.066   0.068
  0.070   0.085   0.089   0.089   0.093   0.115   0.121   0.133
  0.135   0.135   0.140   0.149   0.171   0.175   0.179   0.195
  0.203   0.204   0.212   0.216   0.216   0.220   0.239   0.248
  0.266   0.272   0.277   0.277   0.293   0.306   0.320   0.342
  0.346   0.351   0.354   0.364   0.383   0.393   0.404   0.405
  0.415   0.422   0.427   0.444   0.471   0.501   0.568   0.581
  0.609   0.644   0.665   0.674   0.684   0.733   0.743   0.766
  0.769   0.782   0.829   0.849   0.865   0.902   1.015   1.017
  1.063   1.103   1.113   1.131   1.143   1.176   1.180   1.239
  1.247   1.250   1.307   1.321   1.331   1.378   1.381   1.405
  1.409   1.426   1.447   1.490   1.492   1.521   1.585   1.642
  1.655   1.667   1.694   1.756   1.797   1.839   1.847   1.862
  1.904   1.914   1.958   1.983   1.994   1.996   2.034   2.061
  2.090   2.109   2.176   2.194   2.213   2.267   2.279   2.346
  2.393   2.410   2.510   2.601   2.641   2.647   2.667   2.740
  2.756   2.809   2.835   2.916   2.935   2.941   2.972   3.116
  3.375   3.395   3.533   3.593   4.063   4.211   4.295   4.309
  4.377   4.529   4.756
 --------------------------------------------------------------
 
          Ground-State Mulliken Net Atomic Charges

     Atom                 Charge (a.u.)
  ----------------------------------------
      1 Li                    0.768476
      2 C                    -0.155222
      3 O                    -0.530938
      4 C                    -0.148110
      5 S                     1.796863
      6 O                    -0.534090
      7 O                    -0.592308
      8 O                    -0.591033
      9 H                     0.255336
     10 H                     0.238278
     11 H                     0.238138
     12 H                     0.254610
  ----------------------------------------
  Sum of atomic charges =     1.000000

 -----------------------------------------------------------------
                    Cartesian Multipole Moments
 -----------------------------------------------------------------
    Charge (ESU x 10^10)
                 4.8032
    Dipole Moment (Debye)
         X       3.4738      Y       0.0382      Z      -0.1220
       Tot       3.4761
    Quadrupole Moments (Debye-Ang)
        XX       6.4316     XY       0.0938     YY     -46.1886
        XZ      -0.3387     YZ       0.3443     ZZ     -50.3813
    Octopole Moments (Debye-Ang^2)
       XXX     111.6865    XXY       0.3950    XYY      -2.2849
       YYY       0.3367    XXZ      -1.4513    XYZ       2.9024
       YYZ      -0.3434    XZZ      -6.6856    YZZ       0.0064
       ZZZ      -0.9206
    Hexadecapole Moments (Debye-Ang^3)
      XXXX       3.5943   XXXY       0.9319   XXYY     -97.4319
      XYYY      -0.2202   YYYY    -189.1954   XXXZ      -4.2902
      XXYZ       8.2954   XYYZ      -0.0666   YYYZ      -0.0889
      XXZZ    -110.6207   XYZZ       0.0616   YYZZ     -55.4444
      XZZZ      -0.3592   YZZZ       0.8817   ZZZZ    -161.3161
 -----------------------------------------------------------------
 Calculating analytic gradient of the SCF energy
 Gradient of CDS energy
            1           2           3           4           5           6
    1   0.0000599  -0.0004626   0.0001883  -0.0004327  -0.0000190   0.0001877
    2   0.0000001   0.0010642  -0.0001535  -0.0010743   0.0000114   0.0001569
    3  -0.0000011  -0.0000527  -0.0000853   0.0000836  -0.0000200   0.0000813
            7           8           9          10          11          12
    1  -0.0001297  -0.0001319   0.0001855   0.0002095   0.0001584   0.0001867
    2  -0.0000256   0.0000248  -0.0001068  -0.0001277   0.0001301   0.0001004
    3   0.0000943  -0.0000913   0.0000365   0.0000537  -0.0000727  -0.0000263
 Gradient of SCF Energy
            1           2           3           4           5           6
    1   0.0060942   0.0428969  -0.0265050   0.0440195  -0.0054677  -0.0260940
    2  -0.0000370  -0.0307051   0.0238410   0.0283518  -0.0001962  -0.0239932
    3  -0.0000400   0.0195550   0.0051630  -0.0158362   0.0003080  -0.0054567
            7           8           9          10          11          12
    1   0.0195362   0.0205267  -0.0311045  -0.0061389  -0.0073086  -0.0304549
    2   0.0143697  -0.0139833   0.0170985   0.0137943  -0.0116087  -0.0169318
    3  -0.0415278   0.0412086   0.0301053  -0.0408126   0.0382260  -0.0308926
 Max gradient component =       4.402E-02
 RMS gradient           =       2.433E-02
 Computing VTN gradient.
 Updating gradient with PCM contributions...
 -- total gradient after adding PCM contribution --
---------------------------------------------------
  Atom         X              Y              Z     
---------------------------------------------------
   1      -0.000030       0.000066       0.000043
   2       0.000024       0.000087       0.000008
   3       0.000008      -0.000038       0.000061
   4      -0.000051      -0.000111       0.000037
   5      -0.000039       0.000067      -0.000086
   6      -0.000070      -0.000007      -0.000012
   7      -0.000033       0.000088       0.000013
   8       0.000089      -0.000113      -0.000075
   9       0.000000      -0.000033       0.000091
  10       0.000013      -0.000053       0.000150
  11       0.000101       0.000026      -0.000170
  12      -0.000012       0.000021      -0.000060
---------------------------------------------------
 Number of fixed atoms: 0
 Gradient time:  CPU 76.58 s  wall 3.45 s
 ----------------------------------------------------------------
             Standard Nuclear Orientation (Angstroms)
    I     Atom           X                Y                Z
 ----------------------------------------------------------------
    1      Li      3.1328406343     0.0052113080    -0.0235813069
    2      C      -1.8562890322     0.7572801942    -0.0135717931
    3      O      -0.5079498569     1.1006251026     0.4606464363
    4      C      -1.8612232434    -0.7598338176     0.0116065433
    5      S       0.5233407854    -0.0018740656     0.0095052188
    6      O      -0.5036922022    -1.1155709281    -0.4250159658
    7      O       1.3370243822     0.3957457492    -1.1358196058
    8      O       1.3598976765    -0.3909682393     1.1403522198
    9      H      -2.5511289423     1.1993877848     0.6957232697
   10      H      -1.9790928090     1.1707046438    -1.0140495017
   11      H      -2.0138253903    -1.1633958442     1.0075897736
   12      H      -2.5414744633    -1.1982056261    -0.7140561772
 ----------------------------------------------------------------
 Nuclear Repulsion Energy =   484.2239304694 hartrees
 There are       33 alpha and       33 beta electrons
 Discretize the solute cavity surface with Lebedev spheres
	Using 302 Lebedev grid points for each H atom
	Using 302 Lebedev grid points for other atoms
	Atomic van der Waals radii will be scaled by 1.20
 Removing interior tesserae...
 Keep 1148 surface tesserae and discard 2476 interior tesserae
 Molecular Surface Area = 164.358 Angst**2

                       Distance Matrix (Angstroms)
             Li(  1)   C (  2)   O (  3)   C (  4)   S (  5)   O (  6)
   C (  2)  5.045505
   O (  3)  3.832723  1.469962
   C (  4)  5.052446  1.517331  2.343991
   S (  5)  2.609719  2.497896  1.575625  2.502130
   O (  6)  3.826444  2.346567  2.386617  1.469721  1.576048
   O (  7)  2.148150  3.404027  2.539584  3.588975  1.460120  2.485469
   O (  8)  2.157551  3.604701  2.485097  3.433038  1.459465  2.539369
   H (  9)  5.852433  1.086904  2.059028  2.186901  3.371393  3.287413
   H ( 10)  5.335847  1.089475  2.084203  2.189256  2.946995  2.784030
   H ( 11)  5.377465  2.180960  2.773553  1.085418  2.963531  2.082102
   H ( 12)  5.841474  2.187254  3.286301  1.086967  3.368656  2.059837
             O (  7)   O (  8)   H (  9)   H ( 10)   H ( 11)
   O (  8)  2.408402
   H (  9)  4.372428  4.245357
   H ( 10)  3.407642  4.269558  1.803156
   H ( 11)  4.272390  3.463564  2.443093  3.088083
   H ( 12)  4.214418  4.394447  2.781371  2.453162  1.801025
 
 Requested basis set is 6-31++G(d,p)
 There are 57 shells and 180 basis functions
 A cutoff of  1.0D-12 yielded   1574 shell pairs
 There are     16206 function pairs
 Smallest overlap matrix eigenvalue = 1.31E-04

 -----------------------------------------------------------------------
  General SCF calculation program by
  Eric Jon Sundstrom, Paul Horn, Yuezhi Mao, Dmitri Zuev, Alec White,
  David Stuck, Shaama M.S., Shane Yost, Joonho Lee, David Small,
  Daniel Levine, Susi Lehtola, Hugh Burton, Evgeny Epifanovsky
 -----------------------------------------------------------------------
 Exchange:     0.2220 Hartree-Fock + 1.0000 wB97X-D + LR-HF
 Correlation:  1.0000 wB97X-D
 Using SG-3 standard quadrature grid
 Dispersion:   Grimme D
 using 32 threads for integral computing
 -------------------------------------------------------
 OpenMP Integral computing Module                
 Release: version 1.0, May 2013, Q-Chem Inc. Pittsburgh 
 -------------------------------------------------------
 using 32 threads for integral computing
 -------------------------------------------------------
 OpenMP Integral computing Module                
 Release: version 1.0, May 2013, Q-Chem Inc. Pittsburgh 
 -------------------------------------------------------
 -------------------------------------------------------
 OpenMP BLAS3 based DFT computing Module                
 Release: version 1.0, May 2013, Q-Chem Inc. Pittsburgh 
 -------------------------------------------------------
 A restricted SCF calculation will be
 performed using DIIS, GDM
 SCF converges when RMS gradient is below 1.0e-08
 ---------------------------------------
  Cycle       Energy         DIIS error
 ---------------------------------------
    1    -784.9336500375      2.92e-06  
    2    -784.9336374813      1.28e-06  Done DIIS. Switching to GDM
 ---------------------------------------
  Cycle       Energy        RMS Gradient
 ---------------------------------------
    1    -784.9336374813      1.71e-05   Normal BFGS step
    2    -784.9336374865      2.80e-05   Normal BFGS step
    3    -784.9336374914      3.12e-06   Normal BFGS step
    4    -784.9336374917      8.55e-07   Normal BFGS step
    5    -784.9336374917      4.17e-07   Normal BFGS step
    6    -784.9336374917      2.31e-07   Normal BFGS step
    7    -784.9336374917      7.22e-08   Normal BFGS step
    8    -784.9336374917      3.40e-08   Normal BFGS step
    9    -784.9336374917      6.48e-09  Convergence criterion met
 ---------------------------------------
 SCF time:   CPU 390.05s  wall 24.00s 
(0)  E-EN(g) gas-phase elect-nuc energy                    0.000000000 a.u.
(3)  G-ENP(liq) elect-nuc-pol free energy of system     -784.933637492 a.u.
(4)  G-CDS(liq) cavity-dispersion-solvent structure 
     free energy                                               -0.3980 kcal/mol
(6)  G-S(liq) free energy of system                     -784.934271795 a.u.
(9)  DeltaG-S(liq) free energy of  solvation
     (9) = (6) - (0)                                      -492553.6897 kcal/mol
 SCF   energy in the final basis set =     -784.9336374917
 Total energy in the final basis set =     -784.9342717953
 
 --------------------------------------------------------------
 
                    Orbital Energies (a.u.)
 --------------------------------------------------------------
 
 Alpha MOs
 -- Occupied --
-89.382 -19.389 -19.389 -19.346 -19.346 -10.399 -10.399  -8.366
 -6.318  -6.317  -6.315  -2.163  -1.354  -1.228  -1.208  -1.177
 -0.927  -0.815  -0.779  -0.678  -0.672  -0.637  -0.623  -0.593
 -0.571  -0.540  -0.523  -0.510  -0.490  -0.487  -0.486  -0.441
 -0.428
 -- Virtual --
  0.008   0.017   0.017   0.019   0.042   0.062   0.066   0.068
  0.070   0.085   0.089   0.089   0.093   0.115   0.121   0.133
  0.135   0.135   0.140   0.149   0.171   0.175   0.179   0.195
  0.203   0.204   0.212   0.216   0.216   0.220   0.239   0.248
  0.266   0.272   0.277   0.277   0.293   0.306   0.320   0.342
  0.346   0.351   0.354   0.364   0.383   0.393   0.404   0.405
  0.415   0.422   0.427   0.444   0.471   0.501   0.568   0.581
  0.609   0.644   0.665   0.674   0.684   0.733   0.743   0.766
  0.769   0.782   0.829   0.849   0.865   0.902   1.015   1.017
  1.063   1.103   1.113   1.131   1.143   1.176   1.180   1.239
  1.247   1.250   1.307   1.321   1.331   1.378   1.381   1.405
  1.409   1.426   1.447   1.490   1.492   1.521   1.585   1.642
  1.655   1.667   1.694   1.756   1.797   1.838   1.847   1.862
  1.904   1.914   1.958   1.983   1.994   1.996   2.034   2.061
  2.090   2.109   2.176   2.194   2.213   2.267   2.279   2.346
  2.393   2.410   2.510   2.601   2.641   2.647   2.667   2.740
  2.756   2.809   2.835   2.916   2.935   2.941   2.972   3.116
  3.375   3.395   3.533   3.593   4.063   4.211   4.295   4.309
  4.377   4.529   4.756
 --------------------------------------------------------------
 
          Ground-State Mulliken Net Atomic Charges

     Atom                 Charge (a.u.)
  ----------------------------------------
      1 Li                    0.768441
      2 C                    -0.155202
      3 O                    -0.530939
      4 C                    -0.148143
      5 S                     1.796834
      6 O                    -0.534034
      7 O                    -0.592262
      8 O                    -0.591090
      9 H                     0.255343
     10 H                     0.238286
     11 H                     0.238147
     12 H                     0.254619
  ----------------------------------------
  Sum of atomic charges =     1.000000

 -----------------------------------------------------------------
                    Cartesian Multipole Moments
 -----------------------------------------------------------------
    Charge (ESU x 10^10)
                 4.8032
    Dipole Moment (Debye)
         X       3.4727      Y       0.0305      Z      -0.1222
       Tot       3.4750
    Quadrupole Moments (Debye-Ang)
        XX       6.4311     XY       0.0669     YY     -46.1886
        XZ      -0.3394     YZ       0.3447     ZZ     -50.3805
    Octopole Moments (Debye-Ang^2)
       XXX     111.6805    XXY       0.3080    XYY      -2.2870
       YYY       0.3425    XXZ      -1.4530    XYZ       2.9033
       YYZ      -0.3441    XZZ      -6.6857    YZZ       0.0090
       ZZZ      -0.9203
    Hexadecapole Moments (Debye-Ang^3)
      XXXX       3.5926   XXXY       0.6582   XXYY     -97.4333
      XYYY      -0.2069   YYYY    -189.1946   XXXZ      -4.2935
      XXYZ       8.2984   XYYZ      -0.0679   YYYZ      -0.0884
      XXZZ    -110.6195   XYZZ       0.0673   YYZZ     -55.4437
      XZZZ      -0.3595   YZZZ       0.8816   ZZZZ    -161.3122
 -----------------------------------------------------------------
 Calculating analytic gradient of the SCF energy
 Gradient of CDS energy
            1           2           3           4           5           6
    1   0.0000599  -0.0004626   0.0001883  -0.0004327  -0.0000190   0.0001877
    2   0.0000001   0.0010642  -0.0001535  -0.0010743   0.0000114   0.0001569
    3  -0.0000011  -0.0000527  -0.0000853   0.0000836  -0.0000200   0.0000813
            7           8           9          10          11          12
    1  -0.0001297  -0.0001319   0.0001855   0.0002095   0.0001584   0.0001867
    2  -0.0000256   0.0000248  -0.0001068  -0.0001277   0.0001301   0.0001004
    3   0.0000943  -0.0000913   0.0000365   0.0000537  -0.0000727  -0.0000263
 Gradient of SCF Energy
            1           2           3           4           5           6
    1   0.0060949   0.0428969  -0.0265174   0.0440277  -0.0054305  -0.0260875
    2  -0.0000643  -0.0307044   0.0238444   0.0283521  -0.0002333  -0.0239905
    3  -0.0000426   0.0195563   0.0051546  -0.0158390   0.0003687  -0.0054630
            7           8           9          10          11          12
    1   0.0195298   0.0204995  -0.0311063  -0.0061407  -0.0073090  -0.0304574
    2   0.0143888  -0.0139424   0.0170988   0.0137934  -0.0116098  -0.0169329
    3  -0.0415304   0.0411692   0.0301053  -0.0408133   0.0382283  -0.0308940
 Max gradient component =       4.403E-02
 RMS gradient           =       2.433E-02
 Computing VTN gradient.
 Updating gradient with PCM contributions...
 -- total gradient after adding PCM contribution --
---------------------------------------------------
  Atom         X              Y              Z     
---------------------------------------------------
   1      -0.000024      -0.000025       0.000023
   2       0.000026       0.000089       0.000009
   3      -0.000006      -0.000032       0.000056
   4      -0.000048      -0.000111       0.000035
   5      -0.000001       0.000016      -0.000044
   6      -0.000074      -0.000006      -0.000016
   7      -0.000035       0.000109      -0.000000
   8       0.000061      -0.000001      -0.000074
   9       0.000000      -0.000033       0.000091
  10       0.000012      -0.000053       0.000150
  11       0.000101       0.000026      -0.000169
  12      -0.000012       0.000021      -0.000060
---------------------------------------------------
 Number of fixed atoms: 0
 Gradient time:  CPU 77.16 s  wall 8.08 s
 ----------------------------------------------------------------
             Standard Nuclear Orientation (Angstroms)
    I     Atom           X                Y                Z
 ----------------------------------------------------------------
    1      Li      3.1328406343     0.0062113080    -0.0225813069
    2      C      -1.8562890322     0.7572801942    -0.0135717931
    3      O      -0.5079498569     1.1006251026     0.4606464363
    4      C      -1.8612232434    -0.7598338176     0.0116065433
    5      S       0.5233407854    -0.0018740656     0.0095052188
    6      O      -0.5036922022    -1.1155709281    -0.4250159658
    7      O       1.3370243822     0.3957457492    -1.1358196058
    8      O       1.3598976765    -0.3909682393     1.1403522198
    9      H      -2.5511289423     1.1993877848     0.6957232697
   10      H      -1.9790928090     1.1707046438    -1.0140495017
   11      H      -2.0138253903    -1.1633958442     1.0075897736
   12      H      -2.5414744633    -1.1982056261    -0.7140561772
 ----------------------------------------------------------------
 Nuclear Repulsion Energy =   484.2240241860 hartrees
 There are       33 alpha and       33 beta electrons
 Discretize the solute cavity surface with Lebedev spheres
	Using 302 Lebedev grid points for each H atom
	Using 302 Lebedev grid points for other atoms
	Atomic van der Waals radii will be scaled by 1.20
 Removing interior tesserae...
 Keep 1149 surface tesserae and discard 2475 interior tesserae
 Molecular Surface Area = 164.569 Angst**2

                       Distance Matrix (Angstroms)
             Li(  1)   C (  2)   O (  3)   C (  4)   S (  5)   O (  6)
   C (  2)  5.045354
   O (  3)  3.832311  1.469962
   C (  4)  5.052590  1.517331  2.343991
   S (  5)  2.609710  2.497896  1.575625  2.502130
   O (  6)  3.826842  2.346567  2.386617  1.469721  1.576048
   O (  7)  2.148486  3.404027  2.539584  3.588975  1.460120  2.485469
   O (  8)  2.157196  3.604701  2.485097  3.433038  1.459465  2.539369
   H (  9)  5.852106  1.086904  2.059028  2.186901  3.371393  3.287413
   H ( 10)  5.335815  1.089475  2.084203  2.189256  2.946995  2.784030
   H ( 11)  5.377491  2.180960  2.773553  1.085418  2.963531  2.082102
   H ( 12)  5.841798  2.187254  3.286301  1.086967  3.368656  2.059837
             O (  7)   O (  8)   H (  9)   H ( 10)   H ( 11)
   O (  8)  2.408402
   H (  9)  4.372428  4.245357
   H ( 10)  3.407642  4.269558  1.803156
   H ( 11)  4.272390  3.463564  2.443093  3.088083
   H ( 12)  4.214418  4.394447  2.781371  2.453162  1.801025
 
 Requested basis set is 6-31++G(d,p)
 There are 57 shells and 180 basis functions
 A cutoff of  1.0D-12 yielded   1574 shell pairs
 There are     16206 function pairs
 Smallest overlap matrix eigenvalue = 1.31E-04

 -----------------------------------------------------------------------
  General SCF calculation program by
  Eric Jon Sundstrom, Paul Horn, Yuezhi Mao, Dmitri Zuev, Alec White,
  David Stuck, Shaama M.S., Shane Yost, Joonho Lee, David Small,
  Daniel Levine, Susi Lehtola, Hugh Burton, Evgeny Epifanovsky
 -----------------------------------------------------------------------
 Exchange:     0.2220 Hartree-Fock + 1.0000 wB97X-D + LR-HF
 Correlation:  1.0000 wB97X-D
 Using SG-3 standard quadrature grid
 Dispersion:   Grimme D
 using 32 threads for integral computing
 -------------------------------------------------------
 OpenMP Integral computing Module                
 Release: version 1.0, May 2013, Q-Chem Inc. Pittsburgh 
 -------------------------------------------------------
 using 32 threads for integral computing
 -------------------------------------------------------
 OpenMP Integral computing Module                
 Release: version 1.0, May 2013, Q-Chem Inc. Pittsburgh 
 -------------------------------------------------------
 -------------------------------------------------------
 OpenMP BLAS3 based DFT computing Module                
 Release: version 1.0, May 2013, Q-Chem Inc. Pittsburgh 
 -------------------------------------------------------
 A restricted SCF calculation will be
 performed using DIIS, GDM
 SCF converges when RMS gradient is below 1.0e-08
 ---------------------------------------
  Cycle       Energy         DIIS error
 ---------------------------------------
    1    -784.9336381402      2.10e-06  
    2    -784.9336504751      1.28e-06  Done DIIS. Switching to GDM
 ---------------------------------------
  Cycle       Energy        RMS Gradient
 ---------------------------------------
    1    -784.9336504751      3.15e-05   Normal BFGS step
    2    -784.9336504793      2.82e-05   Normal BFGS step
    3    -784.9336504856      2.23e-06   Normal BFGS step
    4    -784.9336504858      8.99e-07   Normal BFGS step
    5    -784.9336504858      3.33e-07   Normal BFGS step
    6    -784.9336504858      1.70e-07   Normal BFGS step
    7    -784.9336504858      5.12e-08   Normal BFGS step
    8    -784.9336504858      2.97e-08   Normal BFGS step
    9    -784.9336504858      5.42e-09  Convergence criterion met
 ---------------------------------------
 SCF time:   CPU 390.26s  wall 17.00s 
(0)  E-EN(g) gas-phase elect-nuc energy                    0.000000000 a.u.
(3)  G-ENP(liq) elect-nuc-pol free energy of system     -784.933650486 a.u.
(4)  G-CDS(liq) cavity-dispersion-solvent structure 
     free energy                                               -0.3980 kcal/mol
(6)  G-S(liq) free energy of system                     -784.934284789 a.u.
(9)  DeltaG-S(liq) free energy of  solvation
     (9) = (6) - (0)                                      -492553.6978 kcal/mol
 SCF   energy in the final basis set =     -784.9336504858
 Total energy in the final basis set =     -784.9342847895
 
 --------------------------------------------------------------
 
                    Orbital Energies (a.u.)
 --------------------------------------------------------------
 
 Alpha MOs
 -- Occupied --
-89.382 -19.389 -19.389 -19.346 -19.346 -10.399 -10.399  -8.366
 -6.318  -6.317  -6.315  -2.163  -1.354  -1.228  -1.208  -1.177
 -0.927  -0.815  -0.779  -0.678  -0.671  -0.637  -0.623  -0.593
 -0.571  -0.540  -0.523  -0.510  -0.490  -0.487  -0.486  -0.440
 -0.428
 -- Virtual --
  0.008   0.017   0.017   0.019   0.042   0.062   0.066   0.068
  0.070   0.085   0.089   0.089   0.093   0.115   0.121   0.133
  0.135   0.135   0.140   0.149   0.171   0.175   0.179   0.195
  0.203   0.204   0.212   0.216   0.216   0.220   0.239   0.248
  0.266   0.272   0.277   0.277   0.293   0.306   0.320   0.342
  0.346   0.351   0.354   0.364   0.383   0.393   0.404   0.405
  0.415   0.422   0.427   0.444   0.471   0.501   0.568   0.581
  0.609   0.644   0.665   0.674   0.684   0.733   0.743   0.766
  0.769   0.782   0.829   0.849   0.865   0.902   1.015   1.017
  1.063   1.103   1.113   1.131   1.143   1.176   1.180   1.239
  1.247   1.250   1.307   1.321   1.331   1.378   1.381   1.405
  1.409   1.426   1.447   1.490   1.492   1.521   1.585   1.642
  1.655   1.667   1.694   1.756   1.797   1.839   1.847   1.862
  1.904   1.914   1.958   1.983   1.994   1.996   2.034   2.061
  2.090   2.109   2.176   2.194   2.213   2.267   2.279   2.346
  2.393   2.410   2.510   2.601   2.641   2.647   2.667   2.740
  2.756   2.809   2.835   2.916   2.935   2.941   2.972   3.116
  3.375   3.395   3.533   3.593   4.063   4.211   4.295   4.309
  4.377   4.529   4.756
 --------------------------------------------------------------
 
          Ground-State Mulliken Net Atomic Charges

     Atom                 Charge (a.u.)
  ----------------------------------------
      1 Li                    0.768471
      2 C                    -0.155253
      3 O                    -0.530944
      4 C                    -0.148082
      5 S                     1.796871
      6 O                    -0.534085
      7 O                    -0.592327
      8 O                    -0.591014
      9 H                     0.255334
     10 H                     0.238278
     11 H                     0.238138
     12 H                     0.254612
  ----------------------------------------
  Sum of atomic charges =     1.000000

 -----------------------------------------------------------------
                    Cartesian Multipole Moments
 -----------------------------------------------------------------
    Charge (ESU x 10^10)
                 4.8032
    Dipole Moment (Debye)
         X       3.4737      Y       0.0340      Z      -0.1180
       Tot       3.4759
    Quadrupole Moments (Debye-Ang)
        XX       6.4316     XY       0.0800     YY     -46.1886
        XZ      -0.3254     YZ       0.3444     ZZ     -50.3815
    Octopole Moments (Debye-Ang^2)
       XXX     111.6863    XXY       0.3508    XYY      -2.2851
       YYY       0.3388    XXZ      -1.4083    XYZ       2.9028
       YYZ      -0.3442    XZZ      -6.6863    YZZ       0.0075
       ZZZ      -0.9231
    Hexadecapole Moments (Debye-Ang^3)
      XXXX       3.5940   XXXY       0.7935   XXYY     -97.4325
      XYYY      -0.2147   YYYY    -189.1954   XXXZ      -4.1535
      XXYZ       8.2968   XYYZ      -0.0687   YYYZ      -0.0889
      XXZZ    -110.6229   XYZZ       0.0644   YYZZ     -55.4444
      XZZZ      -0.3661   YZZZ       0.8816   ZZZZ    -161.3158
 -----------------------------------------------------------------
 Calculating analytic gradient of the SCF energy
 Gradient of CDS energy
            1           2           3           4           5           6
    1   0.0000599  -0.0004626   0.0001883  -0.0004327  -0.0000190   0.0001877
    2   0.0000001   0.0010642  -0.0001535  -0.0010743   0.0000114   0.0001569
    3  -0.0000011  -0.0000527  -0.0000853   0.0000836  -0.0000200   0.0000813
            7           8           9          10          11          12
    1  -0.0001297  -0.0001319   0.0001855   0.0002095   0.0001584   0.0001867
    2  -0.0000256   0.0000248  -0.0001068  -0.0001277   0.0001301   0.0001004
    3   0.0000943  -0.0000913   0.0000365   0.0000537  -0.0000727  -0.0000263
 Gradient of SCF Energy
            1           2           3           4           5           6
    1   0.0060941   0.0428936  -0.0265070   0.0440227  -0.0054645  -0.0260926
    2  -0.0000456  -0.0307051   0.0238451   0.0283518  -0.0002280  -0.0239890
    3  -0.0000359   0.0195536   0.0051528  -0.0158377   0.0003769  -0.0054668
            7           8           9          10          11          12
    1   0.0195384   0.0205223  -0.0311044  -0.0061397  -0.0073078  -0.0304552
    2   0.0143870  -0.0139665   0.0170982   0.0137935  -0.0116094  -0.0169321
    3  -0.0415550   0.0411826   0.0301052  -0.0408109   0.0382277  -0.0308927
 Max gradient component =       4.402E-02
 RMS gradient           =       2.433E-02
 Computing VTN gradient.
 Updating gradient with PCM contributions...
 -- total gradient after adding PCM contribution --
---------------------------------------------------
  Atom         X              Y              Z     
---------------------------------------------------
   1      -0.000030       0.000064       0.000042
   2       0.000023       0.000087       0.000008
   3       0.000006      -0.000035       0.000055
   4      -0.000051      -0.000110       0.000037
   5      -0.000037       0.000041      -0.000035
   6      -0.000068      -0.000005      -0.000018
   7      -0.000029       0.000099      -0.000006
   8       0.000082      -0.000103      -0.000093
   9       0.000001      -0.000033       0.000091
  10       0.000012      -0.000053       0.000150
  11       0.000101       0.000026      -0.000170
  12      -0.000012       0.000021      -0.000060
---------------------------------------------------
 Number of fixed atoms: 0
 Gradient time:  CPU 76.97 s  wall 3.45 s
 ----------------------------------------------------------------
             Standard Nuclear Orientation (Angstroms)
    I     Atom           X                Y                Z
 ----------------------------------------------------------------
    1      Li      3.1328406343     0.0062113080    -0.0245813069
    2      C      -1.8562890322     0.7572801942    -0.0135717931
    3      O      -0.5079498569     1.1006251026     0.4606464363
    4      C      -1.8612232434    -0.7598338176     0.0116065433
    5      S       0.5233407854    -0.0018740656     0.0095052188
    6      O      -0.5036922022    -1.1155709281    -0.4250159658
[...]
     6    1.139148734048999e-02   5.854467770508702e-03   9.558429301442298e-03
     7    6.308885331471790e-04   7.077074317196635e-04  -4.208855635833119e-04
     8    1.023314604041828e-03   5.794728259437314e-04   1.035622041249406e-03
     9   -8.707949793267298e-05   4.432148627535580e-05   1.884971780563304e-04
    10    3.089787593432577e-04  -1.881047731916009e-04   5.543297447684558e-04
    11   -1.671578954094484e-02  -1.057280840198901e-02  -1.308874713169956e-02
    12    1.272148044313286e-01   8.623303302825239e-02   1.914916921045610e-01




 # Finishing finite difference calculation for IDERIV #
 ######################################################
 ######################################################
 Requested basis set is 6-31++G(d,p)
 There are 57 shells and 180 basis functions
 **********************************************************************
 **                                                                  **
 **                       VIBRATIONAL ANALYSIS                       **
 **                       --------------------                       **
 **                                                                  **
 **        VIBRATIONAL FREQUENCIES (CM**-1) AND NORMAL MODES         **
 **     FORCE CONSTANTS (mDYN/ANGSTROM) AND REDUCED MASSES (AMU)     **
 **                  INFRARED INTENSITIES (KM/MOL)                   **
 **                                                                  **
 **********************************************************************
 

 Mode:                 1                      2                      3
 Frequency:     -2455.37                 -57.52                 161.67
 Force Cnst:      3.8728                 0.0157                 0.0589
 Red. Mass:       1.0903                 8.0472                 3.8226
 IR Active:          YES                    YES                    YES
 IR Intens:       23.257                 77.678                 16.771
 Raman Active:       YES                    YES                    YES
               X      Y      Z        X      Y      Z        X      Y      Z
 Li         0.000  0.002  0.006   -0.012 -0.105  0.899    0.007  0.036  0.051
 C         -0.001 -0.002 -0.002    0.003 -0.001  0.098   -0.085 -0.038  0.248
 O          0.007  0.002  0.001    0.027 -0.021  0.033    0.022  0.068 -0.153
 C         -0.016 -0.029 -0.075   -0.006 -0.002  0.073    0.054 -0.052  0.055
 S         -0.000 -0.000  0.001   -0.001  0.018 -0.128    0.003  0.008 -0.045
 O          0.000  0.002 -0.014   -0.023 -0.021  0.035   -0.009  0.071 -0.158
 O          0.002  0.012  0.007   -0.108  0.017 -0.180    0.159 -0.122  0.017
 O         -0.002 -0.012 -0.002    0.115  0.038 -0.180   -0.140  0.033  0.068
 H         -0.001 -0.018  0.007    0.045 -0.013  0.146    0.098 -0.238  0.554
 H          0.003  0.024  0.007   -0.058  0.017  0.113   -0.490  0.083  0.356
 H          0.121  0.333  0.928    0.014 -0.007  0.067    0.158 -0.082  0.022
 H         -0.034 -0.056  0.010   -0.032  0.017  0.086   -0.024 -0.013  0.105
 TransDip   0.033  0.068  0.135   -0.019 -0.014  0.281   -0.005 -0.016  0.130

 Mode:                 4                      5                      6
 Frequency:       258.95                 314.43                 325.60
 Force Cnst:      0.2839                 0.4141                 0.1921
 Red. Mass:       7.1860                 7.1081                 3.0761
 IR Active:          YES                    YES                    YES
 IR Intens:       58.900                270.155                  4.220
 Raman Active:       YES                    YES                    YES
               X      Y      Z        X      Y      Z        X      Y      Z
 Li         0.088  0.739  0.061    0.968 -0.053  0.005    0.003  0.021 -0.021
 C          0.088  0.121  0.031   -0.077 -0.012 -0.007   -0.052  0.047  0.101
 O          0.092 -0.107  0.109   -0.088  0.005 -0.012    0.035  0.048 -0.141
 C         -0.113  0.107 -0.087   -0.057 -0.004  0.019   -0.086 -0.001 -0.214
 S          0.003 -0.146 -0.003   -0.013  0.014 -0.004    0.008 -0.021  0.017
 O         -0.114 -0.030 -0.078   -0.068  0.006  0.018    0.029 -0.104  0.197
 O         -0.031 -0.197 -0.049   -0.057  0.031 -0.018   -0.020  0.066  0.026
 O          0.029  0.086  0.044   -0.065 -0.030  0.009    0.069 -0.029 -0.027
 H          0.114  0.130  0.053   -0.087 -0.000 -0.023    0.097 -0.212  0.412
 H          0.176  0.262  0.073   -0.092 -0.047 -0.020   -0.325  0.358  0.266
 H         -0.151  0.121 -0.054   -0.060 -0.005  0.015   -0.285  0.008 -0.164
 H         -0.144  0.218 -0.124   -0.062 -0.021  0.032    0.074  0.119 -0.433
 TransDip   0.077  0.233  0.012    0.526 -0.014 -0.003   -0.064  0.014 -0.000

 Mode:                 7                      8                      9
 Frequency:       383.27                 451.17                 480.82
 Force Cnst:      0.6402                 1.3213                 1.6403
 Red. Mass:       7.3966                11.0171                12.0422
 IR Active:          YES                    YES                    YES
 IR Intens:        7.359                 58.367                 38.535
 Raman Active:       YES                    YES                    YES
               X      Y      Z        X      Y      Z        X      Y      Z
 Li         0.030 -0.340 -0.073   -0.019  0.026 -0.002    0.015 -0.356 -0.080
 C         -0.081 -0.018  0.048   -0.272 -0.029 -0.061    0.132  0.080  0.091
 O         -0.069 -0.056  0.215   -0.190 -0.140 -0.021    0.064 -0.273  0.027
 C         -0.024 -0.064 -0.277   -0.286  0.029  0.101   -0.121  0.078  0.051
 S          0.008  0.080  0.078    0.030 -0.002 -0.020    0.000 -0.161 -0.149
 O          0.049  0.095 -0.108   -0.199  0.128  0.037   -0.066 -0.226 -0.068
 O         -0.084 -0.279 -0.107    0.441 -0.030  0.216    0.099  0.349  0.086
 O          0.161  0.286  0.059    0.368  0.038 -0.218   -0.114  0.477  0.155
 H         -0.102 -0.273  0.189   -0.211  0.170 -0.124    0.211  0.120  0.148
 H         -0.021  0.359  0.191   -0.177 -0.148 -0.120    0.083  0.156  0.124
 H         -0.091 -0.006 -0.168   -0.236  0.020  0.078   -0.071  0.084  0.056
 H          0.084 -0.024 -0.399   -0.217 -0.096  0.109   -0.210  0.161  0.087
 TransDip  -0.045 -0.055 -0.050   -0.244  0.006 -0.008   -0.016 -0.171 -0.101

 Mode:                10                     11                     12
 Frequency:       518.70                 647.77                 666.51
 Force Cnst:      2.0679                 1.1716                 2.7296
 Red. Mass:      13.0451                 4.7391                10.4287
 IR Active:          YES                    YES                    YES
 IR Intens:       71.864                 13.010                 20.752
 Raman Active:       YES                    YES                    YES
               X      Y      Z        X      Y      Z        X      Y      Z
 Li         0.016 -0.086  0.088   -0.030  0.010  0.003   -0.095  0.003  0.005
 C         -0.023  0.001 -0.042   -0.197  0.189 -0.063   -0.061 -0.154 -0.001
 O          0.056  0.084 -0.374   -0.200 -0.185 -0.023    0.094 -0.242 -0.116
 C          0.047  0.037  0.077    0.173  0.232  0.046   -0.283 -0.096  0.002
 S         -0.004 -0.176  0.221    0.065 -0.062 -0.010    0.257  0.039  0.009
 O         -0.101  0.093 -0.369    0.151  0.019  0.030   -0.124  0.343  0.105
 O         -0.351  0.130  0.142   -0.038 -0.001 -0.066   -0.085  0.109 -0.262
 O          0.385  0.063  0.083   -0.009 -0.060  0.054   -0.084 -0.083  0.271
 H          0.105  0.073  0.039   -0.138 -0.098  0.191    0.178  0.239 -0.020
 H         -0.262 -0.201 -0.087   -0.386  0.457  0.067   -0.009 -0.306 -0.066
 H          0.217 -0.028 -0.030    0.286  0.266  0.049   -0.375 -0.111  0.015
 H         -0.137  0.019  0.259    0.191 -0.151  0.270   -0.033 -0.111 -0.231
 TransDip   0.000 -0.167  0.214    0.089  0.045 -0.059    0.143 -0.014  0.023

 Mode:                13                     14                     15
 Frequency:       802.53                 840.26                 917.34
 Force Cnst:      3.6172                 3.3491                 1.7815
 Red. Mass:       9.5322                 8.0511                 3.5932
 IR Active:          YES                    YES                    YES
 IR Intens:       14.732                305.690                106.447
 Raman Active:       YES                    YES                    YES
               X      Y      Z        X      Y      Z        X      Y      Z
 Li        -0.067 -0.002  0.005   -0.008  0.030  0.008    0.014  0.002  0.003
 C         -0.202  0.029 -0.001   -0.009  0.013 -0.048    0.008  0.136  0.119
 O         -0.121  0.377  0.168    0.085 -0.268 -0.110   -0.044 -0.044 -0.056
 C         -0.171  0.016  0.039    0.035  0.060  0.028   -0.237 -0.053  0.063
 S          0.198 -0.035 -0.013    0.020  0.302  0.111   -0.027  0.028  0.016
 O         -0.040 -0.341 -0.162   -0.153 -0.333 -0.122    0.284 -0.035 -0.081
 O          0.068  0.073 -0.201    0.004 -0.042 -0.023   -0.023 -0.042  0.009
 O          0.072 -0.069  0.201    0.014 -0.077  0.005   -0.006 -0.021 -0.024
 H         -0.460 -0.037 -0.194    0.328  0.096  0.225    0.147  0.776 -0.136
 H         -0.136 -0.136 -0.077    0.002  0.313  0.073    0.124 -0.286 -0.067
 H         -0.124 -0.013 -0.001    0.011  0.062 -0.001   -0.153 -0.076  0.060
 H         -0.336  0.143  0.104   -0.429  0.279  0.319   -0.001 -0.038 -0.160
 TransDip   0.114 -0.045  0.005    0.051  0.539  0.142   -0.291  0.079  0.135

 Mode:                16                     17                     18
 Frequency:       925.74                1028.96                1036.57
 Force Cnst:      1.9889                 1.8069                 1.1680
 Red. Mass:       3.9390                 2.8966                 1.8450
 IR Active:          YES                    YES                    YES
 IR Intens:      169.614                237.239                 90.690
 Raman Active:       YES                    YES                    YES
               X      Y      Z        X      Y      Z        X      Y      Z
 Li         0.018  0.002  0.004    0.012 -0.000 -0.002   -0.005 -0.003 -0.005
 C         -0.318  0.104 -0.108   -0.141 -0.204 -0.000   -0.104  0.038  0.138
 O          0.291  0.008  0.065    0.146 -0.023  0.010   -0.005 -0.027 -0.023
 C          0.006 -0.124  0.015   -0.059  0.220  0.015    0.165 -0.007 -0.073
 S         -0.032 -0.010 -0.006   -0.023 -0.001 -0.001    0.010 -0.004 -0.004
 O          0.011 -0.007 -0.006    0.131  0.004 -0.007   -0.078 -0.022  0.024
 O         -0.004  0.024  0.023   -0.021 -0.014  0.023    0.002 -0.003 -0.002
 O         -0.022  0.018 -0.005   -0.022  0.015 -0.023    0.003  0.013  0.005
 H         -0.052  0.330  0.015   -0.354 -0.362 -0.113   -0.227  0.530 -0.287
 H         -0.015  0.347 -0.053   -0.015 -0.328 -0.052    0.218 -0.480 -0.113
 H          0.088 -0.158 -0.065   -0.068  0.217  0.024    0.047  0.026  0.016
 H          0.187 -0.660  0.159   -0.232  0.597 -0.046    0.190  0.318 -0.286
 TransDip  -0.416  0.005 -0.034   -0.492  0.031 -0.026    0.254  0.122 -0.118

 Mode:                19                     20                     21
 Frequency:      1159.43                1201.97                1226.69
 Force Cnst:      0.9218                 7.0287                 1.2589
 Red. Mass:       1.1639                 8.2572                 1.4199
 IR Active:          YES                    YES                    YES
 IR Intens:       22.752                444.377                 23.387
 Raman Active:       YES                    YES                    YES
               X      Y      Z        X      Y      Z        X      Y      Z
 Li         0.001  0.000  0.003   -0.034 -0.009  0.001    0.002  0.001  0.001
 C         -0.003 -0.017  0.077   -0.011  0.010  0.054    0.020 -0.034  0.048
 O         -0.011 -0.003 -0.060   -0.031  0.032  0.003    0.004  0.005  0.015
 C         -0.018  0.004 -0.014   -0.052  0.011 -0.086   -0.011  0.072 -0.139
 S         -0.012  0.000  0.001    0.294  0.006 -0.011   -0.031 -0.001  0.002
 O          0.009  0.009  0.005   -0.033 -0.026  0.005    0.006  0.002  0.034
 O          0.013  0.009 -0.019   -0.220 -0.103  0.309    0.023  0.010 -0.031
 O          0.012 -0.011  0.018   -0.214  0.100 -0.284    0.023 -0.010  0.030
 H         -0.393 -0.127 -0.227   -0.211  0.022 -0.138    0.167  0.206  0.034
 H          0.695  0.406  0.149    0.034 -0.060  0.016   -0.151 -0.378 -0.059
 H          0.077 -0.010 -0.052    0.118 -0.006 -0.138    0.327  0.061 -0.196
 H         -0.130 -0.177  0.196   -0.384 -0.393  0.447   -0.368 -0.441  0.495
 TransDip  -0.102 -0.037  0.108    0.675 -0.015 -0.021   -0.128 -0.058 -0.064

 Mode:                22                     23                     24
 Frequency:      1265.72                1291.59                1327.03
 Force Cnst:      1.2499                19.4797                 1.5064
 Red. Mass:       1.3242                19.8190                 1.4519
 IR Active:          YES                    YES                    YES
 IR Intens:        6.973                438.037                  7.596
 Raman Active:       YES                    YES                    YES
               X      Y      Z        X      Y      Z        X      Y      Z
 Li        -0.000  0.002 -0.001   -0.000 -0.033  0.046   -0.000 -0.001 -0.000
 C          0.024 -0.055  0.040   -0.016 -0.026  0.003   -0.055 -0.163 -0.026
 O          0.004  0.003 -0.004   -0.009  0.009 -0.023   -0.043  0.045  0.011
 C         -0.029  0.128  0.016    0.010  0.020  0.001    0.026  0.046  0.002
 S          0.001  0.016  0.002    0.021 -0.167  0.490    0.008 -0.015 -0.012
 O         -0.032 -0.040 -0.035   -0.005 -0.002 -0.032    0.006 -0.001  0.001
 O         -0.004 -0.005  0.005    0.287  0.163 -0.462   -0.009 -0.001  0.015
 O          0.000 -0.003 -0.002   -0.321  0.176 -0.490   -0.003  0.004 -0.002
 H         -0.009 -0.066  0.008    0.102  0.085  0.050    0.586  0.568  0.136
 H          0.062 -0.149  0.008    0.043  0.018  0.015    0.261  0.410  0.153
 H         -0.206  0.135  0.020   -0.040  0.021  0.002    0.003  0.054  0.009
 H          0.686 -0.612 -0.191    0.054 -0.032 -0.004    0.020  0.117 -0.028
 TransDip   0.076  0.010  0.036    0.029 -0.217  0.634    0.068  0.014 -0.054

 Mode:                25                     26                     27
 Frequency:      1485.69                1634.61                3109.76
 Force Cnst:      1.4177                 1.7341                 6.0696
 Red. Mass:       1.0901                 1.1016                 1.0653
 IR Active:          YES                    YES                    YES
 IR Intens:       13.760                  3.023                  7.734
 Raman Active:       YES                    YES                    YES
               X      Y      Z        X      Y      Z        X      Y      Z
 Li         0.000 -0.000  0.000    0.000 -0.001  0.003    0.000  0.000 -0.000
 C         -0.059  0.056 -0.017    0.003 -0.003 -0.011   -0.031  0.043 -0.049
 O         -0.016  0.007 -0.003    0.002 -0.000 -0.002   -0.001 -0.000  0.000
 C         -0.001 -0.005 -0.001   -0.083  0.007  0.017    0.002 -0.001  0.002
 S          0.005 -0.003 -0.003    0.005  0.005  0.004    0.000 -0.000 -0.000
 O          0.004  0.001  0.001   -0.019 -0.013  0.012    0.000 -0.000  0.000
 O         -0.003 -0.001  0.004   -0.002 -0.003  0.002   -0.000 -0.000  0.000
 O         -0.002  0.001 -0.002   -0.004  0.000 -0.002   -0.000  0.000 -0.000
 H          0.294 -0.308  0.545   -0.004 -0.036  0.004    0.254 -0.157 -0.269
 H          0.577 -0.341 -0.252    0.018  0.030  0.001    0.113 -0.326  0.845
 H         -0.006 -0.004  0.001    0.914 -0.042 -0.083    0.001  0.000  0.002
 H         -0.027  0.024  0.002    0.206  0.097 -0.305   -0.020 -0.008 -0.018
 TransDip   0.055 -0.103  0.023    0.008  0.050 -0.023   -0.057  0.038 -0.057

 Mode:                28                     29                     30
 Frequency:      3199.93                3222.62                5108.45
 Force Cnst:      6.5310                 6.7782                16.8563
 Red. Mass:       1.0826                 1.1078                 1.0963
 IR Active:          YES                    YES                    YES
 IR Intens:        1.816                  0.943                 37.187
 Raman Active:       YES                    YES                    YES
               X      Y      Z        X      Y      Z        X      Y      Z
 Li         0.000 -0.000 -0.000    0.000  0.000 -0.000    0.000  0.002  0.000
 C         -0.005  0.004  0.004    0.046 -0.021 -0.081   -0.000 -0.001  0.008
 O          0.000  0.000  0.000    0.000  0.000  0.000    0.002 -0.001  0.006
 C         -0.052 -0.033 -0.054   -0.004 -0.003 -0.004   -0.004 -0.083  0.025
 S          0.001  0.000  0.000   -0.000  0.000 -0.000    0.000 -0.000  0.000
 O         -0.001 -0.000  0.001   -0.001  0.000  0.000    0.001  0.003 -0.009
 O         -0.000 -0.000 -0.000   -0.000  0.000  0.000   -0.000  0.009  0.003
 O         -0.000  0.000  0.000    0.000  0.000 -0.000    0.000 -0.008 -0.003
 H          0.050 -0.034 -0.053   -0.578  0.377  0.601   -0.002 -0.006  0.008
 H          0.000  0.001 -0.005    0.049 -0.142  0.353   -0.002  0.003  0.008
 H         -0.001 -0.029 -0.024   -0.001 -0.001 -0.001    0.007  0.932 -0.349
 H          0.612  0.401  0.670    0.048  0.031  0.052    0.005  0.013 -0.012
 TransDip  -0.011 -0.001  0.042   -0.016  0.018  0.019   -0.016  0.013  0.194

 STANDARD THERMODYNAMIC QUANTITIES AT   298.15 K  AND     1.00 ATM

   This Molecule has  2 Imaginary Frequencies
   Zero point vibrational energy:       50.026 kcal/mol

   Atom    1 Element Li Has Mass    7.01600
   Atom    2 Element C  Has Mass   12.00000
   Atom    3 Element O  Has Mass   15.99491
   Atom    4 Element C  Has Mass   12.00000
   Atom    5 Element S  Has Mass   31.97207
   Atom    6 Element O  Has Mass   15.99491
   Atom    7 Element O  Has Mass   15.99491
   Atom    8 Element O  Has Mass   15.99491
   Atom    9 Element H  Has Mass    1.00783
   Atom   10 Element H  Has Mass    1.00783
   Atom   11 Element H  Has Mass    1.00783
   Atom   12 Element H  Has Mass    1.00783
   Molecular Mass:   130.999030 amu
   Principal axes and moments of inertia in amu*Bohr^2:
                             1           2           3
    Eigenvalues --      408.77528  1063.05312  1109.23244
          X               1.00000    -0.00128     0.00091
          Y               0.00131     0.99934    -0.03624
          Z              -0.00086     0.03624     0.99934
   Rotational Symmetry Number is   1
   The Molecule is an Asymmetric Top
   Translational Enthalpy:        0.889 kcal/mol
   Rotational Enthalpy:           0.889 kcal/mol
   Vibrational Enthalpy:         52.281 kcal/mol
   gas constant (RT):             0.592 kcal/mol
   Translational Entropy:        40.523  cal/mol.K
   Rotational Entropy:           27.668  cal/mol.K
   Vibrational Entropy:          11.714  cal/mol.K

   Total Enthalpy:               54.651 kcal/mol
   Total Entropy:                79.905  cal/mol.K
Archival summary:
1\1\nid01014\FREQ\ProcedureUnspecified\BasisUnspecified\142i14(1+,1)\sblau\FriDec2812:57:032018FriDec2812:57:032018\0\\#,FREQ,ProcedureUnspecified,BasisUnspecified,\\1,1\S\O,1,1.45946\O,1,1.46012,2,111.159\O,1,1.57562,2,109.869,3,-126.482,0\C,4,1.46996,1,110.155,2,-132.491,0\H,5,1.0869,4,106.311,1,151.678,0\H,5,1.08948,4,108.12,1,-88.0218,0\C,5,1.51733,4,103.366,1,32.2543,0\H,8,1.08542,5,112.795,4,79.0884,0\H,8,1.08697,5,113.216,4,-152.415,0\O,8,1.46972,5,103.537,4,-37.6431,0\Li,3,2.14797,1,90.5931,2,0.224876,0\\\@

 Total job time:  1570.43s(wall), 38976.62s(cpu) 
 Fri Dec 28 12:57:03 2018

        *************************************************************
        *                                                           *
        *  Thank you very much for using Q-Chem.  Have a nice day.  *
        *                                                           *
        *************************************************************


