
Running Job 1 of 1 mol.qin
qchem mol.qin_21840.0 /tmp/chain_scratch/ 1
/global/common/cori/software/qchem/5.1/exe/qcprog.exe mol.qin_21840.0 /tmp/chain_scratch/
Check license passed

                  Welcome to Q-Chem
     A Quantum Leap Into The Future Of Chemistry


 Q-Chem 5.1, Q-Chem, Inc., Pleasanton, CA (2018)

 Yihan Shao,  Zhengting Gan,  E. Epifanovsky,  A. T. B. Gilbert,  M. Wormit,  
 J. Kussmann,  A. W. Lange,  A. Behn,  Jia Deng,  Xintian Feng,  D. Ghosh,  
 M. Goldey,  P. R. Horn,  L. D. Jacobson,  I. Kaliman,  T. Kus,  A. Landau,  
 Jie Liu,  E. I. Proynov,  R. M. Richard,  R. P. Steele,  E. J. Sundstrom,  
 H. L. Woodcock III,  P. M. Zimmerman,  D. Zuev,  B. Albrecht,  E. Alguire,  
 S. A. Baeppler,  D. Barton,  Z. Benda,  Y. A. Bernard,  E. J. Berquist,  
 K. B. Bravaya,  H. Burton,  D. Casanova,  Chun-Min Chang,  Yunqing Chen,  
 A. Chien,  K. D. Closser,  M. P. Coons,  S. Coriani,  S. Dasgupta,  
 A. L. Dempwolff,  M. Diedenhofen,  Hainam Do,  R. G. Edgar,  Po-Tung Fang,  
 S. Faraji,  S. Fatehi,  Qingguo Feng,  K. D. Fenk,  J. Fosso-Tande,  
 Qinghui Ge,  A. Ghysels,  G. Gidofalvi,  J. Gomes,  J. Gonthier,  A. Gunina,  
 D. Hait,  M. W. D. Hanson-Heine,  P. H. P. Harbach,  A. W. Hauser,  
 J. E. Herr,  E. G. Hohenstein,  Z. C. Holden,  Kerwin Hui,  B. C. Huynh,  
 T.-C. Jagau,  Hyunjun Ji,  B. Kaduk,  K. Khistyaev,  Jaehoon Kim,  
 P. Klunzinger,  K. Koh,  D. Kosenkov,  L. Koulias,  T. Kowalczyk,  
 C. M. Krauter,  A. Kunitsa,  Ka Un Lao,  A. Laurent,  K. V. Lawler,  
 Joonho Lee,  D. Lefrancois,  S. Lehtola,  D. S. Levine,  Yi-Pei Li,  
 You-Sheng Lin,  Fenglai Liu,  E. Livshits,  A. Luenser,  P. Manohar,  
 E. Mansoor,  S. F. Manzer,  Shan-Ping Mao,  Yuezhi Mao,  N. Mardirossian,  
 A. V. Marenich,  T. Markovich,  L. A. Martinez-Martinez,  S. A. Maurer,  
 N. J. Mayhall,  S. C. McKenzie,  J.-M. Mewes,  A. F. Morrison,  
 J. W. Mullinax,  K. Nanda,  T. S. Nguyen-Beck,  R. Olivares-Amaya,  
 J. A. Parkhill,  T. M. Perrine,  F. Plasser,  P. Pokhilko,  S. Prager,  
 A. Prociuk,  E. Ramos,  D. R. Rehn,  F. Rob,  M. Schneider,  N. Sergueev,  
 S. M. Sharada,  S. Sharma,  D. W. Small,  T. Stauch,  T. Stein,  
 Yu-Chuan Su,  A. J. W. Thom,  A. Tkatchenko,  T. Tsuchimochi,  N. M. Tubman,  
 L. Vogt,  M. L. Vidal,  O. Vydrov,  M. A. Watson,  J. Wenzel,  
 M. de Wergifosse,  T. A. Wesolowski,  A. White,  J. Witte,  A. Yamada,  
 Jun Yang,  K. Yao,  S. Yeganeh,  S. R. Yost,  Zhi-Qiang You,  A. Zech,  
 Igor Ying Zhang,  Xing Zhang,  Yan Zhao,  Ying Zhu,  B. R. Brooks,  
 G. K. L. Chan,  C. J. Cramer,  M. S. Gordon,  W. J. Hehre,  A. Klamt,  
 M. W. Schmidt,  C. D. Sherrill,  D. G. Truhlar,  A. Aspuru-Guzik,  R. Baer,  
 A. T. Bell,  N. A. Besley,  Jeng-Da Chai,  R. A. DiStasio Jr.,  A. Dreuw,  
 B. D. Dunietz,  T. R. Furlani,  Chao-Ping Hsu,  Yousung Jung,  Jing Kong,  
 D. S. Lambrecht,  WanZhen Liang,  C. Ochsenfeld,  V. A. Rassolov,  
 L. V. Slipchenko,  J. E. Subotnik,  T. Van Voorhis,  J. M. Herbert,  
 A. I. Krylov,  P. M. W. Gill,  M. Head-Gordon

 Contributors to earlier versions of Q-Chem not listed above: 
 R. D. Adamson,  B. Austin,  J. Baker,  G. J. O. Beran,  K. Brandhorst,  
 S. T. Brown,  E. F. C. Byrd,  A. K. Chakraborty,  C.-L. Cheng,  
 Siu Hung Chien,  D. M. Chipman,  D. L. Crittenden,  H. Dachsel,  
 R. J. Doerksen,  A. D. Dutoi,  L. Fusti-Molnar,  W. A. Goddard III,  
 A. Golubeva-Zadorozhnaya,  S. R. Gwaltney,  G. Hawkins,  A. Heyden,  
 S. Hirata,  G. Kedziora,  F. J. Keil,  C. Kelley,  Jihan Kim,  R. A. King,  
 R. Z. Khaliullin,  P. P. Korambath,  W. Kurlancheek,  A. M. Lee,  M. S. Lee,  
 S. V. Levchenko,  Ching Yeh Lin,  D. Liotard,  R. C. Lochan,  I. Lotan,  
 P. E. Maslen,  N. Nair,  D. P. O'Neill,  D. Neuhauser,  E. Neuscamman,  
 C. M. Oana,  R. Olson,  B. Peters,  R. Peverati,  P. A. Pieniazek,  
 Y. M. Rhee,  J. Ritchie,  M. A. Rohrdanz,  E. Rosta,  N. J. Russ,  
 H. F. Schaefer III,  N. E. Schultz,  N. Shenvi,  A. C. Simmonett,  A. Sodt,  
 D. Stuck,  K. S. Thanthiriwatte,  V. Vanovschi,  Tao Wang,  A. Warshel,  
 C. F. Williams,  Q. Wu,  X. Xu,  W. Zhang

 Please cite Q-Chem as follows:
 Y. Shao et al., Mol. Phys. 113, 184-215 (2015)
 DOI: 10.1080/00268976.2014.952696

 Q-Chem 5.1.0 for Intel X86 EM64T Linux

 Parts of Q-Chem use Armadillo 8.300.2 (Tropical Shenanigans).
 http://arma.sourceforge.net/

 Q-Chem begins on Fri Dec 28 15:27:11 2018  

Host: cori08
0

     Scratch files written to /tmp/chain_scratch//
 Jun2518 |scratch|qcdevops|jenkins|workspace|build_RNUM -1
Processing $rem in /global/common/cori/software/qchem/5.1/config/preferences.
 MEM_TOTAL  96000 
The previous job contains 0 fragments, simply inherited here
Symmetry turned off for PCM/SM12/SMD calculation

Checking the input file for inconsistencies... 	...done.

--------------------------------------------------------------
User input:
--------------------------------------------------------------
$molecule
read
$end

$rem
job_type = freq
basis = 6-31++g**
max_scf_cycles = 200
gen_scfman = true
xc_grid = 3
scf_algorithm = diis_gdm
method = wb97xd
geom_opt_max_cycles = 200
solvent_method = smd
ideriv = 1
scf_guess = read
$end

$smx
solvent acetonitrile
$end
--------------------------------------------------------------
 ----------------------------------------------------------------
             Standard Nuclear Orientation (Angstroms)
    I     Atom           X                Y                Z
 ----------------------------------------------------------------
    1      Li      3.1357477530     0.0359551915    -0.0901930134
    2      C      -1.8531646202     0.7561512685    -0.0173473504
    3      O      -0.5136837173     1.0895878468     0.4894923796
    4      C      -1.8652472671    -0.7605344597     0.0032027763
    5      S       0.5220386713    -0.0095032771     0.0391863365
    6      O      -0.5016991777    -1.1200983752    -0.4120139294
    7      O       1.3377261947     0.3985260854    -1.1033446746
    8      O       1.3539207455    -0.4042100746     1.1688239557
    9      H      -2.5618876308     1.1997503530     0.6770927759
   10      H      -1.9471410549     1.1747744909    -1.0181605671
   11      H      -2.0324818310    -1.1654770112     0.9964760521
   12      H      -2.5357005267    -1.1948157770    -0.7338856301
 ----------------------------------------------------------------
 Nuclear Repulsion Energy =   484.1970101150 hartrees
 There are       33 alpha and       33 beta electrons
 Requested basis set is 6-31++G(d,p)
 There are 57 shells and 180 basis functions

 Total QAlloc Memory Limit  96000 MB
 Mega-Array Size       188 MB
 MEM_STATIC part       192 MB

                       Distance Matrix (Angstroms)
             Li(  1)   C (  2)   O (  3)   C (  4)   S (  5)   O (  6)
   C (  2)  5.041154
   O (  3)  3.842464  1.470468
   C (  4)  5.064886  1.516873  2.342254
   S (  5)  2.617304  2.496200  1.575912  2.502894
   O (  6)  3.830281  2.345748  2.386539  1.470019  1.576402
   O (  7)  2.095427  3.389553  2.538191  3.581467  1.461920  2.483474
   O (  8)  2.225708  3.610933  2.486136  3.442192  1.457361  2.540644
   H (  9)  5.865679  1.086883  2.059725  2.186813  3.373399  3.288195
   H ( 10)  5.290916  1.088900  2.082084  2.189820  2.935531  2.779057
   H ( 11)  5.416169  2.180057  2.765700  1.085605  2.962812  2.080673
   H ( 12)  5.839046  2.187591  3.286899  1.086926  3.369329  2.060666
             O (  7)   O (  8)   H (  9)   H ( 10)   H ( 11)
   O (  8)  2.409854
   H (  9)  4.361067  4.260052
   H ( 10)  3.376414  4.262992  1.803447
   H ( 11)  4.267746  3.475191  2.444704  3.089146
   H ( 12)  4.204601  4.401649  2.779477  2.458083  1.802288
 
 A cutoff of  1.0D-12 yielded   1574 shell pairs
 There are     16206 function pairs
 
 -------------------------------------------------------
 OpenMP Integral Computing Module                       
 Release: version 1.0, May 2013, Q-Chem Inc. Pittsburgh 
 -------------------------------------------------------
 Integral Job Info:
 Integral job number is                      11
 Integral operator is                         1
 short-range coefficients              22203600
 long-range coefficients              100000000
 Omega coefficients                         200
 if combine SR and LR in K                    1
 Integral screening is                        0
 Integral computing path is                   2
 max size of driver memory is            800000
 size of driver memory is                593474
 size of scratch memory is             15604072
 max col of scratch BK array               1296
 max len of scratch array in speh3          155
 max len of scratch index in speh4           18
 max int batch size is                      520
 min int batch size is                       52
 fixed nKL is                                52
 max L of basis functions is                  2
 order of int derivative is                   0
 number of shells is                         57
 number of basis is                         180
 number of cartesian basis is               180
 number of contracted shell pairs          1574
 number of primitive shell pairs           5390
 maxK2 (contraction) of shell pair           36
 max number of K2 of shell pair               1
 max number of CS2 of shell pair            176
 max number of PS2 of shell pair           1056
 mem total for path MDJ                  537180
 -------------------------------------------------------
 Smallest overlap matrix eigenvalue = 1.31E-04

 -----------------------------------------------------------------------
  General SCF calculation program by
  Eric Jon Sundstrom, Paul Horn, Yuezhi Mao, Dmitri Zuev, Alec White,
  David Stuck, Shaama M.S., Shane Yost, Joonho Lee, David Small,
  Daniel Levine, Susi Lehtola, Hugh Burton, Evgeny Epifanovsky
 -----------------------------------------------------------------------
 Exchange:     0.2220 Hartree-Fock + 1.0000 wB97X-D + LR-HF
 Correlation:  1.0000 wB97X-D
 Using SG-3 standard quadrature grid
 Dispersion:   Grimme D
 
 Citation of the SMD model:
 Marenich, A.V.; Cramer, C.J.; Truhlar, D.G.
 J. Phys. Chem. B 2009, 113, 6378-6396.
 iSolventCode=          53
 Solvent: acetonitrile                                                    
 
 vradii
            1           2           3           4           5           6
    1   2.1476001   1.8500000   2.1680000   1.8500000   2.4900000   2.1680000
            7           8           9          10          11          12
    1   2.1680000   2.1680000   1.2000000   1.2000000   1.2000000   1.2000000
Changing PCM_TESSEL_METHOD to VTN
Changing PCM_VDW_RADII to SMD_RADIUS
 Discretize the solute cavity surface with Lebedev spheres
	Using 302 Lebedev grid points for each H atom
	Using 302 Lebedev grid points for other atoms
	Atomic van der Waals radii will be scaled by 1.20
 Removing interior tesserae...
 Keep 1145 surface tesserae and discard 2479 interior tesserae
 Molecular Surface Area = 164.340 Angst**2
 
 Citation of the SMD model:
 Marenich, A.V.; Cramer, C.J.; Truhlar, D.G.
 J. Phys. Chem. B 2009, 113, 6378-6396.
 iSolventCode=          53
 Solvent: acetonitrile                                                    
 
 vradii
            1           2           3           4           5           6
    1   2.1476001   1.8500000   2.1680000   1.8500000   2.4900000   2.1680000
            7           8           9          10          11          12
    1   2.1680000   2.1680000   1.2000000   1.2000000   1.2000000   1.2000000
 using 32 threads for integral computing
 -------------------------------------------------------
 OpenMP Integral computing Module                
 Release: version 1.0, May 2013, Q-Chem Inc. Pittsburgh 
 -------------------------------------------------------
 using 32 threads for integral computing
 -------------------------------------------------------
 OpenMP Integral computing Module                
 Release: version 1.0, May 2013, Q-Chem Inc. Pittsburgh 
 -------------------------------------------------------
 -------------------------------------------------------
 OpenMP BLAS3 based DFT computing Module                
 Release: version 1.0, May 2013, Q-Chem Inc. Pittsburgh 
 -------------------------------------------------------
 A restricted SCF calculation will be
 performed using DIIS, GDM
 SCF converges when RMS gradient is below 1.0e-08
 ---------------------------------------
  Cycle       Energy         DIIS error
 ---------------------------------------
    1    -784.8384890507      4.04e-04  
    2    -784.9323267052      4.42e-04  Done DIIS. Switching to GDM
 ---------------------------------------
  Cycle       Energy        RMS Gradient
 ---------------------------------------
    1    -784.9323267052      6.44e-03   Normal BFGS step
    2    -784.9332994302      2.94e-03   Normal BFGS step
    3    -784.9335363381      1.18e-03   Normal BFGS step
    4    -784.9335760799      5.72e-04   Normal BFGS step
    5    -784.9335803680      2.90e-04   Normal BFGS step
    6    -784.9335818217      1.03e-04   Normal BFGS step
    7    -784.9335819964      5.66e-05   Normal BFGS step
    8    -784.9335820511      8.83e-06   Normal BFGS step
    9    -784.9335820533      7.83e-06   Normal BFGS step
   10    -784.9335820538      2.80e-06   Normal BFGS step
   11    -784.9335820540      8.64e-07   Normal BFGS step
   12    -784.9335820540      1.45e-07   Normal BFGS step
   13    -784.9335820540      3.41e-08   Normal BFGS step
   14    -784.9335820540      9.93e-09  Convergence criterion met
 ---------------------------------------
 SCF time:   CPU 580.05s  wall 22.00s 
(0)  E-EN(g) gas-phase elect-nuc energy                    0.000000000 a.u.
(3)  G-ENP(liq) elect-nuc-pol free energy of system     -784.933582054 a.u.
(4)  G-CDS(liq) cavity-dispersion-solvent structure 
     free energy                                               -0.3959 kcal/mol
(6)  G-S(liq) free energy of system                     -784.934213030 a.u.
(9)  DeltaG-S(liq) free energy of  solvation
     (9) = (6) - (0)                                      -492553.6528 kcal/mol
 SCF   energy in the final basis set =     -784.9335820540
 Total energy in the final basis set =     -784.9342130303
 
 --------------------------------------------------------------
 
                    Orbital Energies (a.u.)
 --------------------------------------------------------------
 
 Alpha MOs
 -- Occupied --
-89.382 -19.389 -19.389 -19.346 -19.345 -10.399 -10.399  -8.366
 -6.318  -6.316  -6.315  -2.164  -1.354  -1.228  -1.208  -1.177
 -0.926  -0.814  -0.778  -0.678  -0.671  -0.637  -0.622  -0.593
 -0.571  -0.540  -0.523  -0.510  -0.490  -0.487  -0.485  -0.440
 -0.429
 -- Virtual --
  0.008   0.017   0.017   0.019   0.042   0.062   0.066   0.068
  0.070   0.085   0.089   0.089   0.093   0.115   0.122   0.133
  0.135   0.135   0.140   0.149   0.171   0.175   0.179   0.195
  0.203   0.204   0.212   0.216   0.216   0.220   0.239   0.247
  0.264   0.273   0.276   0.278   0.292   0.307   0.321   0.342
  0.346   0.351   0.354   0.365   0.383   0.393   0.404   0.405
  0.415   0.422   0.427   0.444   0.471   0.501   0.567   0.581
  0.610   0.644   0.665   0.675   0.684   0.732   0.744   0.764
  0.769   0.783   0.828   0.849   0.865   0.901   1.014   1.018
  1.062   1.103   1.114   1.133   1.142   1.172   1.184   1.238
  1.248   1.251   1.307   1.321   1.332   1.377   1.382   1.405
  1.409   1.424   1.448   1.489   1.493   1.522   1.583   1.642
  1.655   1.667   1.691   1.755   1.798   1.835   1.846   1.861
  1.904   1.914   1.959   1.984   1.986   2.000   2.033   2.062
  2.097   2.112   2.176   2.193   2.213   2.267   2.279   2.346
  2.391   2.411   2.508   2.601   2.642   2.648   2.667   2.740
  2.757   2.810   2.835   2.916   2.935   2.941   2.973   3.116
  3.377   3.395   3.534   3.592   4.063   4.212   4.295   4.308
  4.378   4.530   4.757
 --------------------------------------------------------------
 
          Ground-State Mulliken Net Atomic Charges

     Atom                 Charge (a.u.)
  ----------------------------------------
      1 Li                    0.770909
      2 C                    -0.151728
      3 O                    -0.530367
      4 C                    -0.148293
      5 S                     1.791032
      6 O                    -0.535440
      7 O                    -0.593667
      8 O                    -0.588639
      9 H                     0.256041
     10 H                     0.237709
     11 H                     0.237506
     12 H                     0.254937
  ----------------------------------------
  Sum of atomic charges =     1.000000

 -----------------------------------------------------------------
                    Cartesian Multipole Moments
 -----------------------------------------------------------------
    Charge (ESU x 10^10)
                 4.8032
    Dipole Moment (Debye)
         X       3.5138      Y       0.1610      Z      -0.4598
       Tot       3.5474
    Quadrupole Moments (Debye-Ang)
        XX       6.5765     XY       0.4829     YY     -46.1931
        XZ      -1.2014     YZ       0.3522     ZZ     -50.3582
    Octopole Moments (Debye-Ang^2)
       XXX     112.3618    XXY       1.8216    XYY      -2.2421
       YYY       1.0878    XXZ      -5.2787    XYZ       2.8831
       YYZ      -1.2270    XZZ      -6.4141    YZZ       0.2486
       ZZZ      -3.7384
    Hexadecapole Moments (Debye-Ang^3)
      XXXX       6.2621   XXXY       4.9505   XXYY     -97.3419
      XYYY      -0.3144   YYYY    -189.1895   XXXZ     -15.4782
      XXYZ       8.3206   XYYZ      -0.4850   YYYZ      -0.0805
      XXZZ    -110.2256   XYZZ       0.4156   YYZZ     -55.5503
      XZZZ      -2.0794   YZZZ       0.9455   ZZZZ    -161.7267
 -----------------------------------------------------------------
 Calculating analytic gradient of the SCF energy
 Gradient of CDS energy
            1           2           3           4           5           6
    1   0.0000591  -0.0004767   0.0001895  -0.0004471  -0.0000264   0.0001872
    2   0.0000020   0.0010600  -0.0001521  -0.0010683   0.0000164   0.0001549
    3  -0.0000068  -0.0000435  -0.0000869   0.0000613  -0.0000286   0.0000882
            7           8           9          10          11          12
    1  -0.0001268  -0.0001336   0.0001843   0.0002333   0.0001697   0.0001876
    2  -0.0000277   0.0000240  -0.0001061  -0.0001254   0.0001275   0.0000948
    3   0.0000971  -0.0000884   0.0000385   0.0000547  -0.0000677  -0.0000180
 Gradient of SCF Energy
            1           2           3           4           5           6
    1   0.0063186   0.0418776  -0.0266474   0.0438685  -0.0058798  -0.0260685
    2   0.0000261  -0.0309132   0.0237678   0.0279990  -0.0003282  -0.0237137
    3  -0.0003191   0.0200853   0.0048338  -0.0150808  -0.0004288  -0.0056966
            7           8           9          10          11          12
    1   0.0196590   0.0204118  -0.0317537  -0.0043598  -0.0074165  -0.0300098
    2   0.0145615  -0.0142665   0.0171205   0.0140725  -0.0116063  -0.0167194
    3  -0.0407059   0.0418231   0.0294851  -0.0405022   0.0379874  -0.0314812
 Max gradient component =       4.387E-02
 RMS gradient           =       2.424E-02
 Computing VTN gradient.
 Updating gradient with PCM contributions...
 -- total gradient after adding PCM contribution --
---------------------------------------------------
  Atom         X              Y              Z     
---------------------------------------------------
   1      -0.000017       0.000122      -0.000001
   2      -0.000074       0.000014       0.000063
   3      -0.000015      -0.000033       0.000086
   4       0.000063      -0.000013      -0.000039
   5       0.000091      -0.000019      -0.000090
   6      -0.000017       0.000026      -0.000089
   7      -0.000020       0.000082      -0.000010
   8      -0.000018      -0.000107      -0.000044
   9       0.000008      -0.000072       0.000126
  10       0.000083       0.000043       0.000131
  11      -0.000052      -0.000089      -0.000078
  12      -0.000031       0.000046      -0.000055
---------------------------------------------------
 Number of fixed atoms: 0
 Gradient time:  CPU 77.02 s  wall 3.46 s
 ######################################################
 ######################################################
 # Starting finite difference calculation for IDERIV  #
 Finite diff step size:  1.88973e-03 a.u.
 ----------------------------------------------------------------
             Standard Nuclear Orientation (Angstroms)
    I     Atom           X                Y                Z
 ----------------------------------------------------------------
    1      Li      3.1367477530     0.0359551915    -0.0901930134
    2      C      -1.8531646202     0.7561512685    -0.0173473504
    3      O      -0.5136837173     1.0895878468     0.4894923796
    4      C      -1.8652472671    -0.7605344597     0.0032027763
    5      S       0.5220386713    -0.0095032771     0.0391863365
    6      O      -0.5016991777    -1.1200983752    -0.4120139294
    7      O       1.3377261947     0.3985260854    -1.1033446746
    8      O       1.3539207455    -0.4042100746     1.1688239557
    9      H      -2.5618876308     1.1997503530     0.6770927759
   10      H      -1.9471410549     1.1747744909    -1.0181605671
   11      H      -2.0324818310    -1.1654770112     0.9964760521
   12      H      -2.5357005267    -1.1948157770    -0.7338856301
 ----------------------------------------------------------------
 Nuclear Repulsion Energy =   484.1862011377 hartrees
 There are       33 alpha and       33 beta electrons
 Discretize the solute cavity surface with Lebedev spheres
	Using 302 Lebedev grid points for each H atom
	Using 302 Lebedev grid points for other atoms
	Atomic van der Waals radii will be scaled by 1.20
 Removing interior tesserae...
 Keep 1145 surface tesserae and discard 2479 interior tesserae
 Molecular Surface Area = 164.340 Angst**2

                       Distance Matrix (Angstroms)
             Li(  1)   C (  2)   O (  3)   C (  4)   S (  5)   O (  6)
   C (  2)  5.042144
   O (  3)  3.843413  1.470468
   C (  4)  5.065873  1.516873  2.342254
   S (  5)  2.618303  2.496200  1.575912  2.502894
   O (  6)  3.831230  2.345748  2.386539  1.470019  1.576402
   O (  7)  2.096285  3.389553  2.538191  3.581467  1.461920  2.483474
   O (  8)  2.226509  3.610933  2.486136  3.442192  1.457361  2.540644
   H (  9)  5.866651  1.086883  2.059725  2.186813  3.373399  3.288195
   H ( 10)  5.291877  1.088900  2.082084  2.189820  2.935531  2.779057
   H ( 11)  5.417123  2.180057  2.765700  1.085605  2.962812  2.080673
   H ( 12)  5.840018  2.187591  3.286899  1.086926  3.369329  2.060666
             O (  7)   O (  8)   H (  9)   H ( 10)   H ( 11)
   O (  8)  2.409854
   H (  9)  4.361067  4.260052
   H ( 10)  3.376414  4.262992  1.803447
   H ( 11)  4.267746  3.475191  2.444704  3.089146
   H ( 12)  4.204601  4.401649  2.779477  2.458083  1.802288
 
 Requested basis set is 6-31++G(d,p)
 There are 57 shells and 180 basis functions
 A cutoff of  1.0D-12 yielded   1574 shell pairs
 There are     16206 function pairs
 Smallest overlap matrix eigenvalue = 1.31E-04

 -----------------------------------------------------------------------
  General SCF calculation program by
  Eric Jon Sundstrom, Paul Horn, Yuezhi Mao, Dmitri Zuev, Alec White,
  David Stuck, Shaama M.S., Shane Yost, Joonho Lee, David Small,
  Daniel Levine, Susi Lehtola, Hugh Burton, Evgeny Epifanovsky
 -----------------------------------------------------------------------
 Exchange:     0.2220 Hartree-Fock + 1.0000 wB97X-D + LR-HF
 Correlation:  1.0000 wB97X-D
 Using SG-3 standard quadrature grid
 Dispersion:   Grimme D
 using 32 threads for integral computing
 -------------------------------------------------------
 OpenMP Integral computing Module                
 Release: version 1.0, May 2013, Q-Chem Inc. Pittsburgh 
 -------------------------------------------------------
 using 32 threads for integral computing
 -------------------------------------------------------
 OpenMP Integral computing Module                
 Release: version 1.0, May 2013, Q-Chem Inc. Pittsburgh 
 -------------------------------------------------------
 -------------------------------------------------------
 OpenMP BLAS3 based DFT computing Module                
 Release: version 1.0, May 2013, Q-Chem Inc. Pittsburgh 
 -------------------------------------------------------
 A restricted SCF calculation will be
 performed using DIIS, GDM
 SCF converges when RMS gradient is below 1.0e-08
 ---------------------------------------
  Cycle       Energy         DIIS error
 ---------------------------------------
    1    -784.9335429488      1.99e-06  
    2    -784.9335821486      6.65e-07  Done DIIS. Switching to GDM
 ---------------------------------------
  Cycle       Energy        RMS Gradient
 ---------------------------------------
    1    -784.9335821486      8.47e-06   Normal BFGS step
    2    -784.9335821492      1.04e-05   Normal BFGS step
    3    -784.9335821504      1.22e-06   Normal BFGS step
    4    -784.9335821504      9.72e-07   Normal BFGS step
    5    -784.9335821504      1.60e-07   Normal BFGS step
    6    -784.9335821504      1.51e-07   Normal BFGS step
    7    -784.9335821504      3.13e-08   Normal BFGS step
    8    -784.9335821504      1.74e-08   Normal BFGS step
    9    -784.9335821504      3.08e-09  Convergence criterion met
 ---------------------------------------
 SCF time:   CPU 393.11s  wall 15.00s 
(0)  E-EN(g) gas-phase elect-nuc energy                    0.000000000 a.u.
(3)  G-ENP(liq) elect-nuc-pol free energy of system     -784.933582150 a.u.
(4)  G-CDS(liq) cavity-dispersion-solvent structure 
     free energy                                               -0.3959 kcal/mol
(6)  G-S(liq) free energy of system                     -784.934213127 a.u.
(9)  DeltaG-S(liq) free energy of  solvation
     (9) = (6) - (0)                                      -492553.6528 kcal/mol
 SCF   energy in the final basis set =     -784.9335821504
 Total energy in the final basis set =     -784.9342131267
 
 --------------------------------------------------------------
 
                    Orbital Energies (a.u.)
 --------------------------------------------------------------
 
 Alpha MOs
 -- Occupied --
-89.382 -19.389 -19.389 -19.346 -19.345 -10.399 -10.399  -8.366
 -6.318  -6.316  -6.315  -2.164  -1.354  -1.228  -1.208  -1.177
 -0.926  -0.814  -0.778  -0.678  -0.671  -0.637  -0.622  -0.593
 -0.571  -0.540  -0.523  -0.510  -0.490  -0.487  -0.485  -0.440
 -0.428
 -- Virtual --
  0.008   0.017   0.017   0.019   0.042   0.062   0.066   0.068
  0.070   0.085   0.089   0.089   0.093   0.115   0.122   0.133
  0.135   0.135   0.140   0.149   0.171   0.175   0.179   0.195
  0.203   0.204   0.212   0.216   0.216   0.220   0.239   0.247
  0.264   0.272   0.276   0.278   0.292   0.307   0.321   0.342
  0.346   0.351   0.354   0.365   0.383   0.393   0.404   0.405
  0.415   0.422   0.427   0.444   0.471   0.501   0.567   0.581
  0.610   0.644   0.665   0.675   0.684   0.732   0.743   0.764
  0.769   0.783   0.828   0.849   0.865   0.901   1.014   1.018
  1.062   1.103   1.114   1.132   1.142   1.172   1.184   1.238
  1.248   1.251   1.307   1.321   1.332   1.377   1.382   1.405
  1.409   1.424   1.448   1.489   1.493   1.522   1.583   1.642
  1.655   1.667   1.691   1.756   1.798   1.835   1.846   1.861
  1.904   1.914   1.959   1.984   1.986   2.000   2.033   2.062
  2.096   2.112   2.176   2.193   2.213   2.267   2.279   2.346
  2.391   2.411   2.508   2.601   2.642   2.648   2.667   2.740
  2.757   2.810   2.835   2.916   2.935   2.941   2.973   3.116
  3.377   3.395   3.534   3.592   4.063   4.212   4.295   4.308
  4.378   4.530   4.757
 --------------------------------------------------------------
 
          Ground-State Mulliken Net Atomic Charges

     Atom                 Charge (a.u.)
  ----------------------------------------
      1 Li                    0.771304
      2 C                    -0.151709
      3 O                    -0.530354
      4 C                    -0.148264
      5 S                     1.790815
      6 O                    -0.535425
      7 O                    -0.593793
      8 O                    -0.588737
      9 H                     0.256035
     10 H                     0.237699
     11 H                     0.237497
     12 H                     0.254932
  ----------------------------------------
  Sum of atomic charges =     1.000000

 -----------------------------------------------------------------
                    Cartesian Multipole Moments
 -----------------------------------------------------------------
    Charge (ESU x 10^10)
                 4.8032
    Dipole Moment (Debye)
         X       3.5197      Y       0.1610      Z      -0.4599
       Tot       3.5533
    Quadrupole Moments (Debye-Ang)
        XX       6.6064     XY       0.4831     YY     -46.1940
        XZ      -1.2020     YZ       0.3524     ZZ     -50.3595
    Octopole Moments (Debye-Ang^2)
       XXX     112.5057    XXY       1.8228    XYY      -2.2417
       YYY       1.0878    XXZ      -5.2815    XYZ       2.8834
       YYZ      -1.2271    XZZ      -6.4147    YZZ       0.2486
       ZZZ      -3.7386
    Hexadecapole Moments (Debye-Ang^3)
      XXXX       6.8286   XXXY       4.9555   XXYY     -97.3466
      XYYY      -0.3144   YYYY    -189.1926   XXXZ     -15.4907
      XXYZ       8.3207   XYYZ      -0.4849   YYYZ      -0.0802
      XXZZ    -110.2299   XYZZ       0.4157   YYZZ     -55.5519
      XZZZ      -2.0795   YZZZ       0.9466   ZZZZ    -161.7329
 -----------------------------------------------------------------
 Calculating analytic gradient of the SCF energy
 Gradient of CDS energy
            1           2           3           4           5           6
    1   0.0000591  -0.0004767   0.0001895  -0.0004471  -0.0000264   0.0001872
    2   0.0000020   0.0010600  -0.0001521  -0.0010683   0.0000164   0.0001549
    3  -0.0000068  -0.0000435  -0.0000869   0.0000613  -0.0000286   0.0000882
            7           8           9          10          11          12
    1  -0.0001268  -0.0001336   0.0001843   0.0002333   0.0001697   0.0001876
    2  -0.0000277   0.0000240  -0.0001061  -0.0001254   0.0001275   0.0000948
    3   0.0000971  -0.0000884   0.0000385   0.0000547  -0.0000677  -0.0000180
 Gradient of SCF Energy
            1           2           3           4           5           6
    1   0.0063907   0.0418695  -0.0266285   0.0438606  -0.0059842  -0.0260499
    2   0.0000245  -0.0309092   0.0237622   0.0279953  -0.0003306  -0.0237073
    3  -0.0003151   0.0200789   0.0048322  -0.0150750  -0.0004214  -0.0056960
            7           8           9          10          11          12
    1   0.0196516   0.0204186  -0.0317490  -0.0043590  -0.0074150  -0.0300054
    2   0.0145598  -0.0142616   0.0171181   0.0140708  -0.0116048  -0.0167171
    3  -0.0407032   0.0418100   0.0294817  -0.0404960   0.0379815  -0.0314775
 Max gradient component =       4.386E-02
 RMS gradient           =       2.424E-02
 Computing VTN gradient.
 Updating gradient with PCM contributions...
 -- total gradient after adding PCM contribution --
---------------------------------------------------
  Atom         X              Y              Z     
---------------------------------------------------
   1       0.000033       0.000120       0.000002
   2      -0.000078       0.000013       0.000061
   3      -0.000004      -0.000036       0.000085
   4       0.000059      -0.000012      -0.000037
   5       0.000019      -0.000021      -0.000085
   6      -0.000006       0.000030      -0.000089
   7      -0.000023       0.000083      -0.000012
   8      -0.000010      -0.000104      -0.000048
   9       0.000008      -0.000072       0.000126
  10       0.000084       0.000043       0.000131
  11      -0.000051      -0.000089      -0.000079
  12      -0.000030       0.000046      -0.000055
---------------------------------------------------
 Number of fixed atoms: 0
 Gradient time:  CPU 77.41 s  wall 3.47 s
 ----------------------------------------------------------------
             Standard Nuclear Orientation (Angstroms)
    I     Atom           X                Y                Z
 ----------------------------------------------------------------
    1      Li      3.1347477530     0.0359551915    -0.0901930134
    2      C      -1.8531646202     0.7561512685    -0.0173473504
    3      O      -0.5136837173     1.0895878468     0.4894923796
    4      C      -1.8652472671    -0.7605344597     0.0032027763
    5      S       0.5220386713    -0.0095032771     0.0391863365
    6      O      -0.5016991777    -1.1200983752    -0.4120139294
    7      O       1.3377261947     0.3985260854    -1.1033446746
    8      O       1.3539207455    -0.4042100746     1.1688239557
    9      H      -2.5618876308     1.1997503530     0.6770927759
   10      H      -1.9471410549     1.1747744909    -1.0181605671
   11      H      -2.0324818310    -1.1654770112     0.9964760521
   12      H      -2.5357005267    -1.1948157770    -0.7338856301
 ----------------------------------------------------------------
 Nuclear Repulsion Energy =   484.2078257646 hartrees
 There are       33 alpha and       33 beta electrons
 Discretize the solute cavity surface with Lebedev spheres
	Using 302 Lebedev grid points for each H atom
	Using 302 Lebedev grid points for other atoms
	Atomic van der Waals radii will be scaled by 1.20
 Removing interior tesserae...
 Keep 1145 surface tesserae and discard 2479 interior tesserae
 Molecular Surface Area = 164.340 Angst**2

                       Distance Matrix (Angstroms)
             Li(  1)   C (  2)   O (  3)   C (  4)   S (  5)   O (  6)
   C (  2)  5.040165
   O (  3)  3.841514  1.470468
   C (  4)  5.063899  1.516873  2.342254
   S (  5)  2.616305  2.496200  1.575912  2.502894
   O (  6)  3.829331  2.345748  2.386539  1.470019  1.576402
   O (  7)  2.094569  3.389553  2.538191  3.581467  1.461920  2.483474
   O (  8)  2.224908  3.610933  2.486136  3.442192  1.457361  2.540644
   H (  9)  5.864708  1.086883  2.059725  2.186813  3.373399  3.288195
   H ( 10)  5.289955  1.088900  2.082084  2.189820  2.935531  2.779057
   H ( 11)  5.415215  2.180057  2.765700  1.085605  2.962812  2.080673
   H ( 12)  5.838075  2.187591  3.286899  1.086926  3.369329  2.060666
             O (  7)   O (  8)   H (  9)   H ( 10)   H ( 11)
   O (  8)  2.409854
   H (  9)  4.361067  4.260052
   H ( 10)  3.376414  4.262992  1.803447
   H ( 11)  4.267746  3.475191  2.444704  3.089146
   H ( 12)  4.204601  4.401649  2.779477  2.458083  1.802288
 
 Requested basis set is 6-31++G(d,p)
 There are 57 shells and 180 basis functions
 A cutoff of  1.0D-12 yielded   1574 shell pairs
 There are     16206 function pairs
 Smallest overlap matrix eigenvalue = 1.31E-04

 -----------------------------------------------------------------------
  General SCF calculation program by
  Eric Jon Sundstrom, Paul Horn, Yuezhi Mao, Dmitri Zuev, Alec White,
  David Stuck, Shaama M.S., Shane Yost, Joonho Lee, David Small,
  Daniel Levine, Susi Lehtola, Hugh Burton, Evgeny Epifanovsky
 -----------------------------------------------------------------------
 Exchange:     0.2220 Hartree-Fock + 1.0000 wB97X-D + LR-HF
 Correlation:  1.0000 wB97X-D
 Using SG-3 standard quadrature grid
 Dispersion:   Grimme D
 using 32 threads for integral computing
 -------------------------------------------------------
 OpenMP Integral computing Module                
 Release: version 1.0, May 2013, Q-Chem Inc. Pittsburgh 
 -------------------------------------------------------
 using 32 threads for integral computing
 -------------------------------------------------------
 OpenMP Integral computing Module                
 Release: version 1.0, May 2013, Q-Chem Inc. Pittsburgh 
 -------------------------------------------------------
 -------------------------------------------------------
 OpenMP BLAS3 based DFT computing Module                
 Release: version 1.0, May 2013, Q-Chem Inc. Pittsburgh 
 -------------------------------------------------------
 A restricted SCF calculation will be
 performed using DIIS, GDM
 SCF converges when RMS gradient is below 1.0e-08
 ---------------------------------------
  Cycle       Energy         DIIS error
 ---------------------------------------
    1    -784.9336601716      3.97e-06  
    2    -784.9335818550      1.33e-06  Done DIIS. Switching to GDM
 ---------------------------------------
  Cycle       Energy        RMS Gradient
 ---------------------------------------
    1    -784.9335818550      1.69e-05   Normal BFGS step
    2    -784.9335818574      2.08e-05   Normal BFGS step
    3    -784.9335818622      2.43e-06   Normal BFGS step
    4    -784.9335818623      1.95e-06   Normal BFGS step
    5    -784.9335818624      3.21e-07   Normal BFGS step
    6    -784.9335818624      3.03e-07   Normal BFGS step
    7    -784.9335818624      6.26e-08   Normal BFGS step
    8    -784.9335818624      3.49e-08   Normal BFGS step
    9    -784.9335818624      6.17e-09  Convergence criterion met
 ---------------------------------------
 SCF time:   CPU 392.45s  wall 15.00s 
(0)  E-EN(g) gas-phase elect-nuc energy                    0.000000000 a.u.
(3)  G-ENP(liq) elect-nuc-pol free energy of system     -784.933581862 a.u.
(4)  G-CDS(liq) cavity-dispersion-solvent structure 
     free energy                                               -0.3959 kcal/mol
(6)  G-S(liq) free energy of system                     -784.934212839 a.u.
(9)  DeltaG-S(liq) free energy of  solvation
     (9) = (6) - (0)                                      -492553.6527 kcal/mol
 SCF   energy in the final basis set =     -784.9335818624
 Total energy in the final basis set =     -784.9342128387
 
 --------------------------------------------------------------
 
                    Orbital Energies (a.u.)
 --------------------------------------------------------------
 
 Alpha MOs
 -- Occupied --
-89.382 -19.389 -19.389 -19.346 -19.345 -10.399 -10.399  -8.366
 -6.318  -6.316  -6.315  -2.164  -1.354  -1.228  -1.208  -1.177
 -0.926  -0.814  -0.778  -0.678  -0.671  -0.637  -0.623  -0.593
 -0.571  -0.540  -0.523  -0.510  -0.490  -0.487  -0.485  -0.440
 -0.429
 -- Virtual --
  0.008   0.017   0.017   0.019   0.042   0.062   0.066   0.068
  0.070   0.085   0.089   0.089   0.093   0.115   0.122   0.133
  0.135   0.135   0.140   0.149   0.171   0.175   0.179   0.195
  0.203   0.204   0.212   0.216   0.216   0.220   0.239   0.247
  0.264   0.273   0.276   0.278   0.292   0.307   0.321   0.342
  0.346   0.351   0.354   0.365   0.383   0.392   0.404   0.405
  0.415   0.422   0.427   0.444   0.471   0.501   0.567   0.581
  0.610   0.644   0.665   0.675   0.684   0.732   0.744   0.764
  0.770   0.784   0.828   0.849   0.865   0.901   1.014   1.018
  1.062   1.103   1.114   1.133   1.142   1.172   1.184   1.238
  1.248   1.251   1.307   1.321   1.332   1.377   1.382   1.405
  1.409   1.424   1.448   1.489   1.493   1.522   1.583   1.642
  1.655   1.667   1.692   1.755   1.798   1.835   1.846   1.861
  1.904   1.914   1.959   1.984   1.986   2.000   2.033   2.062
  2.097   2.112   2.176   2.193   2.213   2.267   2.279   2.346
  2.392   2.411   2.508   2.601   2.642   2.648   2.667   2.740
  2.757   2.810   2.835   2.916   2.935   2.941   2.973   3.116
  3.377   3.395   3.534   3.592   4.063   4.212   4.295   4.308
  4.378   4.530   4.757
 --------------------------------------------------------------
 
          Ground-State Mulliken Net Atomic Charges

     Atom                 Charge (a.u.)
  ----------------------------------------
      1 Li                    0.770513
      2 C                    -0.151746
      3 O                    -0.530381
      4 C                    -0.148322
      5 S                     1.791249
      6 O                    -0.535455
      7 O                    -0.593540
      8 O                    -0.588540
      9 H                     0.256046
     10 H                     0.237720
     11 H                     0.237515
     12 H                     0.254941
  ----------------------------------------
  Sum of atomic charges =     1.000000

 -----------------------------------------------------------------
                    Cartesian Multipole Moments
 -----------------------------------------------------------------
    Charge (ESU x 10^10)
                 4.8032
    Dipole Moment (Debye)
         X       3.5079      Y       0.1610      Z      -0.4598
       Tot       3.5415
    Quadrupole Moments (Debye-Ang)
        XX       6.5467     XY       0.4827     YY     -46.1922
        XZ      -1.2009     YZ       0.3520     ZZ     -50.3570
    Octopole Moments (Debye-Ang^2)
       XXX     112.2180    XXY       1.8205    XYY      -2.2425
       YYY       1.0878    XXZ      -5.2759    XYZ       2.8828
       YYZ      -1.2270    XZZ      -6.4136    YZZ       0.2485
       ZZZ      -3.7383
    Hexadecapole Moments (Debye-Ang^3)
      XXXX       5.6960   XXXY       4.9455   XXYY     -97.3372
      XYYY      -0.3143   YYYY    -189.1864   XXXZ     -15.4656
      XXYZ       8.3205   XYYZ      -0.4850   YYYZ      -0.0809
      XXZZ    -110.2212   XYZZ       0.4156   YYZZ     -55.5487
      XZZZ      -2.0794   YZZZ       0.9444   ZZZZ    -161.7206
 -----------------------------------------------------------------
 Calculating analytic gradient of the SCF energy
 Gradient of CDS energy
            1           2           3           4           5           6
    1   0.0000591  -0.0004767   0.0001895  -0.0004471  -0.0000264   0.0001872
    2   0.0000020   0.0010600  -0.0001521  -0.0010683   0.0000164   0.0001549
    3  -0.0000068  -0.0000435  -0.0000869   0.0000613  -0.0000286   0.0000882
            7           8           9          10          11          12
    1  -0.0001268  -0.0001336   0.0001843   0.0002333   0.0001697   0.0001876
    2  -0.0000277   0.0000240  -0.0001061  -0.0001254   0.0001275   0.0000948
    3   0.0000971  -0.0000884   0.0000385   0.0000547  -0.0000677  -0.0000180
 Gradient of SCF Energy
            1           2           3           4           5           6
    1   0.0062461   0.0418857  -0.0266664   0.0438763  -0.0057753  -0.0260872
    2   0.0000277  -0.0309171   0.0237735   0.0280026  -0.0003258  -0.0237200
    3  -0.0003231   0.0200917   0.0048354  -0.0150867  -0.0004362  -0.0056972
            7           8           9          10          11          12
    1   0.0196667   0.0204052  -0.0317583  -0.0043605  -0.0074179  -0.0300143
    2   0.0145631  -0.0142714   0.0171228   0.0140741  -0.0116078  -0.0167217
    3  -0.0407085   0.0418361   0.0294885  -0.0405084   0.0379933  -0.0314849
 Max gradient component =       4.388E-02
 RMS gradient           =       2.424E-02
 Computing VTN gradient.
 Updating gradient with PCM contributions...
 -- total gradient after adding PCM contribution --
---------------------------------------------------
  Atom         X              Y              Z     
---------------------------------------------------
   1      -0.000068       0.000125      -0.000004
   2      -0.000071       0.000015       0.000066
   3      -0.000026      -0.000029       0.000087
   4       0.000066      -0.000014      -0.000041
   5       0.000162      -0.000018      -0.000094
   6      -0.000028       0.000022      -0.000090
   7      -0.000018       0.000081      -0.000007
   8      -0.000025      -0.000109      -0.000040
   9       0.000007      -0.000072       0.000125
  10       0.000083       0.000042       0.000130
  11      -0.000053      -0.000089      -0.000077
  12      -0.000031       0.000046      -0.000054
---------------------------------------------------
 Number of fixed atoms: 0
 Gradient time:  CPU 77.49 s  wall 3.52 s
 ----------------------------------------------------------------
             Standard Nuclear Orientation (Angstroms)
    I     Atom           X                Y                Z
 ----------------------------------------------------------------
    1      Li      3.1357477530     0.0369551915    -0.0901930134
    2      C      -1.8531646202     0.7561512685    -0.0173473504
    3      O      -0.5136837173     1.0895878468     0.4894923796
    4      C      -1.8652472671    -0.7605344597     0.0032027763
    5      S       0.5220386713    -0.0095032771     0.0391863365
    6      O      -0.5016991777    -1.1200983752    -0.4120139294
    7      O       1.3377261947     0.3985260854    -1.1033446746
    8      O       1.3539207455    -0.4042100746     1.1688239557
    9      H      -2.5618876308     1.1997503530     0.6770927759
   10      H      -1.9471410549     1.1747744909    -1.0181605671
   11      H      -2.0324818310    -1.1654770112     0.9964760521
   12      H      -2.5357005267    -1.1948157770    -0.7338856301
 ----------------------------------------------------------------
 Nuclear Repulsion Energy =   484.1969063420 hartrees
 There are       33 alpha and       33 beta electrons
 Discretize the solute cavity surface with Lebedev spheres
	Using 302 Lebedev grid points for each H atom
	Using 302 Lebedev grid points for other atoms
	Atomic van der Waals radii will be scaled by 1.20
 Removing interior tesserae...
 Keep 1145 surface tesserae and discard 2479 interior tesserae
 Molecular Surface Area = 164.340 Angst**2

                       Distance Matrix (Angstroms)
             Li(  1)   C (  2)   O (  3)   C (  4)   S (  5)   O (  6)
   C (  2)  5.041011
   O (  3)  3.842190  1.470468
   C (  4)  5.065043  1.516873  2.342254
   S (  5)  2.617322  2.496200  1.575912  2.502894
   O (  6)  3.830582  2.345748  2.386539  1.470019  1.576402
   O (  7)  2.095254  3.389553  2.538191  3.581467  1.461920  2.483474
   O (  8)  2.225906  3.610933  2.486136  3.442192  1.457361  2.540644
   H (  9)  5.865481  1.086883  2.059725  2.186813  3.373399  3.288195
   H ( 10)  5.290701  1.088900  2.082084  2.189820  2.935531  2.779057
   H ( 11)  5.416391  2.180057  2.765700  1.085605  2.962812  2.080673
   H ( 12)  5.839257  2.187591  3.286899  1.086926  3.369329  2.060666
             O (  7)   O (  8)   H (  9)   H ( 10)   H ( 11)
   O (  8)  2.409854
   H (  9)  4.361067  4.260052
   H ( 10)  3.376414  4.262992  1.803447
   H ( 11)  4.267746  3.475191  2.444704  3.089146
   H ( 12)  4.204601  4.401649  2.779477  2.458083  1.802288
 
 Requested basis set is 6-31++G(d,p)
 There are 57 shells and 180 basis functions
 A cutoff of  1.0D-12 yielded   1574 shell pairs
 There are     16206 function pairs
 Smallest overlap matrix eigenvalue = 1.31E-04

 -----------------------------------------------------------------------
  General SCF calculation program by
  Eric Jon Sundstrom, Paul Horn, Yuezhi Mao, Dmitri Zuev, Alec White,
  David Stuck, Shaama M.S., Shane Yost, Joonho Lee, David Small,
  Daniel Levine, Susi Lehtola, Hugh Burton, Evgeny Epifanovsky
 -----------------------------------------------------------------------
 Exchange:     0.2220 Hartree-Fock + 1.0000 wB97X-D + LR-HF
 Correlation:  1.0000 wB97X-D
 Using SG-3 standard quadrature grid
 Dispersion:   Grimme D
 using 32 threads for integral computing
 -------------------------------------------------------
 OpenMP Integral computing Module                
 Release: version 1.0, May 2013, Q-Chem Inc. Pittsburgh 
 -------------------------------------------------------
 using 32 threads for integral computing
 -------------------------------------------------------
 OpenMP Integral computing Module                
 Release: version 1.0, May 2013, Q-Chem Inc. Pittsburgh 
 -------------------------------------------------------
 -------------------------------------------------------
 OpenMP BLAS3 based DFT computing Module                
 Release: version 1.0, May 2013, Q-Chem Inc. Pittsburgh 
 -------------------------------------------------------
 A restricted SCF calculation will be
 performed using DIIS, GDM
 SCF converges when RMS gradient is below 1.0e-08
 ---------------------------------------
  Cycle       Energy         DIIS error
 ---------------------------------------
    1    -784.9335427800      2.44e-06  
    2    -784.9335818215      8.35e-07  Done DIIS. Switching to GDM
 ---------------------------------------
  Cycle       Energy        RMS Gradient
 ---------------------------------------
    1    -784.9335818215      1.14e-05   Normal BFGS step
    2    -784.9335818231      1.47e-05   Normal BFGS step
    3    -784.9335818250      1.81e-06   Normal BFGS step
    4    -784.9335818251      1.25e-06   Normal BFGS step
    5    -784.9335818251      2.87e-07   Normal BFGS step
    6    -784.9335818251      2.26e-07   Normal BFGS step
    7    -784.9335818251      4.61e-08   Normal BFGS step
    8    -784.9335818251      2.72e-08   Normal BFGS step
    9    -784.9335818251      4.35e-09  Convergence criterion met
 ---------------------------------------
 SCF time:   CPU 392.63s  wall 16.00s 
(0)  E-EN(g) gas-phase elect-nuc energy                    0.000000000 a.u.
(3)  G-ENP(liq) elect-nuc-pol free energy of system     -784.933581825 a.u.
(4)  G-CDS(liq) cavity-dispersion-solvent structure 
     free energy                                               -0.3959 kcal/mol
(6)  G-S(liq) free energy of system                     -784.934212801 a.u.
(9)  DeltaG-S(liq) free energy of  solvation
     (9) = (6) - (0)                                      -492553.6526 kcal/mol
 SCF   energy in the final basis set =     -784.9335818251
 Total energy in the final basis set =     -784.9342128014
 
 --------------------------------------------------------------
 
                    Orbital Energies (a.u.)
 --------------------------------------------------------------
 
 Alpha MOs
 -- Occupied --
-89.382 -19.389 -19.389 -19.346 -19.345 -10.399 -10.399  -8.366
 -6.318  -6.316  -6.315  -2.164  -1.354  -1.228  -1.208  -1.177
 -0.926  -0.814  -0.778  -0.678  -0.671  -0.637  -0.622  -0.593
 -0.571  -0.540  -0.523  -0.510  -0.490  -0.487  -0.485  -0.440
 -0.429
 -- Virtual --
  0.008   0.017   0.017   0.019   0.042   0.062   0.066   0.068
  0.070   0.085   0.089   0.089   0.093   0.115   0.122   0.133
  0.135   0.135   0.140   0.149   0.171   0.175   0.179   0.195
  0.203   0.204   0.212   0.216   0.216   0.220   0.239   0.247
  0.264   0.273   0.276   0.278   0.292   0.307   0.321   0.342
  0.346   0.351   0.354   0.365   0.383   0.393   0.404   0.405
  0.415   0.422   0.427   0.444   0.471   0.501   0.567   0.581
  0.610   0.644   0.665   0.675   0.684   0.732   0.744   0.764
  0.769   0.783   0.828   0.849   0.865   0.901   1.014   1.018
  1.062   1.103   1.114   1.133   1.142   1.172   1.184   1.238
  1.248   1.251   1.307   1.321   1.332   1.377   1.382   1.405
  1.409   1.424   1.448   1.489   1.493   1.522   1.583   1.642
  1.655   1.667   1.691   1.755   1.798   1.835   1.846   1.861
  1.904   1.914   1.959   1.984   1.986   2.000   2.033   2.062
  2.097   2.112   2.176   2.193   2.213   2.267   2.279   2.346
  2.391   2.411   2.508   2.601   2.642   2.648   2.667   2.740
  2.757   2.810   2.835   2.916   2.935   2.941   2.973   3.116
  3.377   3.395   3.534   3.592   4.063   4.212   4.295   4.308
  4.378   4.530   4.757
 --------------------------------------------------------------
 
          Ground-State Mulliken Net Atomic Charges

     Atom                 Charge (a.u.)
  ----------------------------------------
      1 Li                    0.770910
      2 C                    -0.151738
      3 O                    -0.530358
      4 C                    -0.148276
      5 S                     1.791020
      6 O                    -0.535447
      7 O                    -0.593661
      8 O                    -0.588643
      9 H                     0.256042
     10 H                     0.237709
     11 H                     0.237505
     12 H                     0.254937
  ----------------------------------------
  Sum of atomic charges =     1.000000

 -----------------------------------------------------------------
                    Cartesian Multipole Moments
 -----------------------------------------------------------------
    Charge (ESU x 10^10)
                 4.8032
    Dipole Moment (Debye)
         X       3.5138      Y       0.1652      Z      -0.4598
       Tot       3.5476
    Quadrupole Moments (Debye-Ang)
        XX       6.5765     XY       0.4969     YY     -46.1928
        XZ      -1.2012     YZ       0.3518     ZZ     -50.3583
    Octopole Moments (Debye-Ang^2)
       XXX     112.3619    XXY       1.8664    XYY      -2.2411
       YYY       1.0856    XXZ      -5.2782    XYZ       2.8818
       YYZ      -1.2269    XZZ      -6.4141    YZZ       0.2476
       ZZZ      -3.7386
    Hexadecapole Moments (Debye-Ang^3)
      XXXX       6.2622   XXXY       5.0903   XXYY     -97.3385
      XYYY      -0.3198   YYYY    -189.1897   XXXZ     -15.4773
      XXYZ       8.3164   XYYZ      -0.4847   YYYZ      -0.0804
      XXZZ    -110.2256   XYZZ       0.4134   YYZZ     -55.5504
      XZZZ      -2.0794   YZZZ       0.9457   ZZZZ    -161.7268
 -----------------------------------------------------------------
 Calculating analytic gradient of the SCF energy
 Gradient of CDS energy
            1           2           3           4           5           6
    1   0.0000591  -0.0004767   0.0001895  -0.0004471  -0.0000264   0.0001872
    2   0.0000020   0.0010600  -0.0001521  -0.0010683   0.0000164   0.0001549
    3  -0.0000068  -0.0000435  -0.0000869   0.0000613  -0.0000286   0.0000882
            7           8           9          10          11          12
    1  -0.0001268  -0.0001336   0.0001843   0.0002333   0.0001697   0.0001876
    2  -0.0000277   0.0000240  -0.0001061  -0.0001254   0.0001275   0.0000948
    3   0.0000971  -0.0000884   0.0000385   0.0000547  -0.0000677  -0.0000180
 Gradient of SCF Energy
            1           2           3           4           5           6
    1   0.0063173   0.0418794  -0.0266457   0.0438667  -0.0058822  -0.0260707
    2   0.0000366  -0.0309130   0.0237668   0.0279991  -0.0003112  -0.0237149
    3  -0.0003183   0.0200857   0.0048359  -0.0150803  -0.0004409  -0.0056941
            7           8           9          10          11          12
    1   0.0196604   0.0204146  -0.0317538  -0.0043595  -0.0074168  -0.0300097
    2   0.0145473  -0.0142797   0.0171208   0.0140731  -0.0116058  -0.0167191
    3  -0.0407018   0.0418250   0.0294855  -0.0405028   0.0379868  -0.0314807
 Max gradient component =       4.387E-02
 RMS gradient           =       2.424E-02
 Computing VTN gradient.
 Updating gradient with PCM contributions...
 -- total gradient after adding PCM contribution --
---------------------------------------------------
  Atom         X              Y              Z     
---------------------------------------------------
   1      -0.000019       0.000124       0.000000
   2      -0.000074       0.000013       0.000063
   3      -0.000013      -0.000034       0.000087
   4       0.000062      -0.000014      -0.000039
   5       0.000089      -0.000003      -0.000100
   6      -0.000019       0.000025      -0.000088
   7      -0.000020       0.000074      -0.000005
   8      -0.000015      -0.000113      -0.000042
   9       0.000008      -0.000072       0.000126
  10       0.000083       0.000043       0.000131
  11      -0.000052      -0.000089      -0.000078
  12      -0.000031       0.000046      -0.000055
---------------------------------------------------
 Number of fixed atoms: 0
 Gradient time:  CPU 77.12 s  wall 3.48 s
 ----------------------------------------------------------------
             Standard Nuclear Orientation (Angstroms)
    I     Atom           X                Y                Z
 ----------------------------------------------------------------
    1      Li      3.1357477530     0.0349551915    -0.0901930134
    2      C      -1.8531646202     0.7561512685    -0.0173473504
    3      O      -0.5136837173     1.0895878468     0.4894923796
    4      C      -1.8652472671    -0.7605344597     0.0032027763
    5      S       0.5220386713    -0.0095032771     0.0391863365
    6      O      -0.5016991777    -1.1200983752    -0.4120139294
    7      O       1.3377261947     0.3985260854    -1.1033446746
    8      O       1.3539207455    -0.4042100746     1.1688239557
    9      H      -2.5618876308     1.1997503530     0.6770927759
   10      H      -1.9471410549     1.1747744909    -1.0181605671
   11      H      -2.0324818310    -1.1654770112     0.9964760521
   12      H      -2.5357005267    -1.1948157770    -0.7338856301
 ----------------------------------------------------------------
 Nuclear Repulsion Energy =   484.1971096913 hartrees
 There are       33 alpha and       33 beta electrons
 Discretize the solute cavity surface with Lebedev spheres
	Using 302 Lebedev grid points for each H atom
	Using 302 Lebedev grid points for other atoms
	Atomic van der Waals radii will be scaled by 1.20
 Removing interior tesserae...
 Keep 1145 surface tesserae and discard 2479 interior tesserae
 Molecular Surface Area = 164.340 Angst**2

                       Distance Matrix (Angstroms)
             Li(  1)   C (  2)   O (  3)   C (  4)   S (  5)   O (  6)
   C (  2)  5.041297
   O (  3)  3.842738  1.470468
   C (  4)  5.064729  1.516873  2.342254
   S (  5)  2.617287  2.496200  1.575912  2.502894
   O (  6)  3.829979  2.345748  2.386539  1.470019  1.576402
   O (  7)  2.095601  3.389553  2.538191  3.581467  1.461920  2.483474
   O (  8)  2.225511  3.610933  2.486136  3.442192  1.457361  2.540644
   H (  9)  5.865878  1.086883  2.059725  2.186813  3.373399  3.288195
   H ( 10)  5.291131  1.088900  2.082084  2.189820  2.935531  2.779057
   H ( 11)  5.415947  2.180057  2.765700  1.085605  2.962812  2.080673
   H ( 12)  5.838836  2.187591  3.286899  1.086926  3.369329  2.060666
             O (  7)   O (  8)   H (  9)   H ( 10)   H ( 11)
   O (  8)  2.409854
   H (  9)  4.361067  4.260052
   H ( 10)  3.376414  4.262992  1.803447
   H ( 11)  4.267746  3.475191  2.444704  3.089146
   H ( 12)  4.204601  4.401649  2.779477  2.458083  1.802288
 
 Requested basis set is 6-31++G(d,p)
 There are 57 shells and 180 basis functions
 A cutoff of  1.0D-12 yielded   1574 shell pairs
 There are     16206 function pairs
 Smallest overlap matrix eigenvalue = 1.31E-04

 -----------------------------------------------------------------------
  General SCF calculation program by
  Eric Jon Sundstrom, Paul Horn, Yuezhi Mao, Dmitri Zuev, Alec White,
  David Stuck, Shaama M.S., Shane Yost, Joonho Lee, David Small,
  Daniel Levine, Susi Lehtola, Hugh Burton, Evgeny Epifanovsky
 -----------------------------------------------------------------------
 Exchange:     0.2220 Hartree-Fock + 1.0000 wB97X-D + LR-HF
 Correlation:  1.0000 wB97X-D
 Using SG-3 standard quadrature grid
 Dispersion:   Grimme D
 using 32 threads for integral computing
 -------------------------------------------------------
 OpenMP Integral computing Module                
 Release: version 1.0, May 2013, Q-Chem Inc. Pittsburgh 
 -------------------------------------------------------
 using 32 threads for integral computing
 -------------------------------------------------------
 OpenMP Integral computing Module                
 Release: version 1.0, May 2013, Q-Chem Inc. Pittsburgh 
 -------------------------------------------------------
 -------------------------------------------------------
 OpenMP BLAS3 based DFT computing Module                
 Release: version 1.0, May 2013, Q-Chem Inc. Pittsburgh 
 -------------------------------------------------------
 A restricted SCF calculation will be
 performed using DIIS, GDM
 SCF converges when RMS gradient is below 1.0e-08
 ---------------------------------------
  Cycle       Energy         DIIS error
 ---------------------------------------
    1    -784.9335819205      2.90e-06  
    2    -784.9335822717      1.27e-06  Done DIIS. Switching to GDM
 ---------------------------------------
  Cycle       Energy        RMS Gradient
 ---------------------------------------
    1    -784.9335822717      2.26e-05   Normal BFGS step
    2    -784.9335822736      2.62e-05   Normal BFGS step
    3    -784.9335822803      2.98e-06   Normal BFGS step
    4    -784.9335822805      1.06e-06   Normal BFGS step
    5    -784.9335822805      4.31e-07   Normal BFGS step
    6    -784.9335822805      3.19e-07   Normal BFGS step
    7    -784.9335822805      1.52e-08   Normal BFGS step
    8    -784.9335822805      1.41e-08   Normal BFGS step
    9    -784.9335822805      1.40e-09  Convergence criterion met
 ---------------------------------------
 SCF time:   CPU 393.93s  wall 15.00s 
(0)  E-EN(g) gas-phase elect-nuc energy                    0.000000000 a.u.
(3)  G-ENP(liq) elect-nuc-pol free energy of system     -784.933582280 a.u.
(4)  G-CDS(liq) cavity-dispersion-solvent structure 
     free energy                                               -0.3959 kcal/mol
(6)  G-S(liq) free energy of system                     -784.934213257 a.u.
(9)  DeltaG-S(liq) free energy of  solvation
     (9) = (6) - (0)                                      -492553.6529 kcal/mol
 SCF   energy in the final basis set =     -784.9335822805
 Total energy in the final basis set =     -784.9342132568
 
 --------------------------------------------------------------
 
                    Orbital Energies (a.u.)
 --------------------------------------------------------------
 
 Alpha MOs
 -- Occupied --
-89.382 -19.389 -19.389 -19.346 -19.345 -10.399 -10.399  -8.366
 -6.318  -6.316  -6.315  -2.164  -1.354  -1.228  -1.208  -1.177
 -0.926  -0.814  -0.778  -0.678  -0.671  -0.637  -0.622  -0.593
 -0.571  -0.540  -0.523  -0.510  -0.490  -0.487  -0.485  -0.440
 -0.429
 -- Virtual --
  0.008   0.017   0.017   0.019   0.042   0.062   0.066   0.068
  0.070   0.085   0.089   0.089   0.093   0.115   0.122   0.133
  0.135   0.135   0.140   0.149   0.171   0.175   0.179   0.195
  0.203   0.204   0.212   0.216   0.216   0.220   0.239   0.247
  0.264   0.273   0.276   0.278   0.292   0.307   0.321   0.342
  0.346   0.351   0.354   0.365   0.383   0.393   0.404   0.405
  0.415   0.422   0.427   0.444   0.471   0.501   0.567   0.581
  0.610   0.644   0.665   0.675   0.684   0.732   0.744   0.764
  0.769   0.783   0.828   0.849   0.865   0.901   1.014   1.018
  1.062   1.103   1.114   1.133   1.142   1.172   1.184   1.238
  1.248   1.251   1.307   1.321   1.332   1.377   1.382   1.405
  1.409   1.424   1.448   1.489   1.493   1.522   1.583   1.642
  1.655   1.667   1.691   1.755   1.798   1.835   1.846   1.861
  1.904   1.914   1.959   1.984   1.986   2.000   2.033   2.062
  2.096   2.112   2.176   2.193   2.213   2.267   2.279   2.346
  2.391   2.411   2.508   2.601   2.642   2.648   2.667   2.740
  2.757   2.810   2.835   2.916   2.935   2.941   2.973   3.116
  3.377   3.395   3.534   3.592   4.063   4.212   4.295   4.308
  4.378   4.530   4.757
 --------------------------------------------------------------
 
          Ground-State Mulliken Net Atomic Charges

     Atom                 Charge (a.u.)
  ----------------------------------------
      1 Li                    0.770907
      2 C                    -0.151717
      3 O                    -0.530376
      4 C                    -0.148310
      5 S                     1.791044
      6 O                    -0.535433
      7 O                    -0.593673
      8 O                    -0.588635
      9 H                     0.256040
     10 H                     0.237710
     11 H                     0.237507
     12 H                     0.254936
  ----------------------------------------
  Sum of atomic charges =     1.000000

 -----------------------------------------------------------------
                    Cartesian Multipole Moments
 -----------------------------------------------------------------
    Charge (ESU x 10^10)
                 4.8032
    Dipole Moment (Debye)
         X       3.5138      Y       0.1568      Z      -0.4599
       Tot       3.5472
    Quadrupole Moments (Debye-Ang)
        XX       6.5765     XY       0.4688     YY     -46.1934
        XZ      -1.2017     YZ       0.3526     ZZ     -50.3582
    Octopole Moments (Debye-Ang^2)
       XXX     112.3618    XXY       1.7769    XYY      -2.2431
       YYY       1.0900    XXZ      -5.2792    XYZ       2.8844
       YYZ      -1.2272    XZZ      -6.4141    YZZ       0.2495
       ZZZ      -3.7383
    Hexadecapole Moments (Debye-Ang^3)
      XXXX       6.2619   XXXY       4.8108   XXYY     -97.3451
      XYYY      -0.3089   YYYY    -189.1892   XXXZ     -15.4790
      XXYZ       8.3248   XYYZ      -0.4853   YYYZ      -0.0807
      XXZZ    -110.2256   XYZZ       0.4178   YYZZ     -55.5503
      XZZZ      -2.0795   YZZZ       0.9453   ZZZZ    -161.7267
 -----------------------------------------------------------------
 Calculating analytic gradient of the SCF energy
 Gradient of CDS energy
            1           2           3           4           5           6
    1   0.0000591  -0.0004767   0.0001895  -0.0004471  -0.0000264   0.0001872
    2   0.0000020   0.0010600  -0.0001521  -0.0010683   0.0000164   0.0001549
    3  -0.0000068  -0.0000435  -0.0000869   0.0000613  -0.0000286   0.0000882
            7           8           9          10          11          12
    1  -0.0001268  -0.0001336   0.0001843   0.0002333   0.0001697   0.0001876
    2  -0.0000277   0.0000240  -0.0001061  -0.0001254   0.0001275   0.0000948
    3   0.0000971  -0.0000884   0.0000385   0.0000547  -0.0000677  -0.0000180
 Gradient of SCF Energy
            1           2           3           4           5           6
    1   0.0063200   0.0418758  -0.0266491   0.0438702  -0.0058775  -0.0260663
    2   0.0000156  -0.0309133   0.0237689   0.0279989  -0.0003453  -0.0237125
    3  -0.0003200   0.0200849   0.0048317  -0.0150814  -0.0004167  -0.0056992
            7           8           9          10          11          12
    1   0.0196577   0.0204090  -0.0317535  -0.0043600  -0.0074162  -0.0300100
    2   0.0145757  -0.0142534   0.0171201   0.0140718  -0.0116069  -0.0167197
    3  -0.0407100   0.0418213   0.0294847  -0.0405016   0.0379880  -0.0314817
 Max gradient component =       4.387E-02
 RMS gradient           =       2.424E-02
 Computing VTN gradient.
 Updating gradient with PCM contributions...
 -- total gradient after adding PCM contribution --
---------------------------------------------------
  Atom         X              Y              Z     
---------------------------------------------------
   1      -0.000015       0.000121      -0.000002
   2      -0.000074       0.000014       0.000063
   3      -0.000017      -0.000031       0.000085
   4       0.000063      -0.000013      -0.000039
   5       0.000092      -0.000035      -0.000080
   6      -0.000015       0.000027      -0.000091
   7      -0.000021       0.000090      -0.000014
   8      -0.000021      -0.000100      -0.000046
   9       0.000008      -0.000072       0.000126
  10       0.000083       0.000043       0.000131
  11      -0.000052      -0.000089      -0.000078
  12      -0.000031       0.000046      -0.000055
---------------------------------------------------
 Number of fixed atoms: 0
 Gradient time:  CPU 77.46 s  wall 3.43 s
 ----------------------------------------------------------------
             Standard Nuclear Orientation (Angstroms)
    I     Atom           X                Y                Z
 ----------------------------------------------------------------
    1      Li      3.1357477530     0.0359551915    -0.0891930134
    2      C      -1.8531646202     0.7561512685    -0.0173473504
    3      O      -0.5136837173     1.0895878468     0.4894923796
    4      C      -1.8652472671    -0.7605344597     0.0032027763
    5      S       0.5220386713    -0.0095032771     0.0391863365
    6      O      -0.5016991777    -1.1200983752    -0.4120139294
    7      O       1.3377261947     0.3985260854    -1.1033446746
    8      O       1.3539207455    -0.4042100746     1.1688239557
    9      H      -2.5618876308     1.1997503530     0.6770927759
   10      H      -1.9471410549     1.1747744909    -1.0181605671
   11      H      -2.0324818310    -1.1654770112     0.9964760521
   12      H      -2.5357005267    -1.1948157770    -0.7338856301
 ----------------------------------------------------------------
 Nuclear Repulsion Energy =   484.1973150991 hartrees
 There are       33 alpha and       33 beta electrons
 Discretize the solute cavity surface with Lebedev spheres
	Using 302 Lebedev grid points for each H atom
	Using 302 Lebedev grid points for other atoms
	Atomic van der Waals radii will be scaled by 1.20
 Removing interior tesserae...
 Keep 1145 surface tesserae and discard 2479 interior tesserae
 Molecular Surface Area = 164.340 Angst**2

                       Distance Matrix (Angstroms)
             Li(  1)   C (  2)   O (  3)   C (  4)   S (  5)   O (  6)
   C (  2)  5.041140
   O (  3)  3.842313  1.470468
   C (  4)  5.064868  1.516873  2.342254
   S (  5)  2.617255  2.496200  1.575912  2.502894
   O (  6)  3.830365  2.345748  2.386539  1.470019  1.576402
   O (  7)  2.095911  3.389553  2.538191  3.581467  1.461920  2.483474
   O (  8)  2.225143  3.610933  2.486136  3.442192  1.457361  2.540644
   H (  9)  5.865549  1.086883  2.059725  2.186813  3.373399  3.288195
   H ( 10)  5.291091  1.088900  2.082084  2.189820  2.935531  2.779057
   H ( 11)  5.415968  2.180057  2.765700  1.085605  2.962812  2.080673
   H ( 12)  5.839157  2.187591  3.286899  1.086926  3.369329  2.060666
             O (  7)   O (  8)   H (  9)   H ( 10)   H ( 11)
   O (  8)  2.409854
   H (  9)  4.361067  4.260052
   H ( 10)  3.376414  4.262992  1.803447
   H ( 11)  4.267746  3.475191  2.444704  3.089146
   H ( 12)  4.204601  4.401649  2.779477  2.458083  1.802288
 
 Requested basis set is 6-31++G(d,p)
 There are 57 shells and 180 basis functions
 A cutoff of  1.0D-12 yielded   1574 shell pairs
 There are     16206 function pairs
 Smallest overlap matrix eigenvalue = 1.31E-04

 -----------------------------------------------------------------------
  General SCF calculation program by
  Eric Jon Sundstrom, Paul Horn, Yuezhi Mao, Dmitri Zuev, Alec White,
  David Stuck, Shaama M.S., Shane Yost, Joonho Lee, David Small,
  Daniel Levine, Susi Lehtola, Hugh Burton, Evgeny Epifanovsky
 -----------------------------------------------------------------------
 Exchange:     0.2220 Hartree-Fock + 1.0000 wB97X-D + LR-HF
 Correlation:  1.0000 wB97X-D
 Using SG-3 standard quadrature grid
 Dispersion:   Grimme D
 using 32 threads for integral computing
 -------------------------------------------------------
 OpenMP Integral computing Module                
 Release: version 1.0, May 2013, Q-Chem Inc. Pittsburgh 
 -------------------------------------------------------
 using 32 threads for integral computing
 -------------------------------------------------------
 OpenMP Integral computing Module                
 Release: version 1.0, May 2013, Q-Chem Inc. Pittsburgh 
 -------------------------------------------------------
 -------------------------------------------------------
 OpenMP BLAS3 based DFT computing Module                
 Release: version 1.0, May 2013, Q-Chem Inc. Pittsburgh 
 -------------------------------------------------------
 A restricted SCF calculation will be
 performed using DIIS, GDM
 SCF converges when RMS gradient is below 1.0e-08
 ---------------------------------------
  Cycle       Energy         DIIS error
 ---------------------------------------
    1    -784.9335840267      2.08e-06  
    2    -784.9335820385      9.65e-07  Done DIIS. Switching to GDM
 ---------------------------------------
  Cycle       Energy        RMS Gradient
 ---------------------------------------
    1    -784.9335820385      1.84e-05   Normal BFGS step
    2    -784.9335820389      2.04e-05   Normal BFGS step
    3    -784.9335820433      1.87e-06   Normal BFGS step
    4    -784.9335820433      6.20e-07   Normal BFGS step
    5    -784.9335820433      2.07e-07   Normal BFGS step
    6    -784.9335820433      1.79e-07   Normal BFGS step
    7    -784.9335820433      1.17e-08   Normal BFGS step
    8    -784.9335820433      1.02e-08   Normal BFGS step
    9    -784.9335820433      1.25e-09  Convergence criterion met
 ---------------------------------------
 SCF time:   CPU 392.79s  wall 15.00s 
(0)  E-EN(g) gas-phase elect-nuc energy                    0.000000000 a.u.
(3)  G-ENP(liq) elect-nuc-pol free energy of system     -784.933582043 a.u.
(4)  G-CDS(liq) cavity-dispersion-solvent structure 
     free energy                                               -0.3959 kcal/mol
(6)  G-S(liq) free energy of system                     -784.934213020 a.u.
(9)  DeltaG-S(liq) free energy of  solvation
     (9) = (6) - (0)                                      -492553.6528 kcal/mol
 SCF   energy in the final basis set =     -784.9335820433
 Total energy in the final basis set =     -784.9342130196
 
 --------------------------------------------------------------
 
                    Orbital Energies (a.u.)
 --------------------------------------------------------------
 
 Alpha MOs
 -- Occupied --
-89.382 -19.389 -19.389 -19.346 -19.345 -10.399 -10.399  -8.366
 -6.318  -6.316  -6.315  -2.164  -1.354  -1.228  -1.208  -1.177
 -0.926  -0.814  -0.778  -0.678  -0.671  -0.637  -0.622  -0.593
 -0.571  -0.540  -0.523  -0.510  -0.490  -0.487  -0.485  -0.440
 -0.429
 -- Virtual --
  0.008   0.017   0.017   0.019   0.042   0.062   0.066   0.068
  0.070   0.085   0.089   0.089   0.093   0.115   0.122   0.133
  0.135   0.135   0.140   0.149   0.171   0.175   0.179   0.195
  0.203   0.204   0.212   0.216   0.216   0.220   0.239   0.247
  0.264   0.272   0.276   0.278   0.292   0.307   0.321   0.342
  0.346   0.351   0.354   0.365   0.383   0.393   0.404   0.405
  0.415   0.422   0.427   0.444   0.471   0.501   0.567   0.581
  0.610   0.644   0.665   0.675   0.684   0.732   0.744   0.764
  0.769   0.783   0.828   0.849   0.865   0.901   1.014   1.018
  1.062   1.103   1.114   1.132   1.142   1.172   1.184   1.238
  1.248   1.251   1.307   1.321   1.332   1.377   1.382   1.405
  1.409   1.424   1.448   1.489   1.493   1.522   1.583   1.642
  1.655   1.667   1.691   1.755   1.798   1.835   1.846   1.861
  1.904   1.914   1.959   1.984   1.986   2.000   2.033   2.062
  2.096   2.112   2.176   2.193   2.213   2.267   2.279   2.346
  2.391   2.411   2.508   2.601   2.642   2.648   2.667   2.740
  2.757   2.810   2.835   2.916   2.935   2.941   2.973   3.116
  3.377   3.395   3.534   3.592   4.063   4.212   4.295   4.308
  4.378   4.530   4.757
 --------------------------------------------------------------
 
          Ground-State Mulliken Net Atomic Charges

     Atom                 Charge (a.u.)
  ----------------------------------------
      1 Li                    0.770899
      2 C                    -0.151776
      3 O                    -0.530366
      4 C                    -0.148261
      5 S                     1.791077
      6 O                    -0.535444
      7 O                    -0.593690
      8 O                    -0.588631
      9 H                     0.256039
     10 H                     0.237709
     11 H                     0.237505
     12 H                     0.254938
  ----------------------------------------
  Sum of atomic charges =     1.000000

 -----------------------------------------------------------------
                    Cartesian Multipole Moments
 -----------------------------------------------------------------
    Charge (ESU x 10^10)
                 4.8032
    Dipole Moment (Debye)
         X       3.5137      Y       0.1611      Z      -0.4558
       Tot       3.5468
    Quadrupole Moments (Debye-Ang)
        XX       6.5764     XY       0.4831     YY     -46.1931
        XZ      -1.1879     YZ       0.3524     ZZ     -50.3590
    Octopole Moments (Debye-Ang^2)
       XXX     112.3612    XXY       1.8221    XYY      -2.2422
       YYY       1.0877    XXZ      -5.2351    XYZ       2.8836
       YYZ      -1.2277    XZZ      -6.4168    YZZ       0.2486
       ZZZ      -3.7409
    Hexadecapole Moments (Debye-Ang^3)
      XXXX       6.2613   XXXY       4.9514   XXYY     -97.3419
      XYYY      -0.3144   YYYY    -189.1894   XXXZ     -15.3403
      XXYZ       8.3223   XYYZ      -0.4867   YYYZ      -0.0806
      XXZZ    -110.2339   XYZZ       0.4160   YYZZ     -55.5502
      XZZZ      -2.0860   YZZZ       0.9454   ZZZZ    -161.7259
 -----------------------------------------------------------------
 Calculating analytic gradient of the SCF energy
 Gradient of CDS energy
            1           2           3           4           5           6
    1   0.0000591  -0.0004767   0.0001895  -0.0004471  -0.0000264   0.0001872
    2   0.0000020   0.0010600  -0.0001521  -0.0010683   0.0000164   0.0001549
    3  -0.0000068  -0.0000435  -0.0000869   0.0000613  -0.0000286   0.0000882
            7           8           9          10          11          12
    1  -0.0001268  -0.0001336   0.0001843   0.0002333   0.0001697   0.0001876
    2  -0.0000277   0.0000240  -0.0001061  -0.0001254   0.0001275   0.0000948
    3   0.0000971  -0.0000884   0.0000385   0.0000547  -0.0000677  -0.0000180
 Gradient of SCF Energy
            1           2           3           4           5           6
    1   0.0063215   0.0418761  -0.0266474   0.0438695  -0.0058668  -0.0260692
    2   0.0000282  -0.0309131   0.0237709   0.0279991  -0.0003427  -0.0237106
    3  -0.0003142   0.0200844   0.0048260  -0.0150819  -0.0003737  -0.0057041
            7           8           9          10          11          12
    1   0.0196542   0.0204025  -0.0317538  -0.0043604  -0.0074160  -0.0300101
    2   0.0145656  -0.0142645   0.0171206   0.0140724  -0.0116065  -0.0167194
    3  -0.0407314   0.0418028   0.0294855  -0.0405013   0.0379887  -0.0314809
 Max gradient component =       4.387E-02
 RMS gradient           =       2.424E-02
 Computing VTN gradient.
 Updating gradient with PCM contributions...
 -- total gradient after adding PCM contribution --
---------------------------------------------------
  Atom         X              Y              Z     
---------------------------------------------------
   1      -0.000014       0.000124      -0.000001
   2      -0.000074       0.000014       0.000063
   3      -0.000015      -0.000031       0.000081
   4       0.000063      -0.000013      -0.000039
   5       0.000096      -0.000030      -0.000050
   6      -0.000017       0.000027      -0.000094
   7      -0.000021       0.000086      -0.000026
   8      -0.000026      -0.000105      -0.000058
   9       0.000008      -0.000072       0.000126
  10       0.000083       0.000042       0.000131
  11      -0.000052      -0.000089      -0.000078
  12      -0.000031       0.000046      -0.000055
---------------------------------------------------
 Number of fixed atoms: 0
 Gradient time:  CPU 77.46 s  wall 3.47 s
 ----------------------------------------------------------------
             Standard Nuclear Orientation (Angstroms)
    I     Atom           X                Y                Z
 ----------------------------------------------------------------
    1      Li      3.1357477530     0.0359551915    -0.0911930134
    2      C      -1.8531646202     0.7561512685    -0.0173473504
    3      O      -0.5136837173     1.0895878468     0.4894923796
    4      C      -1.8652472671    -0.7605344597     0.0032027763
    5      S       0.5220386713    -0.0095032771     0.0391863365
    6      O      -0.5016991777    -1.1200983752    -0.4120139294
    7      O       1.3377261947     0.3985260854    -1.1033446746
[...]
     6    8.439434251177788e-03   5.722709192911160e-03   8.955544516640650e-03
     7    6.186711444248708e-04   6.916793985118790e-04  -4.096261116872382e-04
     8    9.996634056410538e-04   5.220570753108032e-04   1.029090905839253e-03
     9   -1.184876536168237e-04   1.759928901698729e-05   2.013957612958223e-04
    10    2.934887074933841e-04  -2.019676937674104e-04   5.403849840241143e-04
    11   -1.609761152544068e-02  -1.106744614187845e-02  -1.352394499574639e-02
    12    1.271384460945476e-01   8.669589324256169e-02   1.955114726983322e-01




 # Finishing finite difference calculation for IDERIV #
 ######################################################
 ######################################################
 Requested basis set is 6-31++G(d,p)
 There are 57 shells and 180 basis functions
 **********************************************************************
 **                                                                  **
 **                       VIBRATIONAL ANALYSIS                       **
 **                       --------------------                       **
 **                                                                  **
 **        VIBRATIONAL FREQUENCIES (CM**-1) AND NORMAL MODES         **
 **     FORCE CONSTANTS (mDYN/ANGSTROM) AND REDUCED MASSES (AMU)     **
 **                  INFRARED INTENSITIES (KM/MOL)                   **
 **                                                                  **
 **********************************************************************
 

 Mode:                 1                      2                      3
 Frequency:       -67.45                  74.00                 229.11
 Force Cnst:      0.0222                 0.0238                 0.1779
 Red. Mass:       8.2805                 7.3916                 5.7532
 IR Active:          YES                    YES                    YES
 IR Intens:       77.527                 97.448                 23.457
 Raman Active:       YES                    YES                    YES
               X      Y      Z        X      Y      Z        X      Y      Z
 Li        -0.111 -0.343  0.842    0.009  0.814  0.326   -0.071  0.023 -0.108
 C         -0.009 -0.027  0.070    0.065  0.099  0.039    0.095  0.090 -0.165
 O          0.002 -0.023  0.047    0.102 -0.021 -0.012   -0.025 -0.125  0.233
 C          0.006 -0.027  0.065   -0.069  0.099  0.040   -0.068  0.082 -0.268
 S         -0.001  0.048 -0.117    0.000 -0.113 -0.046    0.002 -0.031  0.073
 O          0.005 -0.017  0.045   -0.101 -0.030  0.004    0.021 -0.083  0.147
 O         -0.103  0.065 -0.161   -0.008 -0.146 -0.064   -0.194 -0.038 -0.066
 O          0.147  0.077 -0.186    0.007 -0.116 -0.051    0.205  0.133 -0.015
 H          0.002 -0.030  0.083    0.123  0.149  0.069   -0.022  0.064 -0.265
 H         -0.017 -0.030  0.073    0.052  0.110  0.044    0.227  0.272 -0.135
 H          0.025 -0.033  0.064   -0.076  0.108  0.045   -0.303  0.102 -0.295
 H         -0.001 -0.028  0.072   -0.120  0.160  0.051    0.083  0.161 -0.453
 TransDip  -0.076 -0.100  0.253    0.004  0.292  0.121   -0.025  0.077 -0.132

 Mode:                 4                      5                      6
 Frequency:       300.94                 316.72                 418.42
 Force Cnst:      0.4680                 0.4231                 0.3339
 Red. Mass:       8.7709                 7.1588                 3.2368
 IR Active:          YES                    YES                    YES
 IR Intens:        4.070                257.882                 23.560
 Raman Active:       YES                    YES                    YES
               X      Y      Z        X      Y      Z        X      Y      Z
 Li        -0.137  0.026 -0.028    0.957 -0.032  0.056   -0.021  0.006 -0.008
 C          0.068  0.022 -0.253   -0.059  0.005 -0.025   -0.139 -0.003  0.170
 O          0.016  0.082 -0.173   -0.082 -0.015  0.014    0.007  0.070 -0.147
 C         -0.001  0.043  0.105   -0.083  0.008 -0.007   -0.094 -0.052 -0.188
 S         -0.003 -0.017  0.029   -0.014  0.007 -0.014    0.016  0.029  0.011
 O          0.031 -0.138  0.288   -0.072 -0.029  0.077   -0.009 -0.013  0.163
 O         -0.093  0.375  0.110   -0.082  0.058 -0.032    0.094 -0.038  0.035
 O          0.061 -0.353 -0.135   -0.029 -0.027 -0.023    0.087 -0.035 -0.054
 H          0.008  0.175 -0.407   -0.077  0.020 -0.052    0.018 -0.178  0.436
 H          0.035 -0.137 -0.354   -0.059  0.001 -0.034   -0.226  0.152  0.290
 H         -0.058  0.169  0.190   -0.132  0.022 -0.004   -0.301 -0.158 -0.305
 H          0.037 -0.110  0.161   -0.057  0.003 -0.029    0.076  0.140 -0.461
 TransDip  -0.053  0.016 -0.033    0.514  0.006 -0.011   -0.139  0.065 -0.025

 Mode:                 7                      8                      9
 Frequency:       452.65                 458.62                 515.96
 Force Cnst:      1.3327                 0.9450                 2.3711
 Red. Mass:      11.0395                 7.6257                15.1169
 IR Active:          YES                    YES                    YES
 IR Intens:       42.371                 25.429                 71.669
 Raman Active:       YES                    YES                    YES
               X      Y      Z        X      Y      Z        X      Y      Z
 Li        -0.022 -0.041 -0.046    0.003  0.049  0.007   -0.082  0.052 -0.103
 C         -0.069  0.061 -0.018   -0.192 -0.070 -0.204    0.035  0.014 -0.037
 O         -0.049 -0.262 -0.071   -0.199  0.014  0.094   -0.123 -0.172  0.395
 C         -0.289  0.108  0.134   -0.043 -0.009  0.093   -0.042  0.026  0.034
 S          0.021 -0.178 -0.080    0.010  0.103  0.091    0.008  0.159 -0.258
 O         -0.212 -0.076 -0.073   -0.057  0.238 -0.054    0.073 -0.107  0.392
 O          0.312  0.248  0.248    0.146 -0.231  0.055    0.451 -0.043 -0.086
 O          0.222  0.309 -0.034    0.289 -0.168 -0.178   -0.371 -0.060 -0.122
 H          0.035  0.231 -0.011   -0.299  0.057 -0.389   -0.115  0.036 -0.201
 H         -0.077  0.010 -0.045   -0.105 -0.184 -0.295    0.139  0.103 -0.048
 H         -0.171  0.152  0.190    0.081  0.059  0.166   -0.172  0.088  0.058
 H         -0.357  0.040  0.238   -0.039 -0.276  0.246    0.100 -0.044 -0.054
 TransDip  -0.160 -0.130 -0.030   -0.136  0.069  0.054   -0.043  0.162 -0.213

 Mode:                10                     11                     12
 Frequency:       664.76                 680.28                 801.02
 Force Cnst:      3.6528                 1.1717                 3.7475
 Red. Mass:      14.0298                 4.2973                 9.9129
 IR Active:          YES                    YES                    YES
 IR Intens:       31.055                  4.343                  8.394
 Raman Active:       YES                    YES                    YES
               X      Y      Z        X      Y      Z        X      Y      Z
 Li        -0.115 -0.007  0.018   -0.008  0.011 -0.011    0.067  0.002 -0.003
 C         -0.216 -0.023 -0.048    0.223 -0.215 -0.025    0.188 -0.017  0.014
 O         -0.042 -0.380 -0.140    0.162  0.059  0.038    0.097 -0.364 -0.177
 C         -0.173  0.060  0.031   -0.201 -0.203  0.005    0.207  0.002 -0.025
 S          0.320 -0.009  0.003    0.012  0.071  0.011   -0.200 -0.004 -0.000
 O         -0.029  0.376  0.129   -0.190  0.091  0.011    0.052  0.377  0.175
 O         -0.118  0.121 -0.325    0.011  0.027 -0.009   -0.070 -0.065  0.207
 O         -0.091 -0.123  0.329   -0.011  0.020  0.006   -0.071  0.073 -0.201
 H          0.058  0.150  0.128    0.184  0.109 -0.279    0.404  0.031  0.187
 H         -0.255  0.001 -0.026    0.220 -0.435 -0.163    0.115  0.065  0.060
 H         -0.180  0.066  0.034   -0.354 -0.315 -0.110    0.171 -0.014 -0.045
 H          0.077 -0.240 -0.025   -0.194  0.156 -0.229    0.383 -0.130 -0.098
 TransDip   0.178 -0.011  0.004    0.049 -0.020 -0.040   -0.093  0.004 -0.006

 Mode:                13                     14                     15
 Frequency:       839.76                 915.10                 932.64
 Force Cnst:      3.3990                 1.8748                 2.1151
 Red. Mass:       8.1806                 3.7999                 4.1271
 IR Active:          YES                    YES                    YES
 IR Intens:      301.209                 42.299                233.128
 Raman Active:       YES                    YES                    YES
               X      Y      Z        X      Y      Z        X      Y      Z
 Li         0.002  0.014  0.009    0.007  0.001  0.000    0.021  0.001 -0.001
 C         -0.038  0.039 -0.042   -0.237  0.012 -0.145   -0.079  0.156 -0.002
 O          0.137 -0.304 -0.119    0.261  0.048  0.104    0.116 -0.008  0.016
 C          0.010  0.038  0.008    0.109 -0.092 -0.073   -0.297 -0.144  0.053
 S         -0.005  0.306  0.114   -0.012 -0.031 -0.017   -0.042  0.007  0.005
 O         -0.111 -0.307 -0.126   -0.144  0.027  0.046    0.283  0.011 -0.052
 O         -0.005 -0.052 -0.006    0.009  0.036  0.014   -0.026 -0.024  0.021
 O          0.004 -0.057 -0.008   -0.017  0.036  0.006   -0.018 -0.001 -0.030
 H          0.363  0.103  0.322   -0.081 -0.197  0.139    0.149  0.625 -0.049
 H          0.025  0.346  0.106   -0.134  0.389  0.013    0.029  0.066 -0.064
 H          0.017  0.191  0.125    0.170  0.069  0.061   -0.122 -0.180  0.061
 H         -0.331  0.085  0.294    0.146 -0.667  0.223   -0.026 -0.528  0.023
 TransDip  -0.042  0.529  0.164   -0.166 -0.069 -0.105   -0.488 -0.023  0.026

 Mode:                16                     17                     18
 Frequency:      1027.50                1059.95                1199.55
 Force Cnst:      1.9590                 0.9455                 9.3182
 Red. Mass:       3.1493                 1.4283                10.9913
 IR Active:          YES                    YES                    YES
 IR Intens:      289.390                 46.860                494.723
 Raman Active:       YES                    YES                    YES
               X      Y      Z        X      Y      Z        X      Y      Z
 Li         0.013  0.000 -0.003   -0.001  0.002 -0.004   -0.040  0.002  0.001
 C         -0.139 -0.221 -0.032   -0.111  0.063  0.032   -0.018 -0.008  0.082
 O          0.162 -0.016  0.023    0.038 -0.031  0.009   -0.037  0.031  0.009
 C         -0.080  0.223  0.029    0.110 -0.043  0.042   -0.043  0.039 -0.091
 S         -0.027 -0.002 -0.002    0.003 -0.000 -0.003    0.342  0.021 -0.033
 O          0.139  0.009 -0.003   -0.030 -0.019 -0.003   -0.054 -0.045 -0.007
 O         -0.021 -0.010  0.023   -0.004  0.002  0.007   -0.272 -0.136  0.379
 O         -0.022  0.014 -0.024   -0.002  0.006 -0.004   -0.234  0.106 -0.311
 H         -0.316 -0.411 -0.097   -0.131  0.555 -0.285   -0.242  0.144 -0.228
 H         -0.100 -0.281 -0.055   -0.096 -0.354 -0.186   -0.035 -0.208 -0.016
 H         -0.096  0.198  0.003   -0.078 -0.208 -0.120    0.059  0.124 -0.003
 H         -0.225  0.594 -0.049    0.196  0.430 -0.318   -0.162 -0.399  0.271
 TransDip  -0.543  0.012 -0.043    0.075  0.159 -0.130    0.710  0.018 -0.061

 Mode:                19                     20                     21
 Frequency:      1225.61                1274.67                1291.92
 Force Cnst:      1.4561                 1.1100                19.3485
 Red. Mass:       1.6452                 1.1595                19.6757
 IR Active:          YES                    YES                    YES
 IR Intens:        6.986                 11.002                437.669
 Raman Active:       YES                    YES                    YES
               X      Y      Z        X      Y      Z        X      Y      Z
 Li        -0.002 -0.002  0.001    0.000 -0.001  0.002   -0.000 -0.017  0.046
 C         -0.011  0.044 -0.138   -0.014 -0.054 -0.034   -0.014  0.009  0.009
 O         -0.018  0.012  0.017   -0.019  0.025  0.038   -0.003  0.004 -0.030
 C          0.001 -0.077  0.144    0.004  0.070 -0.029    0.007 -0.017 -0.005
 S          0.031 -0.007 -0.005   -0.002 -0.006  0.003    0.048 -0.168  0.486
 O          0.014  0.009 -0.026   -0.002 -0.014 -0.006   -0.003  0.004 -0.023
 O         -0.025 -0.014  0.034    0.003  0.001 -0.001    0.265  0.153 -0.429
 O         -0.024  0.013 -0.029   -0.004  0.003 -0.005   -0.339  0.179 -0.516
 H          0.258 -0.365  0.384    0.645  0.259  0.426   -0.075  0.022 -0.054
 H         -0.081  0.355  0.041   -0.277 -0.417 -0.130    0.039  0.057  0.018
 H         -0.342 -0.121  0.043   -0.006  0.090 -0.017    0.006 -0.006  0.004
 H          0.164  0.448 -0.320    0.151 -0.153 -0.029   -0.120  0.071  0.062
 TransDip   0.077 -0.018  0.031    0.096 -0.039 -0.024    0.067 -0.221  0.629

 Mode:                22                     23                     24
 Frequency:      1298.80                1418.32                1583.11
 Force Cnst:      1.1750                 1.5667                 1.6783
 Red. Mass:       1.1822                 1.3219                 1.1366
 IR Active:          YES                    YES                    YES
 IR Intens:       21.964                  5.107                  4.636
 Raman Active:       YES                    YES                    YES
               X      Y      Z        X      Y      Z        X      Y      Z
 Li         0.000  0.001 -0.002   -0.000  0.001 -0.001    0.000 -0.001  0.002
 C          0.021 -0.026  0.041   -0.046 -0.151  0.001    0.005 -0.013 -0.020
 O          0.011 -0.005 -0.013   -0.025  0.028 -0.006    0.003  0.001 -0.003
 C         -0.015  0.072  0.056    0.024  0.021  0.008   -0.082  0.041  0.031
 S         -0.004  0.011  0.006    0.003 -0.010 -0.006    0.006  0.006  0.005
 O         -0.020 -0.025 -0.040    0.005  0.003  0.000   -0.023 -0.018  0.008
 O          0.003 -0.000 -0.006   -0.003  0.002  0.005   -0.002 -0.005  0.002
 O          0.000 -0.002 -0.004   -0.001  0.002 -0.002   -0.004  0.002 -0.003
 H         -0.187 -0.094 -0.129    0.248  0.572 -0.141    0.002 -0.043 -0.005
 H          0.082 -0.008  0.037    0.330  0.607  0.265    0.027  0.087  0.022
 H         -0.405  0.153  0.040   -0.046  0.074  0.033    0.829 -0.285 -0.040
 H          0.680 -0.427 -0.289    0.014  0.087 -0.017    0.313  0.028 -0.332
 TransDip   0.041  0.034  0.140    0.049  0.040 -0.035    0.016  0.066 -0.011

 Mode:                25                     26                     27
 Frequency:      1768.11                1896.97                3222.25
 Force Cnst:      2.0687                 2.2725                 6.6560
 Red. Mass:       1.1231                 1.0719                 1.0881
 IR Active:          YES                    YES                    YES
 IR Intens:       10.686                  8.401                  3.632
 Raman Active:       YES                    YES                    YES
               X      Y      Z        X      Y      Z        X      Y      Z
 Li         0.000  0.000  0.001   -0.000  0.003 -0.005   -0.000  0.000 -0.000
 C          0.000  0.007  0.021   -0.066  0.016  0.030   -0.057  0.036  0.049
 O          0.002 -0.001  0.004   -0.008  0.002 -0.006   -0.000 -0.000  0.000
 C         -0.020 -0.086 -0.046    0.002 -0.002 -0.001   -0.011 -0.008 -0.011
 S          0.001 -0.001 -0.000    0.002 -0.001 -0.002    0.001 -0.000 -0.000
 O         -0.000  0.009 -0.005   -0.004  0.002  0.004    0.000 -0.000 -0.000
 O          0.000  0.004  0.002   -0.003  0.004  0.000   -0.000  0.000 -0.000
 O         -0.000 -0.004 -0.001    0.001 -0.001 -0.004    0.000 -0.000 -0.000
 H         -0.016  0.024 -0.003    0.072 -0.125  0.273    0.633 -0.386 -0.630
 H         -0.032 -0.063 -0.003    0.840 -0.147 -0.415    0.031 -0.025  0.049
 H          0.191  0.688  0.594    0.013  0.005  0.006    0.002  0.004 -0.001
 H          0.054  0.182 -0.290   -0.001  0.003 -0.004    0.128  0.084  0.138
 TransDip   0.076  0.017  0.070    0.035 -0.078  0.037    0.035  0.001 -0.050

 Mode:                28                     29                     30
 Frequency:      3224.73                3739.52                5897.95
 Force Cnst:      6.6650                 8.9455                22.1963
 Red. Mass:       1.0878                 1.0857                 1.0830
 IR Active:          YES                    YES                    YES
 IR Intens:        9.302                  6.173                 11.341
 Raman Active:       YES                    YES                    YES
               X      Y      Z        X      Y      Z        X      Y      Z
 Li         0.000 -0.000  0.000   -0.000  0.002 -0.003   -0.000 -0.001 -0.000
 C          0.012 -0.007 -0.010   -0.021  0.035 -0.073   -0.000 -0.000 -0.002
 O          0.001  0.000  0.000   -0.001 -0.001  0.002    0.000  0.001 -0.003
 C         -0.052 -0.036 -0.054    0.001 -0.002  0.000    0.013  0.051 -0.063
 S          0.000  0.000  0.000    0.000 -0.000 -0.001   -0.000 -0.000 -0.000
 O         -0.001  0.000 -0.000   -0.003  0.001  0.002   -0.000 -0.001  0.002
 O         -0.000 -0.000  0.000   -0.001  0.002 -0.000    0.000 -0.003 -0.001
 O         -0.000 -0.000  0.000    0.001 -0.001 -0.002    0.000  0.003  0.001
 H         -0.135  0.080  0.133   -0.027  0.013  0.044    0.001  0.002 -0.002
 H         -0.008  0.007 -0.016    0.325 -0.442  0.830    0.001 -0.003 -0.002
 H          0.007  0.016 -0.010    0.003 -0.003 -0.001   -0.155 -0.597  0.782
 H          0.609  0.390  0.653    0.001  0.004  0.004    0.003 -0.000  0.008
 TransDip   0.019  0.035  0.089   -0.055  0.029 -0.050    0.055 -0.072 -0.058

 STANDARD THERMODYNAMIC QUANTITIES AT   298.15 K  AND     1.00 ATM

   This Molecule has  1 Imaginary Frequencies
   Zero point vibrational energy:       55.366 kcal/mol

   Atom    1 Element Li Has Mass    7.01600
   Atom    2 Element C  Has Mass   12.00000
   Atom    3 Element O  Has Mass   15.99491
   Atom    4 Element C  Has Mass   12.00000
   Atom    5 Element S  Has Mass   31.97207
   Atom    6 Element O  Has Mass   15.99491
   Atom    7 Element O  Has Mass   15.99491
   Atom    8 Element O  Has Mass   15.99491
   Atom    9 Element H  Has Mass    1.00783
   Atom   10 Element H  Has Mass    1.00783
   Atom   11 Element H  Has Mass    1.00783
   Atom   12 Element H  Has Mass    1.00783
   Molecular Mass:   130.999030 amu
   Principal axes and moments of inertia in amu*Bohr^2:
                             1           2           3
    Eigenvalues --      409.40232  1063.62094  1109.04892
          X               0.99999    -0.00404     0.00106
          Y               0.00408     0.99939    -0.03476
          Z              -0.00092     0.03476     0.99940
   Rotational Symmetry Number is   1
   The Molecule is an Asymmetric Top
   Translational Enthalpy:        0.889 kcal/mol
   Rotational Enthalpy:           0.889 kcal/mol
   Vibrational Enthalpy:         57.737 kcal/mol
   gas constant (RT):             0.592 kcal/mol
   Translational Entropy:        40.523  cal/mol.K
   Rotational Entropy:           27.670  cal/mol.K
   Vibrational Entropy:          13.415  cal/mol.K

   Total Enthalpy:               60.107 kcal/mol
   Total Entropy:                81.607  cal/mol.K
Archival summary:
1\1\nid01014\FREQ\ProcedureUnspecified\BasisUnspecified\142i14(1+,1)\sblau\FriDec2815:52:402018FriDec2815:52:402018\0\\#,FREQ,ProcedureUnspecified,BasisUnspecified,\\1,1\S\O,1,1.45736\O,1,1.46192,2,111.277\O,1,1.57591,2,110.033,3,-126.413,0\C,4,1.47047,1,110.001,2,-133.576,0\H,5,1.08688,4,106.332,1,152.46,0\H,5,1.0889,4,107.953,1,-87.2293,0\C,5,1.51687,4,103.257,1,33.0473,0\H,8,1.0856,5,112.742,4,78.491,0\H,8,1.08693,5,113.28,4,-152.851,0\O,8,1.47002,5,103.495,4,-38.0198,0\Li,3,2.09543,1,93.0151,2,0.365642,0\\\@

 Total job time:  1528.45s(wall), 38728.53s(cpu) 
 Fri Dec 28 15:52:40 2018

        *************************************************************
        *                                                           *
        *  Thank you very much for using Q-Chem.  Have a nice day.  *
        *                                                           *
        *************************************************************


