
Running Job 1 of 1 mol.qin
qchem mol.qin_23219.0 /tmp/chain_scratch/ 1
/global/common/cori/software/qchem/5.1/exe/qcprog.exe mol.qin_23219.0 /tmp/chain_scratch/
Check license passed

                  Welcome to Q-Chem
     A Quantum Leap Into The Future Of Chemistry


 Q-Chem 5.1, Q-Chem, Inc., Pleasanton, CA (2018)

 Yihan Shao,  Zhengting Gan,  E. Epifanovsky,  A. T. B. Gilbert,  M. Wormit,  
 J. Kussmann,  A. W. Lange,  A. Behn,  Jia Deng,  Xintian Feng,  D. Ghosh,  
 M. Goldey,  P. R. Horn,  L. D. Jacobson,  I. Kaliman,  T. Kus,  A. Landau,  
 Jie Liu,  E. I. Proynov,  R. M. Richard,  R. P. Steele,  E. J. Sundstrom,  
 H. L. Woodcock III,  P. M. Zimmerman,  D. Zuev,  B. Albrecht,  E. Alguire,  
 S. A. Baeppler,  D. Barton,  Z. Benda,  Y. A. Bernard,  E. J. Berquist,  
 K. B. Bravaya,  H. Burton,  D. Casanova,  Chun-Min Chang,  Yunqing Chen,  
 A. Chien,  K. D. Closser,  M. P. Coons,  S. Coriani,  S. Dasgupta,  
 A. L. Dempwolff,  M. Diedenhofen,  Hainam Do,  R. G. Edgar,  Po-Tung Fang,  
 S. Faraji,  S. Fatehi,  Qingguo Feng,  K. D. Fenk,  J. Fosso-Tande,  
 Qinghui Ge,  A. Ghysels,  G. Gidofalvi,  J. Gomes,  J. Gonthier,  A. Gunina,  
 D. Hait,  M. W. D. Hanson-Heine,  P. H. P. Harbach,  A. W. Hauser,  
 J. E. Herr,  E. G. Hohenstein,  Z. C. Holden,  Kerwin Hui,  B. C. Huynh,  
 T.-C. Jagau,  Hyunjun Ji,  B. Kaduk,  K. Khistyaev,  Jaehoon Kim,  
 P. Klunzinger,  K. Koh,  D. Kosenkov,  L. Koulias,  T. Kowalczyk,  
 C. M. Krauter,  A. Kunitsa,  Ka Un Lao,  A. Laurent,  K. V. Lawler,  
 Joonho Lee,  D. Lefrancois,  S. Lehtola,  D. S. Levine,  Yi-Pei Li,  
 You-Sheng Lin,  Fenglai Liu,  E. Livshits,  A. Luenser,  P. Manohar,  
 E. Mansoor,  S. F. Manzer,  Shan-Ping Mao,  Yuezhi Mao,  N. Mardirossian,  
 A. V. Marenich,  T. Markovich,  L. A. Martinez-Martinez,  S. A. Maurer,  
 N. J. Mayhall,  S. C. McKenzie,  J.-M. Mewes,  A. F. Morrison,  
 J. W. Mullinax,  K. Nanda,  T. S. Nguyen-Beck,  R. Olivares-Amaya,  
 J. A. Parkhill,  T. M. Perrine,  F. Plasser,  P. Pokhilko,  S. Prager,  
 A. Prociuk,  E. Ramos,  D. R. Rehn,  F. Rob,  M. Schneider,  N. Sergueev,  
 S. M. Sharada,  S. Sharma,  D. W. Small,  T. Stauch,  T. Stein,  
 Yu-Chuan Su,  A. J. W. Thom,  A. Tkatchenko,  T. Tsuchimochi,  N. M. Tubman,  
 L. Vogt,  M. L. Vidal,  O. Vydrov,  M. A. Watson,  J. Wenzel,  
 M. de Wergifosse,  T. A. Wesolowski,  A. White,  J. Witte,  A. Yamada,  
 Jun Yang,  K. Yao,  S. Yeganeh,  S. R. Yost,  Zhi-Qiang You,  A. Zech,  
 Igor Ying Zhang,  Xing Zhang,  Yan Zhao,  Ying Zhu,  B. R. Brooks,  
 G. K. L. Chan,  C. J. Cramer,  M. S. Gordon,  W. J. Hehre,  A. Klamt,  
 M. W. Schmidt,  C. D. Sherrill,  D. G. Truhlar,  A. Aspuru-Guzik,  R. Baer,  
 A. T. Bell,  N. A. Besley,  Jeng-Da Chai,  R. A. DiStasio Jr.,  A. Dreuw,  
 B. D. Dunietz,  T. R. Furlani,  Chao-Ping Hsu,  Yousung Jung,  Jing Kong,  
 D. S. Lambrecht,  WanZhen Liang,  C. Ochsenfeld,  V. A. Rassolov,  
 L. V. Slipchenko,  J. E. Subotnik,  T. Van Voorhis,  J. M. Herbert,  
 A. I. Krylov,  P. M. W. Gill,  M. Head-Gordon

 Contributors to earlier versions of Q-Chem not listed above: 
 R. D. Adamson,  B. Austin,  J. Baker,  G. J. O. Beran,  K. Brandhorst,  
 S. T. Brown,  E. F. C. Byrd,  A. K. Chakraborty,  C.-L. Cheng,  
 Siu Hung Chien,  D. M. Chipman,  D. L. Crittenden,  H. Dachsel,  
 R. J. Doerksen,  A. D. Dutoi,  L. Fusti-Molnar,  W. A. Goddard III,  
 A. Golubeva-Zadorozhnaya,  S. R. Gwaltney,  G. Hawkins,  A. Heyden,  
 S. Hirata,  G. Kedziora,  F. J. Keil,  C. Kelley,  Jihan Kim,  R. A. King,  
 R. Z. Khaliullin,  P. P. Korambath,  W. Kurlancheek,  A. M. Lee,  M. S. Lee,  
 S. V. Levchenko,  Ching Yeh Lin,  D. Liotard,  R. C. Lochan,  I. Lotan,  
 P. E. Maslen,  N. Nair,  D. P. O'Neill,  D. Neuhauser,  E. Neuscamman,  
 C. M. Oana,  R. Olson,  B. Peters,  R. Peverati,  P. A. Pieniazek,  
 Y. M. Rhee,  J. Ritchie,  M. A. Rohrdanz,  E. Rosta,  N. J. Russ,  
 H. F. Schaefer III,  N. E. Schultz,  N. Shenvi,  A. C. Simmonett,  A. Sodt,  
 D. Stuck,  K. S. Thanthiriwatte,  V. Vanovschi,  Tao Wang,  A. Warshel,  
 C. F. Williams,  Q. Wu,  X. Xu,  W. Zhang

 Please cite Q-Chem as follows:
 Y. Shao et al., Mol. Phys. 113, 184-215 (2015)
 DOI: 10.1080/00268976.2014.952696

 Q-Chem 5.1.0 for Intel X86 EM64T Linux

 Parts of Q-Chem use Armadillo 8.300.2 (Tropical Shenanigans).
 http://arma.sourceforge.net/

 Q-Chem begins on Fri Dec 28 16:08:49 2018  

Host: cori08
0

     Scratch files written to /tmp/chain_scratch//
 Jun2518 |scratch|qcdevops|jenkins|workspace|build_RNUM -1
Processing $rem in /global/common/cori/software/qchem/5.1/config/preferences.
 MEM_TOTAL  96000 
The previous job contains 0 fragments, simply inherited here
Symmetry turned off for PCM/SM12/SMD calculation

Checking the input file for inconsistencies... 	...done.

--------------------------------------------------------------
User input:
--------------------------------------------------------------
$molecule
read
$end

$rem
job_type = freq
basis = 6-31++g**
max_scf_cycles = 200
gen_scfman = true
xc_grid = 3
scf_algorithm = diis_gdm
method = wb97xd
geom_opt_max_cycles = 200
solvent_method = smd
ideriv = 1
scf_guess = read
$end

$smx
solvent acetonitrile
$end
--------------------------------------------------------------
 ----------------------------------------------------------------
             Standard Nuclear Orientation (Angstroms)
    I     Atom           X                Y                Z
 ----------------------------------------------------------------
    1      Li      3.1419090146     0.0528628136    -0.1168409967
    2      C      -1.8521099563     0.7566548455    -0.0179795722
    3      O      -0.5136159713     1.0874917282     0.4922868974
    4      C      -1.8666744423    -0.7600684087     0.0006917605
    5      S       0.5217781864    -0.0151381950     0.0488662592
    6      O      -0.5027347564    -1.1213481122    -0.4117134988
    7      O       1.3430353009     0.3930583526    -1.0905375923
    8      O       1.3456376426    -0.4129204672     1.1819698225
    9      H      -2.5617892843     1.2000477835     0.6756762701
   10      H      -1.9450380885     1.1773577547    -1.0183223580
   11      H      -2.0359894359    -1.1650355502     0.9934899514
   12      H      -2.5359806707    -1.1928562834    -0.7382578323
 ----------------------------------------------------------------
 Nuclear Repulsion Energy =   484.1119332608 hartrees
 There are       33 alpha and       33 beta electrons
 Requested basis set is 6-31++G(d,p)
 There are 57 shells and 180 basis functions

 Total QAlloc Memory Limit  96000 MB
 Mega-Array Size       188 MB
 MEM_STATIC part       192 MB

                       Distance Matrix (Angstroms)
             Li(  1)   C (  2)   O (  3)   C (  4)   S (  5)   O (  6)
   C (  2)  5.044336
   O (  3)  3.847643  1.470167
   C (  4)  5.075488  1.516908  2.342202
   S (  5)  2.626246  2.497094  1.576216  2.502388
   O (  6)  3.840462  2.345791  2.386694  1.470011  1.576534
   O (  7)  2.073587  3.389917  2.536676  3.580882  1.462644  2.482156
   O (  8)  2.265051  3.610177  2.486709  3.440186  1.456331  2.541294
   H (  9)  5.871651  1.086922  2.059445  2.186514  3.373123  3.288009
   H ( 10)  5.287172  1.089180  2.083023  2.190468  2.940429  2.780694
   H ( 11)  5.433852  2.179398  2.764544  1.085502  2.959181  2.080234
   H ( 12)  5.846059  2.187938  3.286972  1.086887  3.369937  2.060542
             O (  7)   O (  8)   H (  9)   H ( 10)   H ( 11)
   O (  8)  2.411203
   H (  9)  4.361009  4.257462
   H ( 10)  3.381090  4.266007  1.802922
   H ( 11)  4.264814  3.469381  2.443581  3.089088
   H ( 12)  4.205472  4.400288  2.779544  2.458773  1.802697
 
 A cutoff of  1.0D-12 yielded   1574 shell pairs
 There are     16206 function pairs
 
 -------------------------------------------------------
 OpenMP Integral Computing Module                       
 Release: version 1.0, May 2013, Q-Chem Inc. Pittsburgh 
 -------------------------------------------------------
 Integral Job Info:
 Integral job number is                      11
 Integral operator is                         1
 short-range coefficients              22203600
 long-range coefficients              100000000
 Omega coefficients                         200
 if combine SR and LR in K                    1
 Integral screening is                        0
 Integral computing path is                   2
 max size of driver memory is            800000
 size of driver memory is                593474
 size of scratch memory is             15604072
 max col of scratch BK array               1296
 max len of scratch array in speh3          155
 max len of scratch index in speh4           18
 max int batch size is                      520
 min int batch size is                       52
 fixed nKL is                                52
 max L of basis functions is                  2
 order of int derivative is                   0
 number of shells is                         57
 number of basis is                         180
 number of cartesian basis is               180
 number of contracted shell pairs          1574
 number of primitive shell pairs           5389
 maxK2 (contraction) of shell pair           36
 max number of K2 of shell pair               1
 max number of CS2 of shell pair            176
 max number of PS2 of shell pair           1056
 mem total for path MDJ                  537180
 -------------------------------------------------------
 Smallest overlap matrix eigenvalue = 1.31E-04

 -----------------------------------------------------------------------
  General SCF calculation program by
  Eric Jon Sundstrom, Paul Horn, Yuezhi Mao, Dmitri Zuev, Alec White,
  David Stuck, Shaama M.S., Shane Yost, Joonho Lee, David Small,
  Daniel Levine, Susi Lehtola, Hugh Burton, Evgeny Epifanovsky
 -----------------------------------------------------------------------
 Exchange:     0.2220 Hartree-Fock + 1.0000 wB97X-D + LR-HF
 Correlation:  1.0000 wB97X-D
 Using SG-3 standard quadrature grid
 Dispersion:   Grimme D
 
 Citation of the SMD model:
 Marenich, A.V.; Cramer, C.J.; Truhlar, D.G.
 J. Phys. Chem. B 2009, 113, 6378-6396.
 iSolventCode=          53
 Solvent: acetonitrile                                                    
 
 vradii
            1           2           3           4           5           6
    1   2.1476001   1.8500000   2.1680000   1.8500000   2.4900000   2.1680000
            7           8           9          10          11          12
    1   2.1680000   2.1680000   1.2000000   1.2000000   1.2000000   1.2000000
Changing PCM_TESSEL_METHOD to VTN
Changing PCM_VDW_RADII to SMD_RADIUS
 Discretize the solute cavity surface with Lebedev spheres
	Using 302 Lebedev grid points for each H atom
	Using 302 Lebedev grid points for other atoms
	Atomic van der Waals radii will be scaled by 1.20
 Removing interior tesserae...
 Keep 1144 surface tesserae and discard 2480 interior tesserae
 Molecular Surface Area = 164.088 Angst**2
 
 Citation of the SMD model:
 Marenich, A.V.; Cramer, C.J.; Truhlar, D.G.
 J. Phys. Chem. B 2009, 113, 6378-6396.
 iSolventCode=          53
 Solvent: acetonitrile                                                    
 
 vradii
            1           2           3           4           5           6
    1   2.1476001   1.8500000   2.1680000   1.8500000   2.4900000   2.1680000
            7           8           9          10          11          12
    1   2.1680000   2.1680000   1.2000000   1.2000000   1.2000000   1.2000000
 using 32 threads for integral computing
 -------------------------------------------------------
 OpenMP Integral computing Module                
 Release: version 1.0, May 2013, Q-Chem Inc. Pittsburgh 
 -------------------------------------------------------
 using 32 threads for integral computing
 -------------------------------------------------------
 OpenMP Integral computing Module                
 Release: version 1.0, May 2013, Q-Chem Inc. Pittsburgh 
 -------------------------------------------------------
 -------------------------------------------------------
 OpenMP BLAS3 based DFT computing Module                
 Release: version 1.0, May 2013, Q-Chem Inc. Pittsburgh 
 -------------------------------------------------------
 A restricted SCF calculation will be
 performed using DIIS, GDM
 SCF converges when RMS gradient is below 1.0e-08
 ---------------------------------------
  Cycle       Energy         DIIS error
 ---------------------------------------
    1    -784.8384268840      4.05e-04  
    2    -784.9323649338      4.46e-04  Done DIIS. Switching to GDM
 ---------------------------------------
  Cycle       Energy        RMS Gradient
 ---------------------------------------
    1    -784.9323649338      6.42e-03   Normal BFGS step
    2    -784.9333386605      2.93e-03   Normal BFGS step
    3    -784.9335853460      1.15e-03   Normal BFGS step
    4    -784.9336272918      6.34e-04   Normal BFGS step
    5    -784.9336322637      2.99e-04   Normal BFGS step
    6    -784.9336340039      1.14e-04   Normal BFGS step
    7    -784.9336341990      5.59e-05   Normal BFGS step
    8    -784.9336342537      9.85e-06   Normal BFGS step
    9    -784.9336342560      8.53e-06   Normal BFGS step
   10    -784.9336342567      2.82e-06   Normal BFGS step
   11    -784.9336342568      8.83e-07   Normal BFGS step
   12    -784.9336342569      1.42e-07   Normal BFGS step
   13    -784.9336342569      3.49e-08   Normal BFGS step
   14    -784.9336342569      1.08e-08   Normal BFGS step
   15    -784.9336342569      1.01e-08   Normal BFGS step
   16    -784.9336342569      2.21e-09  Convergence criterion met
 ---------------------------------------
 SCF time:   CPU 654.56s  wall 25.00s 
(0)  E-EN(g) gas-phase elect-nuc energy                    0.000000000 a.u.
(3)  G-ENP(liq) elect-nuc-pol free energy of system     -784.933634257 a.u.
(4)  G-CDS(liq) cavity-dispersion-solvent structure 
     free energy                                               -0.3953 kcal/mol
(6)  G-S(liq) free energy of system                     -784.934264269 a.u.
(9)  DeltaG-S(liq) free energy of  solvation
     (9) = (6) - (0)                                      -492553.6849 kcal/mol
 SCF   energy in the final basis set =     -784.9336342569
 Total energy in the final basis set =     -784.9342642695
 
 --------------------------------------------------------------
 
                    Orbital Energies (a.u.)
 --------------------------------------------------------------
 
 Alpha MOs
 -- Occupied --
-89.382 -19.389 -19.388 -19.346 -19.345 -10.399 -10.399  -8.366
 -6.317  -6.316  -6.315  -2.164  -1.353  -1.227  -1.207  -1.177
 -0.926  -0.814  -0.778  -0.678  -0.671  -0.637  -0.622  -0.592
 -0.571  -0.540  -0.523  -0.510  -0.489  -0.487  -0.485  -0.440
 -0.428
 -- Virtual --
  0.008   0.017   0.017   0.019   0.043   0.061   0.066   0.068
  0.070   0.086   0.089   0.090   0.093   0.115   0.122   0.133
  0.135   0.135   0.140   0.149   0.171   0.175   0.179   0.195
  0.203   0.204   0.212   0.216   0.216   0.220   0.239   0.247
  0.263   0.273   0.275   0.278   0.292   0.307   0.321   0.341
  0.346   0.351   0.354   0.365   0.382   0.393   0.404   0.405
  0.415   0.421   0.427   0.444   0.471   0.501   0.567   0.581
  0.610   0.644   0.664   0.675   0.685   0.731   0.743   0.763
  0.769   0.784   0.827   0.849   0.865   0.900   1.013   1.018
  1.061   1.103   1.114   1.133   1.143   1.170   1.186   1.238
  1.249   1.251   1.307   1.321   1.333   1.376   1.382   1.404
  1.409   1.423   1.447   1.489   1.493   1.523   1.583   1.642
  1.655   1.667   1.688   1.755   1.799   1.832   1.846   1.861
  1.904   1.914   1.959   1.980   1.985   2.001   2.033   2.063
  2.101   2.116   2.176   2.193   2.214   2.268   2.279   2.346
  2.390   2.411   2.508   2.601   2.641   2.648   2.667   2.740
  2.757   2.810   2.835   2.916   2.935   2.941   2.973   3.117
  3.376   3.395   3.534   3.592   4.063   4.212   4.294   4.308
  4.378   4.530   4.757
 --------------------------------------------------------------
 
          Ground-State Mulliken Net Atomic Charges

     Atom                 Charge (a.u.)
  ----------------------------------------
      1 Li                    0.774024
      2 C                    -0.148799
      3 O                    -0.531114
      4 C                    -0.149965
      5 S                     1.787430
      6 O                    -0.535267
      7 O                    -0.594495
      8 O                    -0.587370
      9 H                     0.255911
     10 H                     0.237349
     11 H                     0.237333
     12 H                     0.254963
  ----------------------------------------
  Sum of atomic charges =     1.000000

 -----------------------------------------------------------------
                    Cartesian Multipole Moments
 -----------------------------------------------------------------
    Charge (ESU x 10^10)
                 4.8032
    Dipole Moment (Debye)
         X       3.5741      Y       0.2410      Z      -0.5781
       Tot       3.6286
    Quadrupole Moments (Debye-Ang)
        XX       6.7901     XY       0.7225     YY     -46.2022
        XZ      -1.5324     YZ       0.3480     ZZ     -50.3452
    Octopole Moments (Debye-Ang^2)
       XXX     113.4513    XXY       2.7379    XYY      -2.1698
       YYY       1.5515    XXZ      -6.6876    XYZ       2.8466
       YYZ      -1.5015    XZZ      -6.2820    YZZ       0.4613
       ZZZ      -4.6226
    Hexadecapole Moments (Debye-Ang^3)
      XXXX      10.1001   XXXY       7.6453   XXYY     -97.3094
      XYYY      -0.1664   YYYY    -189.3036   XXXZ     -19.5874
      XXYZ       8.2093   XYYZ      -0.6239   YYYZ      -0.0534
      XXZZ    -109.9523   XYZZ       0.5980   YYZZ     -55.6238
      XZZZ      -2.6399   YZZZ       1.0086   ZZZZ    -162.0327
 -----------------------------------------------------------------
 Calculating analytic gradient of the SCF energy
 Gradient of CDS energy
            1           2           3           4           5           6
    1   0.0000583  -0.0004671   0.0001892  -0.0004580  -0.0000281   0.0001872
    2   0.0000034   0.0010623  -0.0001534  -0.0010662   0.0000135   0.0001537
    3  -0.0000092  -0.0000513  -0.0000838   0.0000472  -0.0000224   0.0000907
            7           8           9          10          11          12
    1  -0.0001254  -0.0001338   0.0001839   0.0002240   0.0001817   0.0001879
    2  -0.0000287   0.0000233  -0.0001072  -0.0001246   0.0001298   0.0000941
    3   0.0000980  -0.0000878   0.0000395   0.0000577  -0.0000614  -0.0000172
 Gradient of SCF Energy
            1           2           3           4           5           6
    1   0.0064937   0.0422821  -0.0265535   0.0434750  -0.0064790  -0.0260564
    2   0.0001333  -0.0310421   0.0237754   0.0277704  -0.0001982  -0.0235841
    3  -0.0003868   0.0201240   0.0047986  -0.0148633  -0.0008764  -0.0057801
            7           8           9          10          11          12
    1   0.0199591   0.0203686  -0.0317348  -0.0045996  -0.0072848  -0.0298704
    2   0.0143794  -0.0145958   0.0171219   0.0142814  -0.0114331  -0.0166086
    3  -0.0403401   0.0423384   0.0293363  -0.0405629   0.0377797  -0.0315675
 Max gradient component =       4.347E-02
 RMS gradient           =       2.424E-02
 Computing VTN gradient.
 Updating gradient with PCM contributions...
 -- total gradient after adding PCM contribution --
---------------------------------------------------
  Atom         X              Y              Z     
---------------------------------------------------
   1       0.000020      -0.000101      -0.000070
   2       0.000071      -0.000017       0.000061
   3       0.000024      -0.000041       0.000081
   4      -0.000020       0.000021      -0.000072
   5      -0.000128       0.000056       0.000021
   6       0.000031       0.000033      -0.000076
   7       0.000022       0.000079       0.000046
   8       0.000046      -0.000056      -0.000037
   9      -0.000012      -0.000055       0.000113
  10      -0.000066       0.000111       0.000060
  11       0.000007      -0.000083      -0.000052
  12       0.000006       0.000053      -0.000076
---------------------------------------------------
 Number of fixed atoms: 0
 Gradient time:  CPU 77.40 s  wall 3.49 s
 ######################################################
 ######################################################
 # Starting finite difference calculation for IDERIV  #
 Finite diff step size:  1.88973e-03 a.u.
 ----------------------------------------------------------------
             Standard Nuclear Orientation (Angstroms)
    I     Atom           X                Y                Z
 ----------------------------------------------------------------
    1      Li      3.1429090146     0.0528628136    -0.1168409967
    2      C      -1.8521099563     0.7566548455    -0.0179795722
    3      O      -0.5136159713     1.0874917282     0.4922868974
    4      C      -1.8666744423    -0.7600684087     0.0006917605
    5      S       0.5217781864    -0.0151381950     0.0488662592
    6      O      -0.5027347564    -1.1213481122    -0.4117134988
    7      O       1.3430353009     0.3930583526    -1.0905375923
    8      O       1.3456376426    -0.4129204672     1.1819698225
    9      H      -2.5617892843     1.2000477835     0.6756762701
   10      H      -1.9450380885     1.1773577547    -1.0183223580
   11      H      -2.0359894359    -1.1650355502     0.9934899514
   12      H      -2.5359806707    -1.1928562834    -0.7382578323
 ----------------------------------------------------------------
 Nuclear Repulsion Energy =   484.1011712507 hartrees
 There are       33 alpha and       33 beta electrons
 Discretize the solute cavity surface with Lebedev spheres
	Using 302 Lebedev grid points for each H atom
	Using 302 Lebedev grid points for other atoms
	Atomic van der Waals radii will be scaled by 1.20
 Removing interior tesserae...
 Keep 1144 surface tesserae and discard 2480 interior tesserae
 Molecular Surface Area = 164.088 Angst**2

                       Distance Matrix (Angstroms)
             Li(  1)   C (  2)   O (  3)   C (  4)   S (  5)   O (  6)
   C (  2)  5.045326
   O (  3)  3.848593  1.470167
   C (  4)  5.076475  1.516908  2.342202
   S (  5)  2.627244  2.497094  1.576216  2.502388
   O (  6)  3.841411  2.345791  2.386694  1.470011  1.576534
   O (  7)  2.074455  3.389917  2.536676  3.580882  1.462644  2.482156
   O (  8)  2.265844  3.610177  2.486709  3.440186  1.456331  2.541294
   H (  9)  5.872623  1.086922  2.059445  2.186514  3.373123  3.288009
   H ( 10)  5.288134  1.089180  2.083023  2.190468  2.940429  2.780694
   H ( 11)  5.434805  2.179398  2.764544  1.085502  2.959181  2.080234
   H ( 12)  5.847030  2.187938  3.286972  1.086887  3.369937  2.060542
             O (  7)   O (  8)   H (  9)   H ( 10)   H ( 11)
   O (  8)  2.411203
   H (  9)  4.361009  4.257462
   H ( 10)  3.381090  4.266007  1.802922
   H ( 11)  4.264814  3.469381  2.443581  3.089088
   H ( 12)  4.205472  4.400288  2.779544  2.458773  1.802697
 
 Requested basis set is 6-31++G(d,p)
 There are 57 shells and 180 basis functions
 A cutoff of  1.0D-12 yielded   1574 shell pairs
 There are     16206 function pairs
 Smallest overlap matrix eigenvalue = 1.31E-04

 -----------------------------------------------------------------------
  General SCF calculation program by
  Eric Jon Sundstrom, Paul Horn, Yuezhi Mao, Dmitri Zuev, Alec White,
  David Stuck, Shaama M.S., Shane Yost, Joonho Lee, David Small,
  Daniel Levine, Susi Lehtola, Hugh Burton, Evgeny Epifanovsky
 -----------------------------------------------------------------------
 Exchange:     0.2220 Hartree-Fock + 1.0000 wB97X-D + LR-HF
 Correlation:  1.0000 wB97X-D
 Using SG-3 standard quadrature grid
 Dispersion:   Grimme D
 using 32 threads for integral computing
 -------------------------------------------------------
 OpenMP Integral computing Module                
 Release: version 1.0, May 2013, Q-Chem Inc. Pittsburgh 
 -------------------------------------------------------
 using 32 threads for integral computing
 -------------------------------------------------------
 OpenMP Integral computing Module                
 Release: version 1.0, May 2013, Q-Chem Inc. Pittsburgh 
 -------------------------------------------------------
 -------------------------------------------------------
 OpenMP BLAS3 based DFT computing Module                
 Release: version 1.0, May 2013, Q-Chem Inc. Pittsburgh 
 -------------------------------------------------------
 A restricted SCF calculation will be
 performed using DIIS, GDM
 SCF converges when RMS gradient is below 1.0e-08
 ---------------------------------------
  Cycle       Energy         DIIS error
 ---------------------------------------
    1    -784.9335953255      1.98e-06  
    2    -784.9336342760      6.84e-07  Done DIIS. Switching to GDM
 ---------------------------------------
  Cycle       Energy        RMS Gradient
 ---------------------------------------
    1    -784.9336342760      8.22e-06   Normal BFGS step
    2    -784.9336342765      1.07e-05   Normal BFGS step
    3    -784.9336342779      1.14e-06   Normal BFGS step
    4    -784.9336342779      9.44e-07   Normal BFGS step
    5    -784.9336342779      1.90e-07   Normal BFGS step
    6    -784.9336342779      1.78e-07   Normal BFGS step
    7    -784.9336342779      2.55e-08   Normal BFGS step
    8    -784.9336342779      1.64e-08   Normal BFGS step
    9    -784.9336342779      2.78e-09  Convergence criterion met
 ---------------------------------------
 SCF time:   CPU 390.99s  wall 15.00s 
(0)  E-EN(g) gas-phase elect-nuc energy                    0.000000000 a.u.
(3)  G-ENP(liq) elect-nuc-pol free energy of system     -784.933634278 a.u.
(4)  G-CDS(liq) cavity-dispersion-solvent structure 
     free energy                                               -0.3953 kcal/mol
(6)  G-S(liq) free energy of system                     -784.934264291 a.u.
(9)  DeltaG-S(liq) free energy of  solvation
     (9) = (6) - (0)                                      -492553.6850 kcal/mol
 SCF   energy in the final basis set =     -784.9336342779
 Total energy in the final basis set =     -784.9342642905
 
 --------------------------------------------------------------
 
                    Orbital Energies (a.u.)
 --------------------------------------------------------------
 
 Alpha MOs
 -- Occupied --
-89.382 -19.389 -19.388 -19.346 -19.345 -10.399 -10.399  -8.366
 -6.317  -6.316  -6.315  -2.164  -1.353  -1.227  -1.207  -1.177
 -0.926  -0.814  -0.778  -0.678  -0.671  -0.637  -0.622  -0.592
 -0.571  -0.539  -0.523  -0.510  -0.489  -0.487  -0.485  -0.440
 -0.428
 -- Virtual --
  0.008   0.017   0.017   0.019   0.043   0.061   0.066   0.068
  0.070   0.086   0.089   0.089   0.093   0.115   0.122   0.133
  0.135   0.136   0.140   0.149   0.171   0.175   0.179   0.195
  0.203   0.204   0.212   0.216   0.216   0.220   0.239   0.246
  0.263   0.273   0.275   0.278   0.292   0.307   0.321   0.341
  0.346   0.351   0.354   0.365   0.382   0.393   0.404   0.405
  0.415   0.421   0.427   0.444   0.471   0.501   0.567   0.581
  0.610   0.644   0.664   0.675   0.684   0.731   0.743   0.763
  0.769   0.784   0.827   0.849   0.865   0.900   1.013   1.018
  1.061   1.103   1.114   1.133   1.143   1.170   1.186   1.238
  1.249   1.251   1.307   1.321   1.333   1.376   1.382   1.404
  1.409   1.423   1.447   1.489   1.493   1.523   1.583   1.642
  1.655   1.667   1.688   1.755   1.799   1.832   1.846   1.861
  1.904   1.914   1.959   1.979   1.985   2.001   2.033   2.063
  2.101   2.116   2.176   2.193   2.214   2.268   2.279   2.346
  2.390   2.411   2.508   2.601   2.641   2.648   2.667   2.740
  2.757   2.810   2.835   2.916   2.935   2.941   2.973   3.117
  3.376   3.395   3.534   3.592   4.063   4.212   4.294   4.308
  4.378   4.530   4.757
 --------------------------------------------------------------
 
          Ground-State Mulliken Net Atomic Charges

     Atom                 Charge (a.u.)
  ----------------------------------------
      1 Li                    0.774421
      2 C                    -0.148784
      3 O                    -0.531101
      4 C                    -0.149937
      5 S                     1.787222
      6 O                    -0.535253
      7 O                    -0.594629
      8 O                    -0.587464
      9 H                     0.255905
     10 H                     0.237339
     11 H                     0.237324
     12 H                     0.254958
  ----------------------------------------
  Sum of atomic charges =     1.000000

 -----------------------------------------------------------------
                    Cartesian Multipole Moments
 -----------------------------------------------------------------
    Charge (ESU x 10^10)
                 4.8032
    Dipole Moment (Debye)
         X       3.5800      Y       0.2410      Z      -0.5782
       Tot       3.6344
    Quadrupole Moments (Debye-Ang)
        XX       6.8200     XY       0.7228     YY     -46.2031
        XZ      -1.5331     YZ       0.3482     ZZ     -50.3465
    Octopole Moments (Debye-Ang^2)
       XXX     113.5958    XXY       2.7395    XYY      -2.1694
       YYY       1.5515    XXZ      -6.6913    XYZ       2.8469
       YYZ      -1.5015    XZZ      -6.2825    YZZ       0.4614
       ZZZ      -4.6228
    Hexadecapole Moments (Debye-Ang^3)
      XXXX      10.6703   XXXY       7.6527   XXYY     -97.3140
      XYYY      -0.1665   YYYY    -189.3067   XXXZ     -19.6036
      XXYZ       8.2093   XYYZ      -0.6239   YYYZ      -0.0531
      XXZZ    -109.9565   XYZZ       0.5981   YYZZ     -55.6254
      XZZZ      -2.6400   YZZZ       1.0097   ZZZZ    -162.0389
 -----------------------------------------------------------------
 Calculating analytic gradient of the SCF energy
 Gradient of CDS energy
            1           2           3           4           5           6
    1   0.0000583  -0.0004671   0.0001892  -0.0004580  -0.0000281   0.0001872
    2   0.0000034   0.0010623  -0.0001534  -0.0010662   0.0000135   0.0001537
    3  -0.0000092  -0.0000513  -0.0000838   0.0000472  -0.0000224   0.0000907
            7           8           9          10          11          12
    1  -0.0001254  -0.0001338   0.0001839   0.0002240   0.0001817   0.0001879
    2  -0.0000287   0.0000233  -0.0001072  -0.0001246   0.0001298   0.0000941
    3   0.0000980  -0.0000878   0.0000395   0.0000577  -0.0000614  -0.0000172
 Gradient of SCF Energy
            1           2           3           4           5           6
    1   0.0065681   0.0422738  -0.0265346   0.0434672  -0.0065810  -0.0260377
    2   0.0001312  -0.0310382   0.0237697   0.0277668  -0.0002015  -0.0235777
    3  -0.0003807   0.0201177   0.0047969  -0.0148575  -0.0008674  -0.0057797
            7           8           9          10          11          12
    1   0.0199460   0.0203764  -0.0317302  -0.0045988  -0.0072833  -0.0298660
    2   0.0143790  -0.0145906   0.0171195   0.0142797  -0.0114316  -0.0166063
    3  -0.0403404   0.0423247   0.0293329  -0.0405567   0.0377739  -0.0315638
 Max gradient component =       4.347E-02
 RMS gradient           =       2.423E-02
 Computing VTN gradient.
 Updating gradient with PCM contributions...
 -- total gradient after adding PCM contribution --
---------------------------------------------------
  Atom         X              Y              Z     
---------------------------------------------------
   1       0.000074      -0.000102      -0.000065
   2       0.000068      -0.000018       0.000058
   3       0.000034      -0.000045       0.000080
   4      -0.000024       0.000022      -0.000070
   5      -0.000199       0.000053       0.000027
   6       0.000042       0.000037      -0.000076
   7       0.000015       0.000081       0.000041
   8       0.000053      -0.000055      -0.000041
   9      -0.000012      -0.000055       0.000114
  10      -0.000066       0.000111       0.000060
  11       0.000007      -0.000083      -0.000052
  12       0.000006       0.000054      -0.000076
---------------------------------------------------
 Number of fixed atoms: 0
 Gradient time:  CPU 76.67 s  wall 3.43 s
 ----------------------------------------------------------------
             Standard Nuclear Orientation (Angstroms)
    I     Atom           X                Y                Z
 ----------------------------------------------------------------
    1      Li      3.1409090146     0.0528628136    -0.1168409967
    2      C      -1.8521099563     0.7566548455    -0.0179795722
    3      O      -0.5136159713     1.0874917282     0.4922868974
    4      C      -1.8666744423    -0.7600684087     0.0006917605
    5      S       0.5217781864    -0.0151381950     0.0488662592
    6      O      -0.5027347564    -1.1213481122    -0.4117134988
    7      O       1.3430353009     0.3930583526    -1.0905375923
    8      O       1.3456376426    -0.4129204672     1.1819698225
    9      H      -2.5617892843     1.2000477835     0.6756762701
   10      H      -1.9450380885     1.1773577547    -1.0183223580
   11      H      -2.0359894359    -1.1650355502     0.9934899514
   12      H      -2.5359806707    -1.1928562834    -0.7382578323
 ----------------------------------------------------------------
 Nuclear Repulsion Energy =   484.1227019298 hartrees
 There are       33 alpha and       33 beta electrons
 Discretize the solute cavity surface with Lebedev spheres
	Using 302 Lebedev grid points for each H atom
	Using 302 Lebedev grid points for other atoms
	Atomic van der Waals radii will be scaled by 1.20
 Removing interior tesserae...
 Keep 1143 surface tesserae and discard 2481 interior tesserae
 Molecular Surface Area = 163.807 Angst**2

                       Distance Matrix (Angstroms)
             Li(  1)   C (  2)   O (  3)   C (  4)   S (  5)   O (  6)
   C (  2)  5.043346
   O (  3)  3.846693  1.470167
   C (  4)  5.074501  1.516908  2.342202
   S (  5)  2.625248  2.497094  1.576216  2.502388
   O (  6)  3.839513  2.345791  2.386694  1.470011  1.576534
   O (  7)  2.072720  3.389917  2.536676  3.580882  1.462644  2.482156
   O (  8)  2.264258  3.610177  2.486709  3.440186  1.456331  2.541294
   H (  9)  5.870680  1.086922  2.059445  2.186514  3.373123  3.288009
   H ( 10)  5.286210  1.089180  2.083023  2.190468  2.940429  2.780694
   H ( 11)  5.432899  2.179398  2.764544  1.085502  2.959181  2.080234
   H ( 12)  5.845088  2.187938  3.286972  1.086887  3.369937  2.060542
             O (  7)   O (  8)   H (  9)   H ( 10)   H ( 11)
   O (  8)  2.411203
   H (  9)  4.361009  4.257462
   H ( 10)  3.381090  4.266007  1.802922
   H ( 11)  4.264814  3.469381  2.443581  3.089088
   H ( 12)  4.205472  4.400288  2.779544  2.458773  1.802697
 
 Requested basis set is 6-31++G(d,p)
 There are 57 shells and 180 basis functions
 A cutoff of  1.0D-12 yielded   1574 shell pairs
 There are     16206 function pairs
 Smallest overlap matrix eigenvalue = 1.31E-04

 -----------------------------------------------------------------------
  General SCF calculation program by
  Eric Jon Sundstrom, Paul Horn, Yuezhi Mao, Dmitri Zuev, Alec White,
  David Stuck, Shaama M.S., Shane Yost, Joonho Lee, David Small,
  Daniel Levine, Susi Lehtola, Hugh Burton, Evgeny Epifanovsky
 -----------------------------------------------------------------------
 Exchange:     0.2220 Hartree-Fock + 1.0000 wB97X-D + LR-HF
 Correlation:  1.0000 wB97X-D
 Using SG-3 standard quadrature grid
 Dispersion:   Grimme D
 using 32 threads for integral computing
 -------------------------------------------------------
 OpenMP Integral computing Module                
 Release: version 1.0, May 2013, Q-Chem Inc. Pittsburgh 
 -------------------------------------------------------
 using 32 threads for integral computing
 -------------------------------------------------------
 OpenMP Integral computing Module                
 Release: version 1.0, May 2013, Q-Chem Inc. Pittsburgh 
 -------------------------------------------------------
 -------------------------------------------------------
 OpenMP BLAS3 based DFT computing Module                
 Release: version 1.0, May 2013, Q-Chem Inc. Pittsburgh 
 -------------------------------------------------------
 A restricted SCF calculation will be
 performed using DIIS, GDM
 SCF converges when RMS gradient is below 1.0e-08
 ---------------------------------------
  Cycle       Energy         DIIS error
 ---------------------------------------
    1    -784.9337119469      3.97e-06  
    2    -784.9335659452      4.05e-06  Done DIIS. Switching to GDM
 ---------------------------------------
  Cycle       Energy        RMS Gradient
 ---------------------------------------
    1    -784.9335659452      5.94e-05   Normal BFGS step
    2    -784.9335660635      2.55e-05   Normal BFGS step
    3    -784.9335660723      2.55e-05   Normal BFGS step
    4    -784.9335660808      2.90e-06   Normal BFGS step
    5    -784.9335660810      2.04e-06   Normal BFGS step
    6    -784.9335660811      7.72e-07   Normal BFGS step
    7    -784.9335660811      3.52e-07   Normal BFGS step
    8    -784.9335660811      1.36e-07   Normal BFGS step
    9    -784.9335660811      6.31e-08   Normal BFGS step
   10    -784.9335660811      1.77e-08   Normal BFGS step
   11    -784.9335660811      6.62e-09  Convergence criterion met
 ---------------------------------------
 SCF time:   CPU 463.54s  wall 18.00s 
(0)  E-EN(g) gas-phase elect-nuc energy                    0.000000000 a.u.
(3)  G-ENP(liq) elect-nuc-pol free energy of system     -784.933566081 a.u.
(4)  G-CDS(liq) cavity-dispersion-solvent structure 
     free energy                                               -0.3953 kcal/mol
(6)  G-S(liq) free energy of system                     -784.934196094 a.u.
(9)  DeltaG-S(liq) free energy of  solvation
     (9) = (6) - (0)                                      -492553.6422 kcal/mol
 SCF   energy in the final basis set =     -784.9335660811
 Total energy in the final basis set =     -784.9341960937
 
 --------------------------------------------------------------
 
                    Orbital Energies (a.u.)
 --------------------------------------------------------------
 
 Alpha MOs
 -- Occupied --
-89.382 -19.389 -19.388 -19.346 -19.345 -10.399 -10.399  -8.366
 -6.318  -6.316  -6.315  -2.164  -1.353  -1.227  -1.207  -1.177
 -0.926  -0.814  -0.778  -0.678  -0.671  -0.637  -0.622  -0.592
 -0.571  -0.540  -0.523  -0.510  -0.489  -0.487  -0.485  -0.440
 -0.428
 -- Virtual --
  0.008   0.017   0.017   0.019   0.042   0.061   0.066   0.068
  0.070   0.085   0.089   0.089   0.093   0.115   0.122   0.133
  0.135   0.135   0.140   0.149   0.171   0.175   0.179   0.195
  0.203   0.204   0.212   0.216   0.216   0.220   0.239   0.246
  0.263   0.273   0.275   0.278   0.292   0.307   0.321   0.341
  0.346   0.351   0.354   0.365   0.382   0.393   0.404   0.405
  0.415   0.421   0.427   0.444   0.471   0.501   0.567   0.581
  0.610   0.644   0.664   0.675   0.685   0.731   0.743   0.763
  0.769   0.784   0.827   0.849   0.865   0.900   1.013   1.018
  1.061   1.103   1.114   1.133   1.143   1.170   1.186   1.238
  1.249   1.251   1.307   1.321   1.333   1.376   1.382   1.404
  1.409   1.423   1.447   1.489   1.493   1.522   1.583   1.642
  1.655   1.667   1.688   1.755   1.799   1.831   1.846   1.861
  1.904   1.914   1.959   1.980   1.985   2.001   2.033   2.063
  2.102   2.117   2.176   2.193   2.214   2.267   2.279   2.346
  2.390   2.411   2.508   2.601   2.641   2.648   2.667   2.740
  2.757   2.810   2.835   2.916   2.935   2.941   2.973   3.117
  3.376   3.395   3.534   3.592   4.063   4.211   4.294   4.308
  4.378   4.530   4.757
 --------------------------------------------------------------
 
          Ground-State Mulliken Net Atomic Charges

     Atom                 Charge (a.u.)
  ----------------------------------------
      1 Li                    0.773503
      2 C                    -0.148855
      3 O                    -0.530877
      4 C                    -0.149998
      5 S                     1.786922
      6 O                    -0.535169
      7 O                    -0.594059
      8 O                    -0.587209
      9 H                     0.255954
     10 H                     0.237404
     11 H                     0.237378
     12 H                     0.255007
  ----------------------------------------
  Sum of atomic charges =     1.000000

 -----------------------------------------------------------------
                    Cartesian Multipole Moments
 -----------------------------------------------------------------
    Charge (ESU x 10^10)
                 4.8032
    Dipole Moment (Debye)
         X       3.5640      Y       0.2383      Z      -0.5796
       Tot       3.6186
    Quadrupole Moments (Debye-Ang)
        XX       6.7594     XY       0.7184     YY     -46.1993
        XZ      -1.5343     YZ       0.3460     ZZ     -50.3410
    Octopole Moments (Debye-Ang^2)
       XXX     113.2837    XXY       2.7295    XYY      -2.1750
       YYY       1.5468    XXZ      -6.6892    XYZ       2.8433
       YYZ      -1.5019    XZZ      -6.2828    YZZ       0.4587
       ZZZ      -4.6258
    Hexadecapole Moments (Debye-Ang^3)
      XXXX       9.5360   XXXY       7.6238   XXYY     -97.2998
      XYYY      -0.1728   YYYY    -189.2913   XXXZ     -19.5817
      XXYZ       8.2053   XYYZ      -0.6246   YYYZ      -0.0565
      XXZZ    -109.9436   XYZZ       0.5945   YYZZ     -55.6179
      XZZZ      -2.6455   YZZZ       1.0022   ZZZZ    -162.0119
 -----------------------------------------------------------------
 Calculating analytic gradient of the SCF energy
 Gradient of CDS energy
            1           2           3           4           5           6
    1   0.0000583  -0.0004671   0.0001892  -0.0004580  -0.0000281   0.0001872
    2   0.0000034   0.0010623  -0.0001534  -0.0010662   0.0000135   0.0001537
    3  -0.0000092  -0.0000513  -0.0000838   0.0000472  -0.0000224   0.0000907
            7           8           9          10          11          12
    1  -0.0001254  -0.0001338   0.0001839   0.0002240   0.0001817   0.0001879
    2  -0.0000287   0.0000233  -0.0001072  -0.0001246   0.0001298   0.0000941
    3   0.0000980  -0.0000878   0.0000395   0.0000577  -0.0000614  -0.0000172
 Gradient of SCF Energy
            1           2           3           4           5           6
    1   0.0064202   0.0423132  -0.0265397   0.0435013  -0.0062528  -0.0261042
    2   0.0001586  -0.0310483   0.0237777   0.0277716  -0.0002805  -0.0235934
    3  -0.0003844   0.0201398   0.0047903  -0.0148789  -0.0008331  -0.0057870
            7           8           9          10          11          12
    1   0.0199225   0.0202698  -0.0317483  -0.0046066  -0.0072920  -0.0298835
    2   0.0143894  -0.0145322   0.0171258   0.0142827  -0.0114358  -0.0166156
    3  -0.0402451   0.0422166   0.0293405  -0.0405755   0.0377922  -0.0315753
 Max gradient component =       4.350E-02
 RMS gradient           =       2.423E-02
 Computing VTN gradient.
 Updating gradient with PCM contributions...
 -- total gradient after adding PCM contribution --
---------------------------------------------------
  Atom         X              Y              Z     
---------------------------------------------------
   1      -0.000058       0.000064      -0.000000
   2       0.000091      -0.000013       0.000072
   3      -0.000023      -0.000028       0.000076
   4      -0.000006       0.000017      -0.000085
   5       0.000122      -0.000035      -0.000017
   6      -0.000022       0.000016      -0.000086
   7      -0.000003       0.000060       0.000022
   8      -0.000025      -0.000105      -0.000030
   9      -0.000015      -0.000055       0.000112
  10      -0.000069       0.000110       0.000058
  11       0.000004      -0.000084      -0.000048
  12       0.000003       0.000053      -0.000074
---------------------------------------------------
 Number of fixed atoms: 0
 Gradient time:  CPU 77.09 s  wall 3.44 s
 ----------------------------------------------------------------
             Standard Nuclear Orientation (Angstroms)
    I     Atom           X                Y                Z
 ----------------------------------------------------------------
    1      Li      3.1419090146     0.0538628136    -0.1168409967
    2      C      -1.8521099563     0.7566548455    -0.0179795722
    3      O      -0.5136159713     1.0874917282     0.4922868974
    4      C      -1.8666744423    -0.7600684087     0.0006917605
    5      S       0.5217781864    -0.0151381950     0.0488662592
    6      O      -0.5027347564    -1.1213481122    -0.4117134988
    7      O       1.3430353009     0.3930583526    -1.0905375923
    8      O       1.3456376426    -0.4129204672     1.1819698225
    9      H      -2.5617892843     1.2000477835     0.6756762701
   10      H      -1.9450380885     1.1773577547    -1.0183223580
   11      H      -2.0359894359    -1.1650355502     0.9934899514
   12      H      -2.5359806707    -1.1928562834    -0.7382578323
 ----------------------------------------------------------------
 Nuclear Repulsion Energy =   484.1117708541 hartrees
 There are       33 alpha and       33 beta electrons
 Discretize the solute cavity surface with Lebedev spheres
	Using 302 Lebedev grid points for each H atom
	Using 302 Lebedev grid points for other atoms
	Atomic van der Waals radii will be scaled by 1.20
 Removing interior tesserae...
 Keep 1143 surface tesserae and discard 2481 interior tesserae
 Molecular Surface Area = 163.807 Angst**2

                       Distance Matrix (Angstroms)
             Li(  1)   C (  2)   O (  3)   C (  4)   S (  5)   O (  6)
   C (  2)  5.044196
   O (  3)  3.847374  1.470167
   C (  4)  5.075648  1.516908  2.342202
   S (  5)  2.626272  2.497094  1.576216  2.502388
   O (  6)  3.840768  2.345791  2.386694  1.470011  1.576534
   O (  7)  2.073424  3.389917  2.536676  3.580882  1.462644  2.482156
   O (  8)  2.265257  3.610177  2.486709  3.440186  1.456331  2.541294
   H (  9)  5.871456  1.086922  2.059445  2.186514  3.373123  3.288009
   H ( 10)  5.286959  1.089180  2.083023  2.190468  2.940429  2.780694
   H ( 11)  5.434076  2.179398  2.764544  1.085502  2.959181  2.080234
   H ( 12)  5.846272  2.187938  3.286972  1.086887  3.369937  2.060542
             O (  7)   O (  8)   H (  9)   H ( 10)   H ( 11)
   O (  8)  2.411203
   H (  9)  4.361009  4.257462
   H ( 10)  3.381090  4.266007  1.802922
   H ( 11)  4.264814  3.469381  2.443581  3.089088
   H ( 12)  4.205472  4.400288  2.779544  2.458773  1.802697
 
 Requested basis set is 6-31++G(d,p)
 There are 57 shells and 180 basis functions
 A cutoff of  1.0D-12 yielded   1574 shell pairs
 There are     16206 function pairs
 Smallest overlap matrix eigenvalue = 1.31E-04

 -----------------------------------------------------------------------
  General SCF calculation program by
  Eric Jon Sundstrom, Paul Horn, Yuezhi Mao, Dmitri Zuev, Alec White,
  David Stuck, Shaama M.S., Shane Yost, Joonho Lee, David Small,
  Daniel Levine, Susi Lehtola, Hugh Burton, Evgeny Epifanovsky
 -----------------------------------------------------------------------
 Exchange:     0.2220 Hartree-Fock + 1.0000 wB97X-D + LR-HF
 Correlation:  1.0000 wB97X-D
 Using SG-3 standard quadrature grid
 Dispersion:   Grimme D
 using 32 threads for integral computing
 -------------------------------------------------------
 OpenMP Integral computing Module                
 Release: version 1.0, May 2013, Q-Chem Inc. Pittsburgh 
 -------------------------------------------------------
 using 32 threads for integral computing
 -------------------------------------------------------
 OpenMP Integral computing Module                
 Release: version 1.0, May 2013, Q-Chem Inc. Pittsburgh 
 -------------------------------------------------------
 -------------------------------------------------------
 OpenMP BLAS3 based DFT computing Module                
 Release: version 1.0, May 2013, Q-Chem Inc. Pittsburgh 
 -------------------------------------------------------
 A restricted SCF calculation will be
 performed using DIIS, GDM
 SCF converges when RMS gradient is below 1.0e-08
 ---------------------------------------
  Cycle       Energy         DIIS error
 ---------------------------------------
    1    -784.9335263512      2.42e-06  
    2    -784.9335661339      8.14e-07  Done DIIS. Switching to GDM
 ---------------------------------------
  Cycle       Energy        RMS Gradient
 ---------------------------------------
    1    -784.9335661339      1.04e-05   Normal BFGS step
    2    -784.9335661356      1.33e-05   Normal BFGS step
    3    -784.9335661373      1.88e-06   Normal BFGS step
    4    -784.9335661374      1.24e-06   Normal BFGS step
    5    -784.9335661375      2.88e-07   Normal BFGS step
    6    -784.9335661375      2.32e-07   Normal BFGS step
    7    -784.9335661375      4.50e-08   Normal BFGS step
    8    -784.9335661375      2.73e-08   Normal BFGS step
    9    -784.9335661375      4.27e-09  Convergence criterion met
 ---------------------------------------
 SCF time:   CPU 390.12s  wall 15.00s 
(0)  E-EN(g) gas-phase elect-nuc energy                    0.000000000 a.u.
(3)  G-ENP(liq) elect-nuc-pol free energy of system     -784.933566137 a.u.
(4)  G-CDS(liq) cavity-dispersion-solvent structure 
     free energy                                               -0.3953 kcal/mol
(6)  G-S(liq) free energy of system                     -784.934196150 a.u.
(9)  DeltaG-S(liq) free energy of  solvation
     (9) = (6) - (0)                                      -492553.6422 kcal/mol
 SCF   energy in the final basis set =     -784.9335661375
 Total energy in the final basis set =     -784.9341961501
 
 --------------------------------------------------------------
 
                    Orbital Energies (a.u.)
 --------------------------------------------------------------
 
 Alpha MOs
 -- Occupied --
-89.382 -19.389 -19.388 -19.346 -19.345 -10.399 -10.399  -8.366
 -6.318  -6.316  -6.315  -2.164  -1.353  -1.227  -1.207  -1.177
 -0.926  -0.814  -0.778  -0.678  -0.671  -0.637  -0.622  -0.592
 -0.571  -0.540  -0.523  -0.510  -0.489  -0.487  -0.485  -0.440
 -0.428
 -- Virtual --
  0.008   0.017   0.017   0.019   0.042   0.061   0.066   0.068
  0.070   0.085   0.089   0.089   0.093   0.115   0.122   0.133
  0.135   0.135   0.140   0.149   0.171   0.175   0.179   0.195
  0.203   0.204   0.212   0.216   0.216   0.220   0.239   0.246
  0.263   0.273   0.275   0.278   0.292   0.307   0.321   0.341
  0.346   0.351   0.354   0.365   0.382   0.393   0.404   0.405
  0.415   0.421   0.427   0.444   0.471   0.501   0.567   0.581
  0.610   0.644   0.664   0.675   0.685   0.731   0.743   0.763
  0.769   0.784   0.827   0.848   0.865   0.900   1.013   1.018
  1.061   1.103   1.114   1.133   1.143   1.170   1.186   1.238
  1.249   1.251   1.307   1.321   1.333   1.376   1.382   1.404
  1.409   1.423   1.447   1.489   1.493   1.522   1.583   1.642
  1.655   1.667   1.688   1.755   1.799   1.831   1.846   1.861
  1.904   1.914   1.959   1.979   1.985   2.001   2.033   2.063
  2.101   2.116   2.176   2.193   2.214   2.267   2.279   2.346
  2.390   2.411   2.508   2.601   2.641   2.648   2.667   2.740
  2.757   2.810   2.835   2.916   2.935   2.941   2.973   3.117
  3.376   3.395   3.534   3.592   4.063   4.211   4.294   4.308
  4.378   4.530   4.757
 --------------------------------------------------------------
 
          Ground-State Mulliken Net Atomic Charges

     Atom                 Charge (a.u.)
  ----------------------------------------
      1 Li                    0.773905
      2 C                    -0.148851
      3 O                    -0.530854
      4 C                    -0.149951
      5 S                     1.786694
      6 O                    -0.535162
      7 O                    -0.594187
      8 O                    -0.587307
      9 H                     0.255949
     10 H                     0.237392
     11 H                     0.237368
     12 H                     0.255003
  ----------------------------------------
  Sum of atomic charges =     1.000000

 -----------------------------------------------------------------
                    Cartesian Multipole Moments
 -----------------------------------------------------------------
    Charge (ESU x 10^10)
                 4.8032
    Dipole Moment (Debye)
         X       3.5699      Y       0.2425      Z      -0.5797
       Tot       3.6248
    Quadrupole Moments (Debye-Ang)
        XX       6.7894     XY       0.7328     YY     -46.1997
        XZ      -1.5348     YZ       0.3457     ZZ     -50.3423
    Octopole Moments (Debye-Ang^2)
       XXX     113.4283    XXY       2.7761    XYY      -2.1731
       YYY       1.5447    XXZ      -6.6923    XYZ       2.8419
       YYZ      -1.5018    XZZ      -6.2832    YZZ       0.4579
       ZZZ      -4.6262
    Hexadecapole Moments (Debye-Ang^3)
      XXXX      10.1061   XXXY       7.7718   XXYY     -97.2994
      XYYY      -0.1783   YYYY    -189.2948   XXXZ     -19.5971
      XXYZ       8.1999   XYYZ      -0.6244   YYYZ      -0.0559
      XXZZ    -109.9478   XYZZ       0.5924   YYZZ     -55.6195
      XZZZ      -2.6456   YZZZ       1.0035   ZZZZ    -162.0182
 -----------------------------------------------------------------
 Calculating analytic gradient of the SCF energy
 Gradient of CDS energy
            1           2           3           4           5           6
    1   0.0000583  -0.0004671   0.0001892  -0.0004580  -0.0000281   0.0001872
    2   0.0000034   0.0010623  -0.0001534  -0.0010662   0.0000135   0.0001537
    3  -0.0000092  -0.0000513  -0.0000838   0.0000472  -0.0000224   0.0000907
            7           8           9          10          11          12
    1  -0.0001254  -0.0001338   0.0001839   0.0002240   0.0001817   0.0001879
    2  -0.0000287   0.0000233  -0.0001072  -0.0001246   0.0001298   0.0000941
    3   0.0000980  -0.0000878   0.0000395   0.0000577  -0.0000614  -0.0000172
 Gradient of SCF Energy
            1           2           3           4           5           6
    1   0.0064930   0.0423066  -0.0265190   0.0434917  -0.0063593  -0.0260875
    2   0.0001670  -0.0310442   0.0237709   0.0277680  -0.0002672  -0.0235882
    3  -0.0003778   0.0201338   0.0047906  -0.0148724  -0.0008359  -0.0057839
            7           8           9          10          11          12
    1   0.0199122   0.0202812  -0.0317437  -0.0046056  -0.0072907  -0.0298788
    2   0.0143749  -0.0145399   0.0171237   0.0142816  -0.0114337  -0.0166129
    3  -0.0402410   0.0422046   0.0293375  -0.0405699   0.0377857  -0.0315712
 Max gradient component =       4.349E-02
 RMS gradient           =       2.422E-02
 Computing VTN gradient.
 Updating gradient with PCM contributions...
 -- total gradient after adding PCM contribution --
---------------------------------------------------
  Atom         X              Y              Z     
---------------------------------------------------
   1      -0.000006       0.000064       0.000005
   2       0.000088      -0.000014       0.000070
   3      -0.000011      -0.000033       0.000077
   4      -0.000009       0.000017      -0.000082
   5       0.000049      -0.000022      -0.000022
   6      -0.000013       0.000019      -0.000085
   7      -0.000008       0.000055       0.000021
   8      -0.000015      -0.000110      -0.000032
   9      -0.000014      -0.000055       0.000112
  10      -0.000069       0.000110       0.000059
  11       0.000005      -0.000084      -0.000049
  12       0.000004       0.000053      -0.000074
---------------------------------------------------
 Number of fixed atoms: 0
 Gradient time:  CPU 76.85 s  wall 3.43 s
 ----------------------------------------------------------------
             Standard Nuclear Orientation (Angstroms)
    I     Atom           X                Y                Z
 ----------------------------------------------------------------
    1      Li      3.1419090146     0.0518628136    -0.1168409967
    2      C      -1.8521099563     0.7566548455    -0.0179795722
    3      O      -0.5136159713     1.0874917282     0.4922868974
    4      C      -1.8666744423    -0.7600684087     0.0006917605
    5      S       0.5217781864    -0.0151381950     0.0488662592
    6      O      -0.5027347564    -1.1213481122    -0.4117134988
    7      O       1.3430353009     0.3930583526    -1.0905375923
    8      O       1.3456376426    -0.4129204672     1.1819698225
    9      H      -2.5617892843     1.2000477835     0.6756762701
   10      H      -1.9450380885     1.1773577547    -1.0183223580
   11      H      -2.0359894359    -1.1650355502     0.9934899514
   12      H      -2.5359806707    -1.1928562834    -0.7382578323
 ----------------------------------------------------------------
 Nuclear Repulsion Energy =   484.1120914987 hartrees
 There are       33 alpha and       33 beta electrons
 Discretize the solute cavity surface with Lebedev spheres
	Using 302 Lebedev grid points for each H atom
	Using 302 Lebedev grid points for other atoms
	Atomic van der Waals radii will be scaled by 1.20
 Removing interior tesserae...
 Keep 1144 surface tesserae and discard 2480 interior tesserae
 Molecular Surface Area = 164.088 Angst**2

                       Distance Matrix (Angstroms)
             Li(  1)   C (  2)   O (  3)   C (  4)   S (  5)   O (  6)
   C (  2)  5.044475
   O (  3)  3.847912  1.470167
   C (  4)  5.075328  1.516908  2.342202
   S (  5)  2.626220  2.497094  1.576216  2.502388
   O (  6)  3.840156  2.345791  2.386694  1.470011  1.576534
   O (  7)  2.073752  3.389917  2.536676  3.580882  1.462644  2.482156
   O (  8)  2.264845  3.610177  2.486709  3.440186  1.456331  2.541294
   H (  9)  5.871847  1.086922  2.059445  2.186514  3.373123  3.288009
   H ( 10)  5.287385  1.089180  2.083023  2.190468  2.940429  2.780694
   H ( 11)  5.433628  2.179398  2.764544  1.085502  2.959181  2.080234
   H ( 12)  5.845846  2.187938  3.286972  1.086887  3.369937  2.060542
             O (  7)   O (  8)   H (  9)   H ( 10)   H ( 11)
   O (  8)  2.411203
   H (  9)  4.361009  4.257462
   H ( 10)  3.381090  4.266007  1.802922
   H ( 11)  4.264814  3.469381  2.443581  3.089088
   H ( 12)  4.205472  4.400288  2.779544  2.458773  1.802697
 
 Requested basis set is 6-31++G(d,p)
 There are 57 shells and 180 basis functions
 A cutoff of  1.0D-12 yielded   1574 shell pairs
 There are     16206 function pairs
 Smallest overlap matrix eigenvalue = 1.31E-04

 -----------------------------------------------------------------------
  General SCF calculation program by
  Eric Jon Sundstrom, Paul Horn, Yuezhi Mao, Dmitri Zuev, Alec White,
  David Stuck, Shaama M.S., Shane Yost, Joonho Lee, David Small,
  Daniel Levine, Susi Lehtola, Hugh Burton, Evgeny Epifanovsky
 -----------------------------------------------------------------------
 Exchange:     0.2220 Hartree-Fock + 1.0000 wB97X-D + LR-HF
 Correlation:  1.0000 wB97X-D
 Using SG-3 standard quadrature grid
 Dispersion:   Grimme D
 using 32 threads for integral computing
 -------------------------------------------------------
 OpenMP Integral computing Module                
 Release: version 1.0, May 2013, Q-Chem Inc. Pittsburgh 
 -------------------------------------------------------
 using 32 threads for integral computing
 -------------------------------------------------------
 OpenMP Integral computing Module                
 Release: version 1.0, May 2013, Q-Chem Inc. Pittsburgh 
 -------------------------------------------------------
 -------------------------------------------------------
 OpenMP BLAS3 based DFT computing Module                
 Release: version 1.0, May 2013, Q-Chem Inc. Pittsburgh 
 -------------------------------------------------------
 A restricted SCF calculation will be
 performed using DIIS, GDM
 SCF converges when RMS gradient is below 1.0e-08
 ---------------------------------------
  Cycle       Energy         DIIS error
 ---------------------------------------
    1    -784.9335671934      2.87e-06  
    2    -784.9336339314      4.06e-06  Done DIIS. Switching to GDM
 ---------------------------------------
  Cycle       Energy        RMS Gradient
 ---------------------------------------
    1    -784.9336339314      5.91e-05   Normal BFGS step
    2    -784.9336340376      2.98e-05   Normal BFGS step
    3    -784.9336340507      2.43e-05   Normal BFGS step
    4    -784.9336340593      4.37e-06   Normal BFGS step
    5    -784.9336340597      3.28e-06   Normal BFGS step
    6    -784.9336340598      6.65e-07   Normal BFGS step
    7    -784.9336340598      2.69e-07   Normal BFGS step
    8    -784.9336340598      6.67e-08   Normal BFGS step
    9    -784.9336340598      3.17e-08   Normal BFGS step
   10    -784.9336340599      1.64e-08   Normal BFGS step
   11    -784.9336340598      8.30e-09  Convergence criterion met
 ---------------------------------------
 SCF time:   CPU 464.73s  wall 18.00s 
(0)  E-EN(g) gas-phase elect-nuc energy                    0.000000000 a.u.
(3)  G-ENP(liq) elect-nuc-pol free energy of system     -784.933634060 a.u.
(4)  G-CDS(liq) cavity-dispersion-solvent structure 
     free energy                                               -0.3953 kcal/mol
(6)  G-S(liq) free energy of system                     -784.934264072 a.u.
(9)  DeltaG-S(liq) free energy of  solvation
     (9) = (6) - (0)                                      -492553.6848 kcal/mol
 SCF   energy in the final basis set =     -784.9336340598
 Total energy in the final basis set =     -784.9342640725
 
 --------------------------------------------------------------
 
                    Orbital Energies (a.u.)
 --------------------------------------------------------------
 
 Alpha MOs
 -- Occupied --
-89.382 -19.389 -19.388 -19.346 -19.345 -10.399 -10.399  -8.366
 -6.317  -6.316  -6.315  -2.164  -1.353  -1.227  -1.207  -1.177
 -0.926  -0.814  -0.778  -0.678  -0.671  -0.637  -0.622  -0.592
 -0.571  -0.540  -0.523  -0.510  -0.489  -0.487  -0.485  -0.440
 -0.428
 -- Virtual --
  0.008   0.017   0.017   0.019   0.043   0.061   0.066   0.068
  0.070   0.086   0.089   0.090   0.093   0.115   0.122   0.133
  0.135   0.135   0.140   0.149   0.171   0.175   0.179   0.195
  0.203   0.204   0.212   0.216   0.216   0.220   0.239   0.247
  0.263   0.273   0.275   0.278   0.292   0.307   0.321   0.341
  0.346   0.351   0.354   0.365   0.382   0.393   0.404   0.405
  0.415   0.421   0.427   0.444   0.471   0.501   0.567   0.581
  0.610   0.644   0.664   0.675   0.685   0.731   0.743   0.763
  0.769   0.784   0.827   0.849   0.865   0.900   1.013   1.018
  1.061   1.103   1.114   1.133   1.143   1.170   1.186   1.238
  1.249   1.251   1.307   1.321   1.333   1.376   1.382   1.404
  1.409   1.423   1.447   1.489   1.493   1.523   1.583   1.642
  1.655   1.667   1.688   1.755   1.799   1.832   1.846   1.861
  1.904   1.914   1.959   1.980   1.985   2.001   2.033   2.063
  2.101   2.116   2.176   2.193   2.214   2.268   2.279   2.346
  2.390   2.411   2.508   2.601   2.641   2.648   2.667   2.740
  2.757   2.810   2.835   2.916   2.935   2.941   2.973   3.117
  3.376   3.395   3.534   3.592   4.063   4.212   4.294   4.308
  4.378   4.530   4.757
 --------------------------------------------------------------
 
          Ground-State Mulliken Net Atomic Charges

     Atom                 Charge (a.u.)
  ----------------------------------------
      1 Li                    0.774019
      2 C                    -0.148789
      3 O                    -0.531123
      4 C                    -0.149984
      5 S                     1.787447
      6 O                    -0.535260
      7 O                    -0.594501
      8 O                    -0.587367
      9 H                     0.255910
     10 H                     0.237350
     11 H                     0.237334
     12 H                     0.254962
  ----------------------------------------
  Sum of atomic charges =     1.000000

 -----------------------------------------------------------------
                    Cartesian Multipole Moments
 -----------------------------------------------------------------
    Charge (ESU x 10^10)
                 4.8032
    Dipole Moment (Debye)
         X       3.5741      Y       0.2368      Z      -0.5782
       Tot       3.6282
    Quadrupole Moments (Debye-Ang)
        XX       6.7900     XY       0.7084     YY     -46.2026
        XZ      -1.5326     YZ       0.3485     ZZ     -50.3452
    Octopole Moments (Debye-Ang^2)
       XXX     113.4510    XXY       2.6929    XYY      -2.1714
       YYY       1.5536    XXZ      -6.6881    XYZ       2.8483
       YYZ      -1.5016    XZZ      -6.2820    YZZ       0.4622
       ZZZ      -4.6224
    Hexadecapole Moments (Debye-Ang^3)
      XXXX      10.0997   XXXY       7.5046   XXYY     -97.3142
      XYYY      -0.1610   YYYY    -189.3032   XXXZ     -19.5883
      XXYZ       8.2147   XYYZ      -0.6241   YYYZ      -0.0536
      XXZZ    -109.9524   XYZZ       0.6001   YYZZ     -55.6237
      XZZZ      -2.6400   YZZZ       1.0084   ZZZZ    -162.0326
 -----------------------------------------------------------------
 Calculating analytic gradient of the SCF energy
 Gradient of CDS energy
            1           2           3           4           5           6
    1   0.0000583  -0.0004671   0.0001892  -0.0004580  -0.0000281   0.0001872
    2   0.0000034   0.0010623  -0.0001534  -0.0010662   0.0000135   0.0001537
    3  -0.0000092  -0.0000513  -0.0000838   0.0000472  -0.0000224   0.0000907
            7           8           9          10          11          12
    1  -0.0001254  -0.0001338   0.0001839   0.0002240   0.0001817   0.0001879
    2  -0.0000287   0.0000233  -0.0001072  -0.0001246   0.0001298   0.0000941
    3   0.0000980  -0.0000878   0.0000395   0.0000577  -0.0000614  -0.0000172
 Gradient of SCF Energy
            1           2           3           4           5           6
    1   0.0064955   0.0422805  -0.0265552   0.0434769  -0.0064743  -0.0260544
    2   0.0001228  -0.0310423   0.0237765   0.0277704  -0.0002150  -0.0235830
    3  -0.0003872   0.0201238   0.0047966  -0.0148640  -0.0008644  -0.0057828
            7           8           9          10          11          12
    1   0.0199561   0.0203649  -0.0317348  -0.0045999  -0.0072846  -0.0298707
    2   0.0143935  -0.0145828   0.0171216   0.0142808  -0.0114336  -0.0166090
    3  -0.0403442   0.0423362   0.0293360  -0.0405624   0.0377804  -0.0315680
 Max gradient component =       4.348E-02
 RMS gradient           =       2.424E-02
 Computing VTN gradient.
 Updating gradient with PCM contributions...
 -- total gradient after adding PCM contribution --
---------------------------------------------------
  Atom         X              Y              Z     
---------------------------------------------------
   1       0.000022      -0.000101      -0.000070
   2       0.000071      -0.000017       0.000061
   3       0.000022      -0.000040       0.000080
   4      -0.000020       0.000021      -0.000072
   5      -0.000125       0.000040       0.000031
   6       0.000033       0.000034      -0.000078
   7       0.000021       0.000087       0.000042
   8       0.000043      -0.000050      -0.000039
   9      -0.000012      -0.000055       0.000113
  10      -0.000066       0.000111       0.000060
  11       0.000007      -0.000083      -0.000052
  12       0.000006       0.000053      -0.000076
---------------------------------------------------
 Number of fixed atoms: 0
 Gradient time:  CPU 77.09 s  wall 3.46 s
 ----------------------------------------------------------------
             Standard Nuclear Orientation (Angstroms)
    I     Atom           X                Y                Z
 ----------------------------------------------------------------
    1      Li      3.1419090146     0.0528628136    -0.1158409967
    2      C      -1.8521099563     0.7566548455    -0.0179795722
    3      O      -0.5136159713     1.0874917282     0.4922868974
    4      C      -1.8666744423    -0.7600684087     0.0006917605
    5      S       0.5217781864    -0.0151381950     0.0488662592
    6      O      -0.5027347564    -1.1213481122    -0.4117134988
    7      O       1.3430353009     0.3930583526    -1.0905375923
    8      O       1.3456376426    -0.4129204672     1.1819698225
    9      H      -2.5617892843     1.2000477835     0.6756762701
   10      H      -1.9450380885     1.1773577547    -1.0183223580
   11      H      -2.0359894359    -1.1650355502     0.9934899514
   12      H      -2.5359806707    -1.1928562834    -0.7382578323
 ----------------------------------------------------------------
 Nuclear Repulsion Energy =   484.1122851477 hartrees
 There are       33 alpha and       33 beta electrons
 Discretize the solute cavity surface with Lebedev spheres
	Using 302 Lebedev grid points for each H atom
	Using 302 Lebedev grid points for other atoms
	Atomic van der Waals radii will be scaled by 1.20
 Removing interior tesserae...
 Keep 1143 surface tesserae and discard 2481 interior tesserae
 Molecular Surface Area = 163.807 Angst**2

                       Distance Matrix (Angstroms)
             Li(  1)   C (  2)   O (  3)   C (  4)   S (  5)   O (  6)
   C (  2)  5.044316
   O (  3)  3.847485  1.470167
   C (  4)  5.075465  1.516908  2.342202
   S (  5)  2.626183  2.497094  1.576216  2.502388
   O (  6)  3.840539  2.345791  2.386694  1.470011  1.576534
   O (  7)  2.074057  3.389917  2.536676  3.580882  1.462644  2.482156
   O (  8)  2.264477  3.610177  2.486709  3.440186  1.456331  2.541294
   H (  9)  5.871517  1.086922  2.059445  2.186514  3.373123  3.288009
   H ( 10)  5.287343  1.089180  2.083023  2.190468  2.940429  2.780694
   H ( 11)  5.433647  2.179398  2.764544  1.085502  2.959181  2.080234
   H ( 12)  5.846165  2.187938  3.286972  1.086887  3.369937  2.060542
             O (  7)   O (  8)   H (  9)   H ( 10)   H ( 11)
   O (  8)  2.411203
   H (  9)  4.361009  4.257462
   H ( 10)  3.381090  4.266007  1.802922
   H ( 11)  4.264814  3.469381  2.443581  3.089088
   H ( 12)  4.205472  4.400288  2.779544  2.458773  1.802697
 
 Requested basis set is 6-31++G(d,p)
 There are 57 shells and 180 basis functions
 A cutoff of  1.0D-12 yielded   1574 shell pairs
 There are     16206 function pairs
 Smallest overlap matrix eigenvalue = 1.31E-04

 -----------------------------------------------------------------------
  General SCF calculation program by
  Eric Jon Sundstrom, Paul Horn, Yuezhi Mao, Dmitri Zuev, Alec White,
  David Stuck, Shaama M.S., Shane Yost, Joonho Lee, David Small,
  Daniel Levine, Susi Lehtola, Hugh Burton, Evgeny Epifanovsky
 -----------------------------------------------------------------------
 Exchange:     0.2220 Hartree-Fock + 1.0000 wB97X-D + LR-HF
 Correlation:  1.0000 wB97X-D
 Using SG-3 standard quadrature grid
 Dispersion:   Grimme D
 using 32 threads for integral computing
 -------------------------------------------------------
 OpenMP Integral computing Module                
 Release: version 1.0, May 2013, Q-Chem Inc. Pittsburgh 
 -------------------------------------------------------
 using 32 threads for integral computing
 -------------------------------------------------------
 OpenMP Integral computing Module                
 Release: version 1.0, May 2013, Q-Chem Inc. Pittsburgh 
 -------------------------------------------------------
 -------------------------------------------------------
 OpenMP BLAS3 based DFT computing Module                
 Release: version 1.0, May 2013, Q-Chem Inc. Pittsburgh 
 -------------------------------------------------------
 A restricted SCF calculation will be
 performed using DIIS, GDM
 SCF converges when RMS gradient is below 1.0e-08
 ---------------------------------------
  Cycle       Energy         DIIS error
 ---------------------------------------
    1    -784.9336348600      2.06e-06  
    2    -784.9335660953      3.96e-06  Done DIIS. Switching to GDM
 ---------------------------------------
  Cycle       Energy        RMS Gradient
 ---------------------------------------
    1    -784.9335660953      5.76e-05   Normal BFGS step
    2    -784.9335662073      1.52e-05   Normal BFGS step
    3    -784.9335662166      1.56e-05   Normal BFGS step
    4    -784.9335662203      5.32e-06   Normal BFGS step
    5    -784.9335662207      2.67e-06   Normal BFGS step
    6    -784.9335662208      9.76e-07   Normal BFGS step
    7    -784.9335662209      3.33e-07   Normal BFGS step
    8    -784.9335662209      9.67e-08   Normal BFGS step
    9    -784.9335662209      3.42e-08   Normal BFGS step
   10    -784.9335662209      2.17e-08   Normal BFGS step
   11    -784.9335662209      9.16e-09  Convergence criterion met
 ---------------------------------------
 SCF time:   CPU 464.63s  wall 17.00s 
(0)  E-EN(g) gas-phase elect-nuc energy                    0.000000000 a.u.
(3)  G-ENP(liq) elect-nuc-pol free energy of system     -784.933566221 a.u.
(4)  G-CDS(liq) cavity-dispersion-solvent structure 
     free energy                                               -0.3953 kcal/mol
(6)  G-S(liq) free energy of system                     -784.934196233 a.u.
(9)  DeltaG-S(liq) free energy of  solvation
     (9) = (6) - (0)                                      -492553.6422 kcal/mol
 SCF   energy in the final basis set =     -784.9335662209
 Total energy in the final basis set =     -784.9341962335
 
 --------------------------------------------------------------
 
                    Orbital Energies (a.u.)
 --------------------------------------------------------------
 
 Alpha MOs
 -- Occupied --
-89.382 -19.389 -19.388 -19.346 -19.345 -10.399 -10.399  -8.366
 -6.318  -6.316  -6.315  -2.164  -1.353  -1.227  -1.207  -1.177
 -0.926  -0.814  -0.778  -0.678  -0.671  -0.637  -0.622  -0.592
 -0.571  -0.540  -0.523  -0.510  -0.489  -0.487  -0.485  -0.440
 -0.428
 -- Virtual --
  0.008   0.017   0.017   0.019   0.042   0.061   0.066   0.068
  0.070   0.085   0.089   0.089   0.093   0.115   0.122   0.133
  0.135   0.135   0.140   0.149   0.171   0.175   0.179   0.195
  0.203   0.204   0.212   0.216   0.216   0.220   0.239   0.246
  0.263   0.273   0.275   0.278   0.292   0.307   0.321   0.341
  0.346   0.351   0.354   0.365   0.382   0.393   0.404   0.405
  0.415   0.421   0.427   0.444   0.471   0.501   0.567   0.581
  0.610   0.644   0.664   0.675   0.684   0.731   0.743   0.763
  0.769   0.784   0.827   0.848   0.865   0.900   1.013   1.018
  1.061   1.103   1.114   1.133   1.143   1.170   1.186   1.238
  1.249   1.251   1.307   1.321   1.333   1.376   1.382   1.404
  1.409   1.423   1.447   1.489   1.493   1.522   1.583   1.642
  1.655   1.667   1.688   1.755   1.799   1.832   1.846   1.861
  1.904   1.914   1.959   1.980   1.985   2.001   2.033   2.063
  2.101   2.116   2.176   2.193   2.214   2.267   2.279   2.346
  2.390   2.411   2.508   2.601   2.641   2.648   2.667   2.740
  2.757   2.810   2.835   2.916   2.935   2.941   2.973   3.117
  3.376   3.395   3.534   3.592   4.063   4.211   4.294   4.308
  4.378   4.530   4.757
 --------------------------------------------------------------
 
          Ground-State Mulliken Net Atomic Charges

     Atom                 Charge (a.u.)
  ----------------------------------------
      1 Li                    0.773891
      2 C                    -0.148889
      3 O                    -0.530862
      4 C                    -0.149943
      5 S                     1.786770
      6 O                    -0.535159
      7 O                    -0.594221
      8 O                    -0.587300
      9 H                     0.255947
     10 H                     0.237393
     11 H                     0.237369
     12 H                     0.255004
  ----------------------------------------
  Sum of atomic charges =     1.000000

 -----------------------------------------------------------------
                    Cartesian Multipole Moments
 -----------------------------------------------------------------
    Charge (ESU x 10^10)
                 4.8032
    Dipole Moment (Debye)
         X       3.5698      Y       0.2384      Z      -0.5756
       Tot       3.6237
    Quadrupole Moments (Debye-Ang)
        XX       6.7892     XY       0.7189     YY     -46.2002
        XZ      -1.5214     YZ       0.3464     ZZ     -50.3432
    Octopole Moments (Debye-Ang^2)
       XXX     113.4274    XXY       2.7316    XYY      -2.1747
       YYY       1.5467    XXZ      -6.6490    XYZ       2.8444
       YYZ      -1.5025    XZZ      -6.2867    YZZ       0.4588
       ZZZ      -4.6285
    Hexadecapole Moments (Debye-Ang^3)
      XXXX      10.1047   XXXY       7.6321   XXYY     -97.3044
      XYYY      -0.1729   YYYY    -189.2943   XXXZ     -19.4593
      XXYZ       8.2077   XYYZ      -0.6263   YYYZ      -0.0562
      XXZZ    -109.9587   XYZZ       0.5948   YYZZ     -55.6193
      XZZZ      -2.6519   YZZZ       1.0031   ZZZZ    -162.0170
 -----------------------------------------------------------------
 Calculating analytic gradient of the SCF energy
 Gradient of CDS energy
            1           2           3           4           5           6
    1   0.0000583  -0.0004671   0.0001892  -0.0004580  -0.0000281   0.0001872
    2   0.0000034   0.0010623  -0.0001534  -0.0010662   0.0000135   0.0001537
    3  -0.0000092  -0.0000513  -0.0000838   0.0000472  -0.0000224   0.0000907
            7           8           9          10          11          12
    1  -0.0001254  -0.0001338   0.0001839   0.0002240   0.0001817   0.0001879
    2  -0.0000287   0.0000233  -0.0001072  -0.0001246   0.0001298   0.0000941
    3   0.0000980  -0.0000878   0.0000395   0.0000577  -0.0000614  -0.0000172
 Gradient of SCF Energy
            1           2           3           4           5           6
    1   0.0064994   0.0423034  -0.0265206   0.0434943  -0.0063387  -0.0260860
    2   0.0001581  -0.0310443   0.0237751   0.0277681  -0.0002981  -0.0235840
    3  -0.0003721   0.0201327   0.0047809  -0.0148742  -0.0007702  -0.0057939
            7           8           9          10          11          12
    1   0.0199006   0.0202671  -0.0317438  -0.0046064  -0.0072900  -0.0298793
    2   0.0143934  -0.0145251   0.0171235   0.0142810  -0.0114345  -0.0166132
    3  -0.0402719   0.0421834   0.0293376  -0.0405684   0.0377876  -0.0315714
 Max gradient component =       4.349E-02
 RMS gradient           =       2.422E-02
 Computing VTN gradient.
 Updating gradient with PCM contributions...
 -- total gradient after adding PCM contribution --
---------------------------------------------------
  Atom         X              Y              Z     
---------------------------------------------------
   1       0.000001       0.000063       0.000008
   2       0.000088      -0.000014       0.000070
   3      -0.000013      -0.000030       0.000071
   4      -0.000009       0.000018      -0.000083
   5       0.000059      -0.000048       0.000027
   6      -0.000011       0.000022      -0.000091
   7      -0.000013       0.000066       0.000000
   8      -0.000026      -0.000101      -0.000049
   9      -0.000014      -0.000055       0.000112
  10      -0.000069       0.000110       0.000058
  11       0.000005      -0.000084      -0.000049
  12       0.000004       0.000053      -0.000074
---------------------------------------------------
 Number of fixed atoms: 0
 Gradient time:  CPU 77.64 s  wall 3.48 s
 ----------------------------------------------------------------
             Standard Nuclear Orientation (Angstroms)
    I     Atom           X                Y                Z
 ----------------------------------------------------------------
[...]
     6    1.049765470744595e-02   5.458177335984712e-03   9.875859708703432e-03
     7    6.989573385568233e-04   7.311571911157274e-04  -4.323517518537724e-04
     8    1.056900098873775e-03   5.287085102219234e-04   1.085566591028324e-03
     9   -1.066169176939570e-04   2.361725307596968e-05   2.001395300050703e-04
    10    2.993685085075050e-04  -1.847948025636414e-04   5.401181746996514e-04
    11   -1.597684925870703e-02  -1.098777918965007e-02  -1.425929325503389e-02
    12    1.302356071344591e-01   8.832961987376629e-02   1.911912261487663e-01




 # Finishing finite difference calculation for IDERIV #
 ######################################################
 ######################################################
 Requested basis set is 6-31++G(d,p)
 There are 57 shells and 180 basis functions
 **********************************************************************
 **                                                                  **
 **                       VIBRATIONAL ANALYSIS                       **
 **                       --------------------                       **
 **                                                                  **
 **        VIBRATIONAL FREQUENCIES (CM**-1) AND NORMAL MODES         **
 **     FORCE CONSTANTS (mDYN/ANGSTROM) AND REDUCED MASSES (AMU)     **
 **                  INFRARED INTENSITIES (KM/MOL)                   **
 **                                                                  **
 **********************************************************************
 

 Mode:                 1                      2                      3
 Frequency:      -119.44                 155.92                 279.10
 Force Cnst:      0.0677                 0.0686                 0.3365
 Red. Mass:       8.0498                 4.7927                 7.3326
 IR Active:          YES                    YES                    YES
 IR Intens:      143.234                 22.182                194.349
 Raman Active:       YES                    YES                    YES
               X      Y      Z        X      Y      Z        X      Y      Z
 Li        -0.290 -0.558  0.668    0.077 -0.062  0.075    0.794  0.234  0.429
 C         -0.022 -0.052  0.055   -0.074 -0.085  0.118   -0.041  0.028  0.069
 O         -0.013 -0.020  0.042    0.009  0.091 -0.167   -0.028 -0.036  0.050
 C          0.030 -0.052  0.054    0.084 -0.073  0.264   -0.094  0.026  0.011
 S         -0.001  0.068 -0.097   -0.002  0.029 -0.054   -0.019 -0.013 -0.066
 O          0.045 -0.005  0.028   -0.026  0.103 -0.206   -0.109 -0.012  0.022
 O         -0.062  0.107 -0.111    0.158  0.007  0.054   -0.069 -0.090 -0.119
 O          0.151  0.121 -0.155   -0.183 -0.077  0.037    0.016  0.009 -0.081
 H         -0.020 -0.068  0.066    0.002 -0.043  0.169   -0.013  0.030  0.098
 H         -0.024 -0.056  0.058   -0.179 -0.264  0.075   -0.046  0.061  0.086
 H          0.063 -0.061  0.053    0.371 -0.074  0.332   -0.123  0.016 -0.003
 H          0.037 -0.074  0.060   -0.102 -0.207  0.519   -0.107  0.084 -0.013
 TransDip  -0.252 -0.232  0.172    0.068 -0.070  0.115    0.406  0.126  0.137

 Mode:                 4                      5                      6
 Frequency:       300.02                 389.70                 447.75
 Force Cnst:      0.5339                 0.2613                 1.1598
 Red. Mass:      10.0663                 2.9205                 9.8188
 IR Active:          YES                    YES                    YES
 IR Intens:        5.470                 21.794                169.932
 Raman Active:       YES                    YES                    YES
               X      Y      Z        X      Y      Z        X      Y      Z
 Li         0.125  0.017  0.050   -0.030  0.002 -0.001   -0.203  0.280  0.102
 C          0.026  0.008 -0.208   -0.113 -0.008  0.213   -0.192  0.002 -0.126
 O          0.006  0.111 -0.229    0.032  0.073 -0.158   -0.115 -0.083 -0.042
 C         -0.020  0.025  0.133   -0.072 -0.055 -0.147   -0.201  0.056  0.105
 S         -0.006 -0.004  0.005    0.011  0.019 -0.017   -0.003 -0.034  0.051
 O          0.007 -0.141  0.319    0.006 -0.025  0.125   -0.175  0.147 -0.071
 O         -0.077  0.404  0.107    0.109 -0.024  0.028    0.283 -0.133  0.193
 O          0.024 -0.399 -0.157    0.004 -0.012 -0.019    0.434 -0.034 -0.214
 H         -0.001  0.153 -0.324    0.056 -0.188  0.496   -0.149  0.164 -0.180
 H         -0.040 -0.171 -0.306   -0.238  0.131  0.334   -0.146 -0.078 -0.181
 H         -0.088  0.135  0.202   -0.253 -0.162 -0.272   -0.073  0.100  0.169
 H          0.010 -0.116  0.188    0.082  0.168 -0.425   -0.226 -0.129  0.238
 TransDip   0.073  0.016 -0.000   -0.149 -0.004  0.003   -0.414  0.032  0.046

 Mode:                 7                      8                      9
 Frequency:       453.70                 500.95                 523.29
 Force Cnst:      1.4642                 1.2675                 1.8150
 Red. Mass:      12.0730                 8.5722                11.2493
 IR Active:          YES                    YES                    YES
 IR Intens:       30.679                143.510                181.121
 Raman Active:       YES                    YES                    YES
               X      Y      Z        X      Y      Z        X      Y      Z
 Li         0.115 -0.136 -0.122   -0.302  0.454  0.339   -0.355  0.456  0.176
 C          0.069  0.091  0.071    0.182  0.071  0.107    0.171  0.055  0.018
 O          0.053 -0.261 -0.078    0.270  0.092 -0.210    0.072 -0.101  0.257
 C         -0.219  0.103  0.084    0.075  0.033  0.012    0.015  0.054  0.099
 S          0.017 -0.218 -0.131   -0.087 -0.143  0.052   -0.076  0.060 -0.221
 O         -0.150 -0.206 -0.043   -0.021 -0.096 -0.184    0.045 -0.156  0.217
 O          0.170  0.390  0.182   -0.244 -0.017  0.013    0.321 -0.098 -0.048
 O         -0.029  0.391  0.111    0.079  0.008  0.011   -0.290 -0.070 -0.156
 H          0.186  0.193  0.131    0.315  0.060  0.245    0.100  0.121 -0.097
 H          0.023  0.087  0.078    0.101  0.065  0.136    0.252  0.094 -0.000
 H         -0.162  0.109  0.102    0.133 -0.004 -0.004   -0.029  0.099  0.122
 H         -0.295  0.164  0.122   -0.078  0.208  0.055    0.003  0.084  0.095
 TransDip   0.015 -0.153 -0.088   -0.350 -0.007  0.157   -0.373  0.170 -0.133

 Mode:                10                     11                     12
 Frequency:       679.19                 688.69                 809.74
 Force Cnst:      1.2135                 2.7992                 3.8022
 Red. Mass:       4.4648                10.0170                 9.8421
 IR Active:          YES                    YES                    YES
 IR Intens:        3.148                  9.588                 27.427
 Raman Active:       YES                    YES                    YES
               X      Y      Z        X      Y      Z        X      Y      Z
 Li         0.037 -0.023 -0.004    0.203 -0.187 -0.144    0.125 -0.079 -0.059
 C         -0.191  0.215  0.027    0.202 -0.088  0.017    0.205 -0.048  0.024
 O         -0.161 -0.004 -0.014    0.005  0.406  0.160    0.023 -0.221 -0.121
 C          0.230  0.191 -0.019    0.053 -0.150 -0.046    0.199 -0.025 -0.028
 S         -0.052 -0.069 -0.011   -0.203  0.027  0.013   -0.199 -0.084 -0.027
 O          0.183 -0.140 -0.022   -0.052 -0.259 -0.108    0.087  0.440  0.194
 O          0.004 -0.039  0.056    0.092 -0.045  0.259   -0.068 -0.046  0.230
 O          0.023  0.001 -0.049    0.082  0.128 -0.215   -0.064  0.103 -0.203
 H         -0.196 -0.142  0.254   -0.124 -0.142 -0.288    0.251 -0.031  0.046
 H         -0.199  0.432  0.162    0.241 -0.233 -0.074    0.110 -0.080  0.014
 H          0.381  0.294  0.094   -0.007 -0.206 -0.103    0.135 -0.084 -0.089
 H          0.159 -0.144  0.262   -0.118  0.223 -0.113    0.488 -0.111 -0.234
 TransDip  -0.043  0.031  0.021    0.087 -0.039 -0.028   -0.001 -0.161 -0.047

 Mode:                13                     14                     15
 Frequency:       846.62                 910.59                 937.41
 Force Cnst:      3.3785                 1.7411                 1.9848
 Red. Mass:       8.0003                 3.5640                 3.8335
 IR Active:          YES                    YES                    YES
 IR Intens:      338.420                 51.078                152.075
 Raman Active:       YES                    YES                    YES
               X      Y      Z        X      Y      Z        X      Y      Z
 Li         0.069 -0.083 -0.054    0.008  0.001 -0.002    0.048 -0.030 -0.023
 C          0.030  0.001 -0.042   -0.211  0.001 -0.134   -0.087  0.165 -0.011
 O          0.120 -0.331 -0.135    0.241  0.060  0.102    0.119 -0.030  0.009
 C          0.125  0.018 -0.051    0.102 -0.089 -0.090   -0.257 -0.153  0.048
 S         -0.052  0.296  0.113   -0.009 -0.041 -0.021   -0.045  0.034  0.016
 O         -0.158 -0.213 -0.060   -0.141  0.043  0.061    0.251 -0.012 -0.057
 O         -0.017 -0.054  0.084    0.009  0.037  0.012   -0.030 -0.026  0.041
 O         -0.007 -0.006 -0.075   -0.016  0.036  0.008   -0.019  0.005 -0.040
 H          0.399 -0.040  0.350   -0.081 -0.236  0.141    0.169  0.640 -0.032
 H          0.053  0.357  0.133   -0.117  0.380  0.029    0.037  0.099 -0.062
 H          0.097  0.181  0.070    0.159  0.070  0.047   -0.096 -0.195  0.054
 H         -0.252  0.029  0.294    0.109 -0.680  0.245    0.001 -0.524  0.021
 TransDip   0.172  0.543  0.153   -0.157 -0.109 -0.126   -0.391  0.031  0.043

 Mode:                16                     17                     18
 Frequency:      1028.55                1051.16                1200.97
 Force Cnst:      1.8626                 1.0571                 1.7054
 Red. Mass:       2.9882                 1.6239                 2.0068
 IR Active:          YES                    YES                    YES
 IR Intens:      232.898                 60.722                170.200
 Raman Active:       YES                    YES                    YES
               X      Y      Z        X      Y      Z        X      Y      Z
 Li         0.026 -0.014 -0.014   -0.005  0.004 -0.002    0.022 -0.016 -0.009
 C         -0.176 -0.187 -0.031   -0.100  0.094  0.027    0.006  0.022 -0.137
 O          0.173 -0.029  0.025    0.020 -0.030  0.008   -0.001 -0.000  0.011
 C         -0.041  0.194  0.049    0.138 -0.076  0.051    0.000 -0.050  0.145
 S         -0.025  0.007  0.001    0.005 -0.000 -0.003   -0.082 -0.003  0.010
 O          0.123 -0.005 -0.014   -0.067 -0.022 -0.005    0.024  0.010 -0.029
 O         -0.026 -0.011  0.037    0.002  0.006 -0.000    0.063  0.030 -0.082
 O         -0.025  0.018 -0.030    0.003  0.003  0.003    0.050 -0.021  0.068
 H         -0.331 -0.227 -0.165   -0.085  0.579 -0.250    0.278 -0.388  0.386
 H         -0.118 -0.345 -0.108   -0.075 -0.281 -0.174   -0.063  0.364  0.056
 H         -0.104  0.125 -0.025   -0.072 -0.211 -0.101   -0.272 -0.074  0.062
 H         -0.141  0.664 -0.133    0.315  0.358 -0.373    0.297  0.334 -0.360
 TransDip  -0.480  0.076 -0.053    0.165  0.144 -0.119   -0.410 -0.004  0.082

 Mode:                19                     20                     21
 Frequency:      1215.41                1269.38                1284.19
 Force Cnst:      4.0510                 1.0941                 1.1997
 Red. Mass:       4.6545                 1.1525                 1.2347
 IR Active:          YES                    YES                    YES
 IR Intens:      245.144                  9.955                  5.475
 Raman Active:       YES                    YES                    YES
               X      Y      Z        X      Y      Z        X      Y      Z
 Li        -0.042  0.026  0.022    0.001 -0.001  0.001    0.001 -0.000 -0.003
 C         -0.008  0.045 -0.121   -0.010 -0.050 -0.032    0.023 -0.040  0.055
 O         -0.041  0.035  0.026   -0.017  0.023  0.039    0.011 -0.005 -0.014
 C         -0.027 -0.051  0.134    0.004  0.069 -0.035   -0.023  0.091  0.034
 S          0.200 -0.003 -0.031   -0.003 -0.005  0.001   -0.006  0.017 -0.002
 O         -0.024 -0.016 -0.038   -0.002 -0.014 -0.004   -0.024 -0.031 -0.038
 O         -0.158 -0.082  0.210    0.003  0.001 -0.001   -0.002 -0.002  0.003
 O         -0.129  0.056 -0.167   -0.002  0.002 -0.002    0.007 -0.006  0.006
 H          0.202 -0.392  0.361    0.625  0.265  0.407   -0.195 -0.059 -0.155
 H         -0.142  0.315  0.051   -0.316 -0.443 -0.140    0.106 -0.040  0.039
 H         -0.367 -0.033  0.073    0.017  0.084 -0.023   -0.298  0.182  0.041
 H          0.252  0.223 -0.295    0.117 -0.156 -0.003    0.669 -0.522 -0.240
 TransDip   0.497 -0.028 -0.059    0.083 -0.035 -0.045    0.035  0.049  0.045

 Mode:                22                     23                     24
 Frequency:      1293.11                1413.29                1573.07
 Force Cnst:     19.0683                 1.5703                 1.6344
 Red. Mass:      19.3548                 1.3344                 1.1210
 IR Active:          YES                    YES                    YES
 IR Intens:      452.497                  5.074                  3.586
 Raman Active:       YES                    YES                    YES
               X      Y      Z        X      Y      Z        X      Y      Z
 Li        -0.006 -0.020  0.048   -0.000  0.002 -0.001    0.001 -0.002  0.002
 C         -0.010 -0.003  0.016   -0.050 -0.152 -0.002    0.005 -0.011 -0.017
 O         -0.001  0.005 -0.029   -0.027  0.030 -0.005    0.003  0.000 -0.002
 C         -0.001  0.011  0.015    0.023  0.024  0.008   -0.081  0.037  0.014
 S          0.054 -0.164  0.481    0.004 -0.011 -0.006    0.006  0.006  0.005
 O         -0.010 -0.006 -0.037    0.005  0.002 -0.000   -0.024 -0.017  0.013
 O          0.255  0.147 -0.409   -0.004  0.002  0.005   -0.002 -0.004  0.002
 O         -0.339  0.185 -0.527   -0.002  0.002 -0.002   -0.004  0.001 -0.003
 H         -0.086 -0.009 -0.052    0.285  0.571 -0.102    0.001 -0.038 -0.005
 H          0.045  0.030  0.021    0.358  0.588  0.256    0.020  0.072  0.018
 H         -0.124  0.047  0.015   -0.031  0.067  0.027    0.872 -0.253  0.008
 H          0.115 -0.081 -0.036    0.009  0.088 -0.012    0.257  0.032 -0.304
 TransDip   0.100 -0.203  0.643    0.048  0.036 -0.041    0.013  0.051 -0.030

 Mode:                25                     26                     27
 Frequency:      1796.58                1822.09                3220.53
 Force Cnst:      2.1360                 2.0987                 6.6373
 Red. Mass:       1.1232                 1.0729                 1.0861
 IR Active:          YES                    YES                    YES
 IR Intens:        9.181                  8.509                  5.071
 Raman Active:       YES                    YES                    YES
               X      Y      Z        X      Y      Z        X      Y      Z
 Li        -0.000  0.001  0.002   -0.000  0.003 -0.005    0.000  0.000 -0.000
 C          0.004  0.004  0.020   -0.066  0.023  0.026   -0.058  0.038  0.048
 O          0.002 -0.001  0.005   -0.009  0.003 -0.006   -0.001 -0.000  0.000
 C         -0.018 -0.083 -0.051    0.001 -0.006 -0.005   -0.002 -0.002 -0.002
 S         -0.000 -0.001 -0.000    0.003 -0.002 -0.003    0.000 -0.000 -0.000
 O          0.004  0.008 -0.006   -0.004  0.002  0.004    0.000 -0.000 -0.000
 O          0.001  0.004  0.002   -0.003  0.004  0.000   -0.000  0.000 -0.000
 O          0.000 -0.004 -0.000    0.001 -0.001 -0.003    0.000 -0.000 -0.000
 H         -0.019  0.035 -0.020    0.091 -0.151  0.303    0.646 -0.393 -0.642
 H         -0.077 -0.047  0.021    0.826 -0.192 -0.384    0.033 -0.037  0.074
 H          0.148  0.703  0.609    0.023  0.042  0.038    0.001  0.001  0.001
 H          0.021  0.165 -0.254   -0.001  0.013 -0.018    0.023  0.017  0.025
 TransDip   0.059  0.077 -0.004    0.037 -0.078  0.036    0.028 -0.005 -0.066

 Mode:                28                     29                     30
 Frequency:      3228.50                3631.56                5998.93
 Force Cnst:      6.6886                 8.4507                22.9775
 Red. Mass:       1.0891                 1.0876                 1.0837
 IR Active:          YES                    YES                    YES
 IR Intens:        3.053                  6.147                 29.364
 Raman Active:       YES                    YES                    YES
               X      Y      Z        X      Y      Z        X      Y      Z
 Li         0.000 -0.000 -0.000   -0.000  0.001 -0.002   -0.000 -0.001 -0.001
 C          0.002 -0.001 -0.001   -0.016  0.035 -0.076   -0.000 -0.000 -0.002
 O          0.001  0.000  0.000   -0.001 -0.001  0.002    0.000  0.001 -0.003
 C         -0.054 -0.037 -0.056    0.001 -0.002  0.000    0.015  0.052 -0.063
 S          0.000  0.000  0.000    0.000 -0.000 -0.001   -0.000 -0.000 -0.000
 O         -0.001  0.000  0.000   -0.003  0.001  0.002    0.000 -0.001  0.003
 O         -0.000  0.000 -0.000   -0.001  0.002 -0.000   -0.000 -0.003 -0.001
 O          0.000 -0.000 -0.000    0.001 -0.001 -0.002    0.000  0.003  0.001
 H         -0.025  0.013  0.024   -0.041  0.023  0.055    0.001  0.002 -0.002
 H         -0.003  0.003 -0.010    0.279 -0.442  0.845    0.000 -0.003 -0.002
 H          0.008  0.016 -0.007    0.003 -0.003 -0.002   -0.179 -0.604  0.772
 H          0.623  0.400  0.665    0.002  0.005  0.005    0.003 -0.001  0.008
 TransDip   0.017  0.004  0.053   -0.056  0.031 -0.048    0.066  0.028 -0.158

 STANDARD THERMODYNAMIC QUANTITIES AT   298.15 K  AND     1.00 ATM

   This Molecule has  1 Imaginary Frequencies
   Zero point vibrational energy:       55.682 kcal/mol

   Atom    1 Element Li Has Mass    7.01600
   Atom    2 Element C  Has Mass   12.00000
   Atom    3 Element O  Has Mass   15.99491
   Atom    4 Element C  Has Mass   12.00000
   Atom    5 Element S  Has Mass   31.97207
   Atom    6 Element O  Has Mass   15.99491
   Atom    7 Element O  Has Mass   15.99491
   Atom    8 Element O  Has Mass   15.99491
   Atom    9 Element H  Has Mass    1.00783
   Atom   10 Element H  Has Mass    1.00783
   Atom   11 Element H  Has Mass    1.00783
   Atom   12 Element H  Has Mass    1.00783
   Molecular Mass:   130.999030 amu
   Principal axes and moments of inertia in amu*Bohr^2:
                             1           2           3
    Eigenvalues --      409.94954  1064.71968  1109.78168
          X               0.99999    -0.00476     0.00158
          Y               0.00481     0.99948    -0.03201
          Z              -0.00143     0.03202     0.99949
   Rotational Symmetry Number is   1
   The Molecule is an Asymmetric Top
   Translational Enthalpy:        0.889 kcal/mol
   Rotational Enthalpy:           0.889 kcal/mol
   Vibrational Enthalpy:         57.816 kcal/mol
   gas constant (RT):             0.592 kcal/mol
   Translational Entropy:        40.523  cal/mol.K
   Rotational Entropy:           27.673  cal/mol.K
   Vibrational Entropy:          11.038  cal/mol.K

   Total Enthalpy:               60.186 kcal/mol
   Total Entropy:                79.234  cal/mol.K
Archival summary:
1\1\nid01014\FREQ\ProcedureUnspecified\BasisUnspecified\142i14(1+,1)\sblau\FriDec2816:34:322018FriDec2816:34:322018\0\\#,FREQ,ProcedureUnspecified,BasisUnspecified,\\1,1\S\O,1,1.45633\O,1,1.46264,2,111.389\O,1,1.57622,2,110.108,3,-126.34,0\C,4,1.47017,1,110.059,2,-133.368,0\H,5,1.08692,4,106.329,1,152.195,0\H,5,1.08918,4,108.031,1,-87.5429,0\C,5,1.51691,4,103.266,1,32.8128,0\H,8,1.0855,5,112.692,4,78.4363,0\H,8,1.08689,5,113.309,4,-152.856,0\O,8,1.47001,5,103.496,4,-38.0182,0\Li,3,2.07359,1,94.3309,2,0.099193,0\\\@

 Total job time:  1543.15s(wall), 39174.10s(cpu) 
 Fri Dec 28 16:34:32 2018

        *************************************************************
        *                                                           *
        *  Thank you very much for using Q-Chem.  Have a nice day.  *
        *                                                           *
        *************************************************************


