
Running Job 1 of 1 mol.qin
qchem mol.qin_17356.0 /tmp/chain_scratch/ 1
/global/common/cori/software/qchem/5.1/exe/qcprog.exe mol.qin_17356.0 /tmp/chain_scratch/
Check license passed

                  Welcome to Q-Chem
     A Quantum Leap Into The Future Of Chemistry


 Q-Chem 5.1, Q-Chem, Inc., Pleasanton, CA (2018)

 Yihan Shao,  Zhengting Gan,  E. Epifanovsky,  A. T. B. Gilbert,  M. Wormit,  
 J. Kussmann,  A. W. Lange,  A. Behn,  Jia Deng,  Xintian Feng,  D. Ghosh,  
 M. Goldey,  P. R. Horn,  L. D. Jacobson,  I. Kaliman,  T. Kus,  A. Landau,  
 Jie Liu,  E. I. Proynov,  R. M. Richard,  R. P. Steele,  E. J. Sundstrom,  
 H. L. Woodcock III,  P. M. Zimmerman,  D. Zuev,  B. Albrecht,  E. Alguire,  
 S. A. Baeppler,  D. Barton,  Z. Benda,  Y. A. Bernard,  E. J. Berquist,  
 K. B. Bravaya,  H. Burton,  D. Casanova,  Chun-Min Chang,  Yunqing Chen,  
 A. Chien,  K. D. Closser,  M. P. Coons,  S. Coriani,  S. Dasgupta,  
 A. L. Dempwolff,  M. Diedenhofen,  Hainam Do,  R. G. Edgar,  Po-Tung Fang,  
 S. Faraji,  S. Fatehi,  Qingguo Feng,  K. D. Fenk,  J. Fosso-Tande,  
 Qinghui Ge,  A. Ghysels,  G. Gidofalvi,  J. Gomes,  J. Gonthier,  A. Gunina,  
 D. Hait,  M. W. D. Hanson-Heine,  P. H. P. Harbach,  A. W. Hauser,  
 J. E. Herr,  E. G. Hohenstein,  Z. C. Holden,  Kerwin Hui,  B. C. Huynh,  
 T.-C. Jagau,  Hyunjun Ji,  B. Kaduk,  K. Khistyaev,  Jaehoon Kim,  
 P. Klunzinger,  K. Koh,  D. Kosenkov,  L. Koulias,  T. Kowalczyk,  
 C. M. Krauter,  A. Kunitsa,  Ka Un Lao,  A. Laurent,  K. V. Lawler,  
 Joonho Lee,  D. Lefrancois,  S. Lehtola,  D. S. Levine,  Yi-Pei Li,  
 You-Sheng Lin,  Fenglai Liu,  E. Livshits,  A. Luenser,  P. Manohar,  
 E. Mansoor,  S. F. Manzer,  Shan-Ping Mao,  Yuezhi Mao,  N. Mardirossian,  
 A. V. Marenich,  T. Markovich,  L. A. Martinez-Martinez,  S. A. Maurer,  
 N. J. Mayhall,  S. C. McKenzie,  J.-M. Mewes,  A. F. Morrison,  
 J. W. Mullinax,  K. Nanda,  T. S. Nguyen-Beck,  R. Olivares-Amaya,  
 J. A. Parkhill,  T. M. Perrine,  F. Plasser,  P. Pokhilko,  S. Prager,  
 A. Prociuk,  E. Ramos,  D. R. Rehn,  F. Rob,  M. Schneider,  N. Sergueev,  
 S. M. Sharada,  S. Sharma,  D. W. Small,  T. Stauch,  T. Stein,  
 Yu-Chuan Su,  A. J. W. Thom,  A. Tkatchenko,  T. Tsuchimochi,  N. M. Tubman,  
 L. Vogt,  M. L. Vidal,  O. Vydrov,  M. A. Watson,  J. Wenzel,  
 M. de Wergifosse,  T. A. Wesolowski,  A. White,  J. Witte,  A. Yamada,  
 Jun Yang,  K. Yao,  S. Yeganeh,  S. R. Yost,  Zhi-Qiang You,  A. Zech,  
 Igor Ying Zhang,  Xing Zhang,  Yan Zhao,  Ying Zhu,  B. R. Brooks,  
 G. K. L. Chan,  C. J. Cramer,  M. S. Gordon,  W. J. Hehre,  A. Klamt,  
 M. W. Schmidt,  C. D. Sherrill,  D. G. Truhlar,  A. Aspuru-Guzik,  R. Baer,  
 A. T. Bell,  N. A. Besley,  Jeng-Da Chai,  R. A. DiStasio Jr.,  A. Dreuw,  
 B. D. Dunietz,  T. R. Furlani,  Chao-Ping Hsu,  Yousung Jung,  Jing Kong,  
 D. S. Lambrecht,  WanZhen Liang,  C. Ochsenfeld,  V. A. Rassolov,  
 L. V. Slipchenko,  J. E. Subotnik,  T. Van Voorhis,  J. M. Herbert,  
 A. I. Krylov,  P. M. W. Gill,  M. Head-Gordon

 Contributors to earlier versions of Q-Chem not listed above: 
 R. D. Adamson,  B. Austin,  J. Baker,  G. J. O. Beran,  K. Brandhorst,  
 S. T. Brown,  E. F. C. Byrd,  A. K. Chakraborty,  C.-L. Cheng,  
 Siu Hung Chien,  D. M. Chipman,  D. L. Crittenden,  H. Dachsel,  
 R. J. Doerksen,  A. D. Dutoi,  L. Fusti-Molnar,  W. A. Goddard III,  
 A. Golubeva-Zadorozhnaya,  S. R. Gwaltney,  G. Hawkins,  A. Heyden,  
 S. Hirata,  G. Kedziora,  F. J. Keil,  C. Kelley,  Jihan Kim,  R. A. King,  
 R. Z. Khaliullin,  P. P. Korambath,  W. Kurlancheek,  A. M. Lee,  M. S. Lee,  
 S. V. Levchenko,  Ching Yeh Lin,  D. Liotard,  R. C. Lochan,  I. Lotan,  
 P. E. Maslen,  N. Nair,  D. P. O'Neill,  D. Neuhauser,  E. Neuscamman,  
 C. M. Oana,  R. Olson,  B. Peters,  R. Peverati,  P. A. Pieniazek,  
 Y. M. Rhee,  J. Ritchie,  M. A. Rohrdanz,  E. Rosta,  N. J. Russ,  
 H. F. Schaefer III,  N. E. Schultz,  N. Shenvi,  A. C. Simmonett,  A. Sodt,  
 D. Stuck,  K. S. Thanthiriwatte,  V. Vanovschi,  Tao Wang,  A. Warshel,  
 C. F. Williams,  Q. Wu,  X. Xu,  W. Zhang

 Please cite Q-Chem as follows:
 Y. Shao et al., Mol. Phys. 113, 184-215 (2015)
 DOI: 10.1080/00268976.2014.952696

 Q-Chem 5.1.0 for Intel X86 EM64T Linux

 Parts of Q-Chem use Armadillo 8.300.2 (Tropical Shenanigans).
 http://arma.sourceforge.net/

 Q-Chem begins on Fri Dec 28 13:05:27 2018  

Host: cori08
0

     Scratch files written to /tmp/chain_scratch//
 Jun2518 |scratch|qcdevops|jenkins|workspace|build_RNUM -1
Processing $rem in /global/common/cori/software/qchem/5.1/config/preferences.
 MEM_TOTAL  96000 
The previous job contains 0 fragments, simply inherited here
Symmetry turned off for PCM/SM12/SMD calculation

Checking the input file for inconsistencies... 	...done.

--------------------------------------------------------------
User input:
--------------------------------------------------------------
$molecule
read
$end

$rem
job_type = freq
basis = 6-31++g**
max_scf_cycles = 200
gen_scfman = true
xc_grid = 3
scf_algorithm = diis_gdm
method = wb97xd
geom_opt_max_cycles = 200
solvent_method = smd
ideriv = 1
scf_guess = read
$end

$smx
solvent acetonitrile
$end
--------------------------------------------------------------
 ----------------------------------------------------------------
             Standard Nuclear Orientation (Angstroms)
    I     Atom           X                Y                Z
 ----------------------------------------------------------------
    1      Li      3.1363248309     0.0204339684    -0.0854314542
    2      C      -1.8550148150     0.7574588382    -0.0166357913
    3      O      -0.5109658361     1.0979653044     0.4720945387
    4      C      -1.8631937726    -0.7594697741     0.0088339634
    5      S       0.5230183782    -0.0067313227     0.0318602857
    6      O      -0.5018942310    -1.1181541048    -0.4138509288
    7      O       1.3424977048     0.3905444236    -1.1114809438
    8      O       1.3515840613    -0.3951759689     1.1664567189
    9      H      -2.5566597853     1.2010870734     0.6849607822
   10      H      -1.9652995791     1.1721956793    -1.0182718757
   11      H      -2.0249748379    -1.1630190386     1.0040410558
   12      H      -2.5369945796    -1.1970288166    -0.7232472399
 ----------------------------------------------------------------
 Nuclear Repulsion Energy =   484.1595460300 hartrees
 There are       33 alpha and       33 beta electrons
 Requested basis set is 6-31++G(d,p)
 There are 57 shells and 180 basis functions

 Total QAlloc Memory Limit  96000 MB
 Mega-Array Size       188 MB
 MEM_STATIC part       192 MB

                       Distance Matrix (Angstroms)
             Li(  1)   C (  2)   O (  3)   C (  4)   S (  5)   O (  6)
   C (  2)  5.045930
   O (  3)  3.843779  1.470126
   C (  4)  5.060862  1.517164  2.343757
   S (  5)  2.616078  2.498275  1.575844  2.502230
   O (  6)  3.826340  2.346623  2.386664  1.469848  1.576187
   O (  7)  2.099423  3.399617  2.538402  3.585261  1.461713  2.482869
   O (  8)  2.219292  3.607014  2.486102  3.436218  1.457642  2.540758
   H (  9)  5.864940  1.086899  2.059323  2.186739  3.371911  3.287602
   H ( 10)  5.312562  1.089699  2.083696  2.190138  2.946926  2.784346
   H ( 11)  5.406156  2.181491  2.772587  1.086031  2.962162  2.081395
   H ( 12)  5.837429  2.187331  3.286432  1.086926  3.369076  2.059995
             O (  7)   O (  8)   H (  9)   H ( 10)   H ( 11)
   O (  8)  2.409655
   H (  9)  4.368937  4.249031
   H ( 10)  3.400175  4.269826  1.803204
   H ( 11)  4.269527  3.466571  2.444074  3.089747
   H ( 12)  4.209700  4.397157  2.781078  2.455015  1.801901
 
 A cutoff of  1.0D-12 yielded   1574 shell pairs
 There are     16206 function pairs
 
 -------------------------------------------------------
 OpenMP Integral Computing Module                       
 Release: version 1.0, May 2013, Q-Chem Inc. Pittsburgh 
 -------------------------------------------------------
 Integral Job Info:
 Integral job number is                      11
 Integral operator is                         1
 short-range coefficients              22203600
 long-range coefficients              100000000
 Omega coefficients                         200
 if combine SR and LR in K                    1
 Integral screening is                        0
 Integral computing path is                   2
 max size of driver memory is            800000
 size of driver memory is                593474
 size of scratch memory is             15604072
 max col of scratch BK array               1296
 max len of scratch array in speh3          155
 max len of scratch index in speh4           18
 max int batch size is                      520
 min int batch size is                       52
 fixed nKL is                                52
 max L of basis functions is                  2
 order of int derivative is                   0
 number of shells is                         57
 number of basis is                         180
 number of cartesian basis is               180
 number of contracted shell pairs          1574
 number of primitive shell pairs           5390
 maxK2 (contraction) of shell pair           36
 max number of K2 of shell pair               1
 max number of CS2 of shell pair            176
 max number of PS2 of shell pair           1056
 mem total for path MDJ                  537180
 -------------------------------------------------------
 Smallest overlap matrix eigenvalue = 1.31E-04

 -----------------------------------------------------------------------
  General SCF calculation program by
  Eric Jon Sundstrom, Paul Horn, Yuezhi Mao, Dmitri Zuev, Alec White,
  David Stuck, Shaama M.S., Shane Yost, Joonho Lee, David Small,
  Daniel Levine, Susi Lehtola, Hugh Burton, Evgeny Epifanovsky
 -----------------------------------------------------------------------
 Exchange:     0.2220 Hartree-Fock + 1.0000 wB97X-D + LR-HF
 Correlation:  1.0000 wB97X-D
 Using SG-3 standard quadrature grid
 Dispersion:   Grimme D
 
 Citation of the SMD model:
 Marenich, A.V.; Cramer, C.J.; Truhlar, D.G.
 J. Phys. Chem. B 2009, 113, 6378-6396.
 iSolventCode=          53
 Solvent: acetonitrile                                                    
 
 vradii
            1           2           3           4           5           6
    1   2.1476001   1.8500000   2.1680000   1.8500000   2.4900000   2.1680000
            7           8           9          10          11          12
    1   2.1680000   2.1680000   1.2000000   1.2000000   1.2000000   1.2000000
Changing PCM_TESSEL_METHOD to VTN
Changing PCM_VDW_RADII to SMD_RADIUS
 Discretize the solute cavity surface with Lebedev spheres
	Using 302 Lebedev grid points for each H atom
	Using 302 Lebedev grid points for other atoms
	Atomic van der Waals radii will be scaled by 1.20
 Removing interior tesserae...
 Keep 1147 surface tesserae and discard 2477 interior tesserae
 Molecular Surface Area = 164.475 Angst**2
 
 Citation of the SMD model:
 Marenich, A.V.; Cramer, C.J.; Truhlar, D.G.
 J. Phys. Chem. B 2009, 113, 6378-6396.
 iSolventCode=          53
 Solvent: acetonitrile                                                    
 
 vradii
            1           2           3           4           5           6
    1   2.1476001   1.8500000   2.1680000   1.8500000   2.4900000   2.1680000
            7           8           9          10          11          12
    1   2.1680000   2.1680000   1.2000000   1.2000000   1.2000000   1.2000000
 using 32 threads for integral computing
 -------------------------------------------------------
 OpenMP Integral computing Module                
 Release: version 1.0, May 2013, Q-Chem Inc. Pittsburgh 
 -------------------------------------------------------
 using 32 threads for integral computing
 -------------------------------------------------------
 OpenMP Integral computing Module                
 Release: version 1.0, May 2013, Q-Chem Inc. Pittsburgh 
 -------------------------------------------------------
 -------------------------------------------------------
 OpenMP BLAS3 based DFT computing Module                
 Release: version 1.0, May 2013, Q-Chem Inc. Pittsburgh 
 -------------------------------------------------------
 A restricted SCF calculation will be
 performed using DIIS, GDM
 SCF converges when RMS gradient is below 1.0e-08
 ---------------------------------------
  Cycle       Energy         DIIS error
 ---------------------------------------
    1    -784.8385206144      4.04e-04  
    2    -784.9324423471      4.42e-04  Done DIIS. Switching to GDM
 ---------------------------------------
  Cycle       Energy        RMS Gradient
 ---------------------------------------
    1    -784.9324423471      6.42e-03   Normal BFGS step
    2    -784.9334167613      2.95e-03   Normal BFGS step
    3    -784.9336510081      1.19e-03   Normal BFGS step
    4    -784.9336901695      5.16e-04   Normal BFGS step
    5    -784.9336940960      2.54e-04   Normal BFGS step
    6    -784.9336953822      9.40e-05   Normal BFGS step
    7    -784.9336955434      5.58e-05   Normal BFGS step
    8    -784.9336955966      8.39e-06   Normal BFGS step
    9    -784.9336955988      7.45e-06   Normal BFGS step
   10    -784.9336955993      2.78e-06   Normal BFGS step
   11    -784.9336955994      8.49e-07   Normal BFGS step
   12    -784.9336955994      1.48e-07   Normal BFGS step
   13    -784.9336955994      3.35e-08   Normal BFGS step
   14    -784.9336955994      9.86e-09  Convergence criterion met
 ---------------------------------------
 SCF time:   CPU 582.78s  wall 22.00s 
(0)  E-EN(g) gas-phase elect-nuc energy                    0.000000000 a.u.
(3)  G-ENP(liq) elect-nuc-pol free energy of system     -784.933695599 a.u.
(4)  G-CDS(liq) cavity-dispersion-solvent structure 
     free energy                                               -0.3973 kcal/mol
(6)  G-S(liq) free energy of system                     -784.934328677 a.u.
(9)  DeltaG-S(liq) free energy of  solvation
     (9) = (6) - (0)                                      -492553.7254 kcal/mol
 SCF   energy in the final basis set =     -784.9336955994
 Total energy in the final basis set =     -784.9343286773
 
 --------------------------------------------------------------
 
                    Orbital Energies (a.u.)
 --------------------------------------------------------------
 
 Alpha MOs
 -- Occupied --
-89.382 -19.389 -19.389 -19.346 -19.345 -10.399 -10.399  -8.366
 -6.318  -6.316  -6.315  -2.163  -1.354  -1.227  -1.208  -1.177
 -0.926  -0.814  -0.778  -0.678  -0.671  -0.637  -0.622  -0.593
 -0.571  -0.540  -0.523  -0.510  -0.489  -0.487  -0.485  -0.440
 -0.428
 -- Virtual --
  0.008   0.017   0.017   0.019   0.042   0.062   0.066   0.068
  0.070   0.086   0.089   0.090   0.093   0.115   0.122   0.133
  0.135   0.135   0.140   0.149   0.171   0.175   0.179   0.195
  0.203   0.204   0.212   0.215   0.216   0.220   0.239   0.247
  0.265   0.272   0.276   0.278   0.292   0.307   0.320   0.342
  0.346   0.351   0.354   0.364   0.383   0.393   0.404   0.405
  0.415   0.422   0.427   0.444   0.471   0.501   0.568   0.581
  0.610   0.644   0.665   0.675   0.684   0.732   0.743   0.764
  0.770   0.783   0.828   0.849   0.865   0.901   1.014   1.018
  1.062   1.103   1.114   1.132   1.143   1.173   1.183   1.238
  1.248   1.251   1.307   1.321   1.332   1.378   1.381   1.405
  1.409   1.425   1.447   1.489   1.493   1.522   1.584   1.642
  1.655   1.667   1.692   1.756   1.798   1.836   1.846   1.862
  1.904   1.914   1.958   1.983   1.987   2.000   2.034   2.062
  2.096   2.111   2.176   2.194   2.213   2.267   2.280   2.346
  2.392   2.411   2.509   2.601   2.641   2.648   2.667   2.741
  2.756   2.809   2.835   2.916   2.935   2.940   2.973   3.116
  3.375   3.395   3.533   3.593   4.063   4.211   4.294   4.309
  4.377   4.529   4.756
 --------------------------------------------------------------
 
          Ground-State Mulliken Net Atomic Charges

     Atom                 Charge (a.u.)
  ----------------------------------------
      1 Li                    0.770764
      2 C                    -0.150364
      3 O                    -0.531552
      4 C                    -0.150933
      5 S                     1.793563
      6 O                    -0.534374
      7 O                    -0.593699
      8 O                    -0.589012
      9 H                     0.255392
     10 H                     0.237665
     11 H                     0.238102
     12 H                     0.254448
  ----------------------------------------
  Sum of atomic charges =     1.000000

 -----------------------------------------------------------------
                    Cartesian Multipole Moments
 -----------------------------------------------------------------
    Charge (ESU x 10^10)
                 4.8032
    Dipole Moment (Debye)
         X       3.5130      Y       0.0914      Z      -0.4054
       Tot       3.5374
    Quadrupole Moments (Debye-Ang)
        XX       6.5682     XY       0.2627     YY     -46.1923
        XZ      -1.1454     YZ       0.3338     ZZ     -50.3675
    Octopole Moments (Debye-Ang^2)
       XXX     112.3609    XXY       1.0476    XYY      -2.2355
       YYY       0.7415    XXZ      -4.7786    XYZ       2.8787
       YYZ      -0.9855    XZZ      -6.5401    YZZ       0.1767
       ZZZ      -3.0101
    Hexadecapole Moments (Debye-Ang^3)
      XXXX       5.9550   XXXY       2.8078   XXYY     -97.3840
      XYYY      -0.1327   YYYY    -189.2151   XXXZ     -14.0761
      XXYZ       8.2312   XYYZ      -0.3368   YYYZ      -0.0821
      XXZZ    -110.3571   XYZZ       0.3384   YYZZ     -55.5050
      XZZZ      -1.5269   YZZZ       0.8974   ZZZZ    -161.6885
 -----------------------------------------------------------------
 Calculating analytic gradient of the SCF energy
 Gradient of CDS energy
            1           2           3           4           5           6
    1   0.0000592  -0.0004623   0.0001888  -0.0004437  -0.0000217   0.0001872
    2   0.0000013   0.0010628  -0.0001537  -0.0010696   0.0000110   0.0001552
    3  -0.0000063  -0.0000564  -0.0000837   0.0000690  -0.0000206   0.0000861
            7           8           9          10          11          12
    1  -0.0001274  -0.0001332   0.0001848   0.0002117   0.0001694   0.0001873
    2  -0.0000261   0.0000241  -0.0001067  -0.0001256   0.0001288   0.0000986
    3   0.0000969  -0.0000891   0.0000378   0.0000562  -0.0000669  -0.0000230
 Gradient of SCF Energy
            1           2           3           4           5           6
    1   0.0062733   0.0426020  -0.0265881   0.0437801  -0.0058330  -0.0259509
    2  -0.0001145  -0.0308825   0.0238328   0.0285432  -0.0001230  -0.0239229
    3  -0.0003199   0.0200810   0.0048686  -0.0157666  -0.0005282  -0.0055866
            7           8           9          10          11          12
    1   0.0198041   0.0203264  -0.0313816  -0.0055017  -0.0073987  -0.0301320
    2   0.0142093  -0.0140110   0.0171422   0.0140493  -0.0118481  -0.0168746
    3  -0.0408779   0.0421842   0.0296912  -0.0409507   0.0384133  -0.0312085
 Max gradient component =       4.378E-02
 RMS gradient           =       2.436E-02
 Computing VTN gradient.
 Updating gradient with PCM contributions...
 -- total gradient after adding PCM contribution --
---------------------------------------------------
  Atom         X              Y              Z     
---------------------------------------------------
   1       0.000011      -0.000044      -0.000068
   2      -0.000022      -0.000003       0.000046
   3      -0.000005      -0.000053       0.000104
   4      -0.000005      -0.000027      -0.000081
   5      -0.000053       0.000039      -0.000011
   6       0.000011       0.000020      -0.000050
   7      -0.000002       0.000071       0.000043
   8       0.000023      -0.000049      -0.000029
   9       0.000010      -0.000037       0.000074
  10       0.000020       0.000076       0.000037
  11       0.000013      -0.000027      -0.000014
  12      -0.000001       0.000036      -0.000052
---------------------------------------------------
 Number of fixed atoms: 0
 Gradient time:  CPU 77.30 s  wall 3.48 s
 ######################################################
 ######################################################
 # Starting finite difference calculation for IDERIV  #
 Finite diff step size:  1.88973e-03 a.u.
 ----------------------------------------------------------------
             Standard Nuclear Orientation (Angstroms)
    I     Atom           X                Y                Z
 ----------------------------------------------------------------
    1      Li      3.1373248309     0.0204339684    -0.0854314542
    2      C      -1.8550148150     0.7574588382    -0.0166357913
    3      O      -0.5109658361     1.0979653044     0.4720945387
    4      C      -1.8631937726    -0.7594697741     0.0088339634
    5      S       0.5230183782    -0.0067313227     0.0318602857
    6      O      -0.5018942310    -1.1181541048    -0.4138509288
    7      O       1.3424977048     0.3905444236    -1.1114809438
    8      O       1.3515840613    -0.3951759689     1.1664567189
    9      H      -2.5566597853     1.2010870734     0.6849607822
   10      H      -1.9652995791     1.1721956793    -1.0182718757
   11      H      -2.0249748379    -1.1630190386     1.0040410558
   12      H      -2.5369945796    -1.1970288166    -0.7232472399
 ----------------------------------------------------------------
 Nuclear Repulsion Energy =   484.1487299868 hartrees
 There are       33 alpha and       33 beta electrons
 Discretize the solute cavity surface with Lebedev spheres
	Using 302 Lebedev grid points for each H atom
	Using 302 Lebedev grid points for other atoms
	Atomic van der Waals radii will be scaled by 1.20
 Removing interior tesserae...
 Keep 1147 surface tesserae and discard 2477 interior tesserae
 Molecular Surface Area = 164.475 Angst**2

                       Distance Matrix (Angstroms)
             Li(  1)   C (  2)   O (  3)   C (  4)   S (  5)   O (  6)
   C (  2)  5.046919
   O (  3)  3.844728  1.470126
   C (  4)  5.061850  1.517164  2.343757
   S (  5)  2.617077  2.498275  1.575844  2.502230
   O (  6)  3.827291  2.346623  2.386664  1.469848  1.576187
   O (  7)  2.100277  3.399617  2.538402  3.585261  1.461713  2.482869
   O (  8)  2.220096  3.607014  2.486102  3.436218  1.457642  2.540758
   H (  9)  5.865911  1.086899  2.059323  2.186739  3.371911  3.287602
   H ( 10)  5.313523  1.089699  2.083696  2.190138  2.946926  2.784346
   H ( 11)  5.407111  2.181491  2.772587  1.086031  2.962162  2.081395
   H ( 12)  5.838401  2.187331  3.286432  1.086926  3.369076  2.059995
             O (  7)   O (  8)   H (  9)   H ( 10)   H ( 11)
   O (  8)  2.409655
   H (  9)  4.368937  4.249031
   H ( 10)  3.400175  4.269826  1.803204
   H ( 11)  4.269527  3.466571  2.444074  3.089747
   H ( 12)  4.209700  4.397157  2.781078  2.455015  1.801901
 
 Requested basis set is 6-31++G(d,p)
 There are 57 shells and 180 basis functions
 A cutoff of  1.0D-12 yielded   1574 shell pairs
 There are     16206 function pairs
 Smallest overlap matrix eigenvalue = 1.31E-04

 -----------------------------------------------------------------------
  General SCF calculation program by
  Eric Jon Sundstrom, Paul Horn, Yuezhi Mao, Dmitri Zuev, Alec White,
  David Stuck, Shaama M.S., Shane Yost, Joonho Lee, David Small,
  Daniel Levine, Susi Lehtola, Hugh Burton, Evgeny Epifanovsky
 -----------------------------------------------------------------------
 Exchange:     0.2220 Hartree-Fock + 1.0000 wB97X-D + LR-HF
 Correlation:  1.0000 wB97X-D
 Using SG-3 standard quadrature grid
 Dispersion:   Grimme D
 using 32 threads for integral computing
 -------------------------------------------------------
 OpenMP Integral computing Module                
 Release: version 1.0, May 2013, Q-Chem Inc. Pittsburgh 
 -------------------------------------------------------
 using 32 threads for integral computing
 -------------------------------------------------------
 OpenMP Integral computing Module                
 Release: version 1.0, May 2013, Q-Chem Inc. Pittsburgh 
 -------------------------------------------------------
 -------------------------------------------------------
 OpenMP BLAS3 based DFT computing Module                
 Release: version 1.0, May 2013, Q-Chem Inc. Pittsburgh 
 -------------------------------------------------------
 A restricted SCF calculation will be
 performed using DIIS, GDM
 SCF converges when RMS gradient is below 1.0e-08
 ---------------------------------------
  Cycle       Energy         DIIS error
 ---------------------------------------
    1    -784.9336568356      1.99e-06  
    2    -784.9336956417      6.61e-07  Done DIIS. Switching to GDM
 ---------------------------------------
  Cycle       Energy        RMS Gradient
 ---------------------------------------
    1    -784.9336956417      8.52e-06   Normal BFGS step
    2    -784.9336956424      1.03e-05   Normal BFGS step
    3    -784.9336956435      1.24e-06   Normal BFGS step
    4    -784.9336956436      9.78e-07   Normal BFGS step
    5    -784.9336956436      1.49e-07   Normal BFGS step
    6    -784.9336956436      1.45e-07   Normal BFGS step
    7    -784.9336956436      3.44e-08   Normal BFGS step
    8    -784.9336956436      1.73e-08   Normal BFGS step
    9    -784.9336956436      3.16e-09  Convergence criterion met
 ---------------------------------------
 SCF time:   CPU 390.91s  wall 15.00s 
(0)  E-EN(g) gas-phase elect-nuc energy                    0.000000000 a.u.
(3)  G-ENP(liq) elect-nuc-pol free energy of system     -784.933695644 a.u.
(4)  G-CDS(liq) cavity-dispersion-solvent structure 
     free energy                                               -0.3973 kcal/mol
(6)  G-S(liq) free energy of system                     -784.934328721 a.u.
(9)  DeltaG-S(liq) free energy of  solvation
     (9) = (6) - (0)                                      -492553.7254 kcal/mol
 SCF   energy in the final basis set =     -784.9336956436
 Total energy in the final basis set =     -784.9343287215
 
 --------------------------------------------------------------
 
                    Orbital Energies (a.u.)
 --------------------------------------------------------------
 
 Alpha MOs
 -- Occupied --
-89.382 -19.389 -19.389 -19.346 -19.345 -10.399 -10.399  -8.366
 -6.318  -6.316  -6.315  -2.164  -1.354  -1.227  -1.208  -1.177
 -0.926  -0.814  -0.778  -0.678  -0.671  -0.637  -0.622  -0.593
 -0.571  -0.540  -0.523  -0.510  -0.489  -0.487  -0.485  -0.440
 -0.428
 -- Virtual --
  0.008   0.017   0.017   0.019   0.042   0.062   0.066   0.068
  0.070   0.086   0.089   0.090   0.093   0.115   0.122   0.133
  0.135   0.135   0.140   0.149   0.171   0.175   0.179   0.195
  0.203   0.204   0.212   0.215   0.216   0.220   0.239   0.247
  0.265   0.272   0.276   0.278   0.292   0.307   0.320   0.342
  0.346   0.351   0.354   0.364   0.383   0.393   0.404   0.405
  0.415   0.422   0.427   0.444   0.471   0.501   0.568   0.581
  0.610   0.644   0.665   0.675   0.684   0.732   0.743   0.764
  0.770   0.783   0.828   0.849   0.865   0.901   1.014   1.018
  1.062   1.103   1.114   1.131   1.143   1.173   1.183   1.238
  1.248   1.251   1.307   1.321   1.332   1.378   1.381   1.405
  1.409   1.425   1.447   1.489   1.493   1.522   1.584   1.642
  1.655   1.667   1.692   1.756   1.798   1.836   1.846   1.862
  1.904   1.914   1.958   1.983   1.987   1.999   2.034   2.062
  2.095   2.111   2.176   2.194   2.213   2.267   2.280   2.346
  2.392   2.411   2.509   2.601   2.641   2.648   2.667   2.741
  2.756   2.809   2.835   2.916   2.935   2.940   2.973   3.116
  3.375   3.395   3.533   3.593   4.063   4.211   4.294   4.309
  4.377   4.529   4.756
 --------------------------------------------------------------
 
          Ground-State Mulliken Net Atomic Charges

     Atom                 Charge (a.u.)
  ----------------------------------------
      1 Li                    0.771159
      2 C                    -0.150345
      3 O                    -0.531538
      4 C                    -0.150905
      5 S                     1.793345
      6 O                    -0.534359
      7 O                    -0.593823
      8 O                    -0.589110
      9 H                     0.255387
     10 H                     0.237654
     11 H                     0.238093
     12 H                     0.254443
  ----------------------------------------
  Sum of atomic charges =     1.000000

 -----------------------------------------------------------------
                    Cartesian Multipole Moments
 -----------------------------------------------------------------
    Charge (ESU x 10^10)
                 4.8032
    Dipole Moment (Debye)
         X       3.5189      Y       0.0914      Z      -0.4055
       Tot       3.5433
    Quadrupole Moments (Debye-Ang)
        XX       6.5981     XY       0.2628     YY     -46.1932
        XZ      -1.1459     YZ       0.3340     ZZ     -50.3688
    Octopole Moments (Debye-Ang^2)
       XXX     112.5049    XXY       1.0483    XYY      -2.2351
       YYY       0.7415    XXZ      -4.7813    XYZ       2.8790
       YYZ      -0.9855    XZZ      -6.5407    YZZ       0.1767
       ZZZ      -3.0102
    Hexadecapole Moments (Debye-Ang^3)
      XXXX       6.5219   XXXY       2.8106   XXYY     -97.3887
      XYYY      -0.1327   YYYY    -189.2182   XXXZ     -14.0879
      XXYZ       8.2313   XYYZ      -0.3368   YYYZ      -0.0818
      XXZZ    -110.3615   XYZZ       0.3385   YYZZ     -55.5066
      XZZZ      -1.5269   YZZZ       0.8984   ZZZZ    -161.6947
 -----------------------------------------------------------------
 Calculating analytic gradient of the SCF energy
 Gradient of CDS energy
            1           2           3           4           5           6
    1   0.0000592  -0.0004623   0.0001888  -0.0004437  -0.0000217   0.0001872
    2   0.0000013   0.0010628  -0.0001537  -0.0010696   0.0000110   0.0001552
    3  -0.0000063  -0.0000564  -0.0000837   0.0000690  -0.0000206   0.0000861
            7           8           9          10          11          12
    1  -0.0001274  -0.0001332   0.0001848   0.0002117   0.0001694   0.0001873
    2  -0.0000261   0.0000241  -0.0001067  -0.0001256   0.0001288   0.0000986
    3   0.0000969  -0.0000891   0.0000378   0.0000562  -0.0000669  -0.0000230
 Gradient of SCF Energy
            1           2           3           4           5           6
    1   0.0063462   0.0425938  -0.0265691   0.0437723  -0.0059379  -0.0259323
    2  -0.0001160  -0.0308786   0.0238271   0.0285395  -0.0001248  -0.0239165
    3  -0.0003171   0.0200747   0.0048671  -0.0157607  -0.0005217  -0.0055860
            7           8           9          10          11          12
    1   0.0197978   0.0203317  -0.0313770  -0.0055007  -0.0073973  -0.0301275
    2   0.0142074  -0.0140067   0.0171398   0.0140477  -0.0118466  -0.0168723
    3  -0.0408745   0.0421722   0.0296878  -0.0409445   0.0384074  -0.0312049
 Max gradient component =       4.377E-02
 RMS gradient           =       2.435E-02
 Computing VTN gradient.
 Updating gradient with PCM contributions...
 -- total gradient after adding PCM contribution --
---------------------------------------------------
  Atom         X              Y              Z     
---------------------------------------------------
   1       0.000061      -0.000045      -0.000065
   2      -0.000026      -0.000004       0.000044
   3       0.000006      -0.000056       0.000103
   4      -0.000008      -0.000026      -0.000078
   5      -0.000124       0.000037      -0.000007
   6       0.000022       0.000024      -0.000050
   7      -0.000004       0.000071       0.000041
   8       0.000030      -0.000047      -0.000032
   9       0.000010      -0.000037       0.000074
  10       0.000021       0.000076       0.000037
  11       0.000013      -0.000027      -0.000015
  12      -0.000000       0.000036      -0.000052
---------------------------------------------------
 Number of fixed atoms: 0
 Gradient time:  CPU 76.89 s  wall 3.46 s
 ----------------------------------------------------------------
             Standard Nuclear Orientation (Angstroms)
    I     Atom           X                Y                Z
 ----------------------------------------------------------------
    1      Li      3.1353248309     0.0204339684    -0.0854314542
    2      C      -1.8550148150     0.7574588382    -0.0166357913
    3      O      -0.5109658361     1.0979653044     0.4720945387
    4      C      -1.8631937726    -0.7594697741     0.0088339634
    5      S       0.5230183782    -0.0067313227     0.0318602857
    6      O      -0.5018942310    -1.1181541048    -0.4138509288
    7      O       1.3424977048     0.3905444236    -1.1114809438
    8      O       1.3515840613    -0.3951759689     1.1664567189
    9      H      -2.5566597853     1.2010870734     0.6849607822
   10      H      -1.9652995791     1.1721956793    -1.0182718757
   11      H      -2.0249748379    -1.1630190386     1.0040410558
   12      H      -2.5369945796    -1.1970288166    -0.7232472399
 ----------------------------------------------------------------
 Nuclear Repulsion Energy =   484.1703687477 hartrees
 There are       33 alpha and       33 beta electrons
 Discretize the solute cavity surface with Lebedev spheres
	Using 302 Lebedev grid points for each H atom
	Using 302 Lebedev grid points for other atoms
	Atomic van der Waals radii will be scaled by 1.20
 Removing interior tesserae...
 Keep 1147 surface tesserae and discard 2477 interior tesserae
 Molecular Surface Area = 164.475 Angst**2

                       Distance Matrix (Angstroms)
             Li(  1)   C (  2)   O (  3)   C (  4)   S (  5)   O (  6)
   C (  2)  5.044941
   O (  3)  3.842830  1.470126
   C (  4)  5.059874  1.517164  2.343757
   S (  5)  2.615079  2.498275  1.575844  2.502230
   O (  6)  3.825389  2.346623  2.386664  1.469848  1.576187
   O (  7)  2.098568  3.399617  2.538402  3.585261  1.461713  2.482869
   O (  8)  2.218487  3.607014  2.486102  3.436218  1.457642  2.540758
   H (  9)  5.863969  1.086899  2.059323  2.186739  3.371911  3.287602
   H ( 10)  5.311602  1.089699  2.083696  2.190138  2.946926  2.784346
   H ( 11)  5.405202  2.181491  2.772587  1.086031  2.962162  2.081395
   H ( 12)  5.836457  2.187331  3.286432  1.086926  3.369076  2.059995
             O (  7)   O (  8)   H (  9)   H ( 10)   H ( 11)
   O (  8)  2.409655
   H (  9)  4.368937  4.249031
   H ( 10)  3.400175  4.269826  1.803204
   H ( 11)  4.269527  3.466571  2.444074  3.089747
   H ( 12)  4.209700  4.397157  2.781078  2.455015  1.801901
 
 Requested basis set is 6-31++G(d,p)
 There are 57 shells and 180 basis functions
 A cutoff of  1.0D-12 yielded   1574 shell pairs
 There are     16206 function pairs
 Smallest overlap matrix eigenvalue = 1.31E-04

 -----------------------------------------------------------------------
  General SCF calculation program by
  Eric Jon Sundstrom, Paul Horn, Yuezhi Mao, Dmitri Zuev, Alec White,
  David Stuck, Shaama M.S., Shane Yost, Joonho Lee, David Small,
  Daniel Levine, Susi Lehtola, Hugh Burton, Evgeny Epifanovsky
 -----------------------------------------------------------------------
 Exchange:     0.2220 Hartree-Fock + 1.0000 wB97X-D + LR-HF
 Correlation:  1.0000 wB97X-D
 Using SG-3 standard quadrature grid
 Dispersion:   Grimme D
 using 32 threads for integral computing
 -------------------------------------------------------
 OpenMP Integral computing Module                
 Release: version 1.0, May 2013, Q-Chem Inc. Pittsburgh 
 -------------------------------------------------------
 using 32 threads for integral computing
 -------------------------------------------------------
 OpenMP Integral computing Module                
 Release: version 1.0, May 2013, Q-Chem Inc. Pittsburgh 
 -------------------------------------------------------
 -------------------------------------------------------
 OpenMP BLAS3 based DFT computing Module                
 Release: version 1.0, May 2013, Q-Chem Inc. Pittsburgh 
 -------------------------------------------------------
 A restricted SCF calculation will be
 performed using DIIS, GDM
 SCF converges when RMS gradient is below 1.0e-08
 ---------------------------------------
  Cycle       Energy         DIIS error
 ---------------------------------------
    1    -784.9337729806      3.97e-06  
    2    -784.9336954522      1.32e-06  Done DIIS. Switching to GDM
 ---------------------------------------
  Cycle       Energy        RMS Gradient
 ---------------------------------------
    1    -784.9336954522      1.70e-05   Normal BFGS step
    2    -784.9336954547      2.06e-05   Normal BFGS step
    3    -784.9336954593      2.48e-06   Normal BFGS step
    4    -784.9336954595      1.96e-06   Normal BFGS step
    5    -784.9336954595      2.99e-07   Normal BFGS step
    6    -784.9336954595      2.89e-07   Normal BFGS step
    7    -784.9336954595      6.88e-08   Normal BFGS step
    8    -784.9336954595      3.46e-08   Normal BFGS step
    9    -784.9336954595      6.33e-09  Convergence criterion met
 ---------------------------------------
 SCF time:   CPU 390.64s  wall 15.00s 
(0)  E-EN(g) gas-phase elect-nuc energy                    0.000000000 a.u.
(3)  G-ENP(liq) elect-nuc-pol free energy of system     -784.933695460 a.u.
(4)  G-CDS(liq) cavity-dispersion-solvent structure 
     free energy                                               -0.3973 kcal/mol
(6)  G-S(liq) free energy of system                     -784.934328537 a.u.
(9)  DeltaG-S(liq) free energy of  solvation
     (9) = (6) - (0)                                      -492553.7253 kcal/mol
 SCF   energy in the final basis set =     -784.9336954595
 Total energy in the final basis set =     -784.9343285374
 
 --------------------------------------------------------------
 
                    Orbital Energies (a.u.)
 --------------------------------------------------------------
 
 Alpha MOs
 -- Occupied --
-89.382 -19.389 -19.389 -19.346 -19.345 -10.399 -10.399  -8.366
 -6.318  -6.316  -6.315  -2.163  -1.354  -1.227  -1.208  -1.177
 -0.926  -0.814  -0.778  -0.678  -0.671  -0.637  -0.623  -0.593
 -0.571  -0.540  -0.523  -0.510  -0.490  -0.487  -0.485  -0.440
 -0.428
 -- Virtual --
  0.008   0.017   0.017   0.019   0.042   0.062   0.066   0.068
  0.070   0.085   0.089   0.090   0.093   0.115   0.122   0.133
  0.135   0.135   0.140   0.149   0.171   0.175   0.179   0.195
  0.203   0.204   0.212   0.215   0.216   0.220   0.239   0.247
  0.265   0.272   0.276   0.278   0.292   0.307   0.320   0.342
  0.346   0.351   0.354   0.364   0.383   0.393   0.404   0.405
  0.415   0.422   0.427   0.444   0.471   0.501   0.568   0.581
  0.610   0.644   0.665   0.675   0.685   0.732   0.743   0.764
  0.770   0.783   0.828   0.849   0.865   0.902   1.014   1.018
  1.062   1.103   1.114   1.132   1.143   1.173   1.183   1.238
  1.248   1.251   1.307   1.321   1.332   1.378   1.381   1.405
  1.409   1.425   1.447   1.489   1.493   1.522   1.584   1.642
  1.655   1.667   1.692   1.756   1.798   1.836   1.846   1.862
  1.904   1.914   1.958   1.983   1.987   2.000   2.034   2.062
  2.096   2.111   2.176   2.194   2.213   2.267   2.280   2.346
  2.392   2.411   2.509   2.601   2.641   2.648   2.667   2.741
  2.756   2.809   2.835   2.916   2.935   2.940   2.973   3.116
  3.375   3.395   3.533   3.593   4.063   4.211   4.294   4.309
  4.377   4.529   4.756
 --------------------------------------------------------------
 
          Ground-State Mulliken Net Atomic Charges

     Atom                 Charge (a.u.)
  ----------------------------------------
      1 Li                    0.770369
      2 C                    -0.150383
      3 O                    -0.531566
      4 C                    -0.150962
      5 S                     1.793782
      6 O                    -0.534389
      7 O                    -0.593574
      8 O                    -0.588913
      9 H                     0.255398
     10 H                     0.237675
     11 H                     0.238111
     12 H                     0.254452
  ----------------------------------------
  Sum of atomic charges =     1.000000

 -----------------------------------------------------------------
                    Cartesian Multipole Moments
 -----------------------------------------------------------------
    Charge (ESU x 10^10)
                 4.8032
    Dipole Moment (Debye)
         X       3.5070      Y       0.0914      Z      -0.4053
       Tot       3.5316
    Quadrupole Moments (Debye-Ang)
        XX       6.5384     XY       0.2626     YY     -46.1914
        XZ      -1.1449     YZ       0.3336     ZZ     -50.3663
    Octopole Moments (Debye-Ang^2)
       XXX     112.2170    XXY       1.0470    XYY      -2.2359
       YYY       0.7416    XXZ      -4.7760    XYZ       2.8784
       YYZ      -0.9855    XZZ      -6.5396    YZZ       0.1766
       ZZZ      -3.0099
    Hexadecapole Moments (Debye-Ang^3)
      XXXX       5.3887   XXXY       2.8050   XXYY     -97.3793
      XYYY      -0.1326   YYYY    -189.2120   XXXZ     -14.0642
      XXYZ       8.2311   XYYZ      -0.3369   YYYZ      -0.0824
      XXZZ    -110.3527   XYZZ       0.3384   YYZZ     -55.5034
      XZZZ      -1.5268   YZZZ       0.8963   ZZZZ    -161.6823
 -----------------------------------------------------------------
 Calculating analytic gradient of the SCF energy
 Gradient of CDS energy
            1           2           3           4           5           6
    1   0.0000592  -0.0004623   0.0001888  -0.0004437  -0.0000217   0.0001872
    2   0.0000013   0.0010628  -0.0001537  -0.0010696   0.0000110   0.0001552
    3  -0.0000063  -0.0000564  -0.0000837   0.0000690  -0.0000206   0.0000861
            7           8           9          10          11          12
    1  -0.0001274  -0.0001332   0.0001848   0.0002117   0.0001694   0.0001873
    2  -0.0000261   0.0000241  -0.0001067  -0.0001256   0.0001288   0.0000986
    3   0.0000969  -0.0000891   0.0000378   0.0000562  -0.0000669  -0.0000230
 Gradient of SCF Energy
            1           2           3           4           5           6
    1   0.0061999   0.0426101  -0.0266070   0.0437880  -0.0057279  -0.0259696
    2  -0.0001131  -0.0308863   0.0238384   0.0285468  -0.0001213  -0.0239292
    3  -0.0003227   0.0200873   0.0048701  -0.0157725  -0.0005348  -0.0055872
            7           8           9          10          11          12
    1   0.0198106   0.0203212  -0.0313863  -0.0055026  -0.0074001  -0.0301364
    2   0.0142111  -0.0140153   0.0171445   0.0140510  -0.0118497  -0.0168770
    3  -0.0408812   0.0421961   0.0296946  -0.0409568   0.0384193  -0.0312121
 Max gradient component =       4.379E-02
 RMS gradient           =       2.436E-02
 Computing VTN gradient.
 Updating gradient with PCM contributions...
 -- total gradient after adding PCM contribution --
---------------------------------------------------
  Atom         X              Y              Z     
---------------------------------------------------
   1      -0.000040      -0.000043      -0.000070
   2      -0.000019      -0.000002       0.000049
   3      -0.000016      -0.000049       0.000105
   4      -0.000001      -0.000028      -0.000083
   5       0.000019       0.000040      -0.000014
   6      -0.000000       0.000016      -0.000051
   7      -0.000000       0.000070       0.000045
   8       0.000017      -0.000051      -0.000025
   9       0.000009      -0.000037       0.000074
  10       0.000020       0.000076       0.000036
  11       0.000012      -0.000028      -0.000014
  12      -0.000001       0.000036      -0.000052
---------------------------------------------------
 Number of fixed atoms: 0
 Gradient time:  CPU 77.52 s  wall 3.48 s
 ----------------------------------------------------------------
             Standard Nuclear Orientation (Angstroms)
    I     Atom           X                Y                Z
 ----------------------------------------------------------------
    1      Li      3.1363248309     0.0214339684    -0.0854314542
    2      C      -1.8550148150     0.7574588382    -0.0166357913
    3      O      -0.5109658361     1.0979653044     0.4720945387
    4      C      -1.8631937726    -0.7594697741     0.0088339634
    5      S       0.5230183782    -0.0067313227     0.0318602857
    6      O      -0.5018942310    -1.1181541048    -0.4138509288
    7      O       1.3424977048     0.3905444236    -1.1114809438
    8      O       1.3515840613    -0.3951759689     1.1664567189
    9      H      -2.5566597853     1.2010870734     0.6849607822
   10      H      -1.9652995791     1.1721956793    -1.0182718757
   11      H      -2.0249748379    -1.1630190386     1.0040410558
   12      H      -2.5369945796    -1.1970288166    -0.7232472399
 ----------------------------------------------------------------
 Nuclear Repulsion Energy =   484.1595105130 hartrees
 There are       33 alpha and       33 beta electrons
 Discretize the solute cavity surface with Lebedev spheres
	Using 302 Lebedev grid points for each H atom
	Using 302 Lebedev grid points for other atoms
	Atomic van der Waals radii will be scaled by 1.20
 Removing interior tesserae...
 Keep 1147 surface tesserae and discard 2477 interior tesserae
 Molecular Surface Area = 164.475 Angst**2

                       Distance Matrix (Angstroms)
             Li(  1)   C (  2)   O (  3)   C (  4)   S (  5)   O (  6)
   C (  2)  5.045784
   O (  3)  3.843499  1.470126
   C (  4)  5.061016  1.517164  2.343757
   S (  5)  2.616089  2.498275  1.575844  2.502230
   O (  6)  3.826638  2.346623  2.386664  1.469848  1.576187
   O (  7)  2.099246  3.399617  2.538402  3.585261  1.461713  2.482869
   O (  8)  2.219479  3.607014  2.486102  3.436218  1.457642  2.540758
   H (  9)  5.864739  1.086899  2.059323  2.186739  3.371911  3.287602
   H ( 10)  5.312346  1.089699  2.083696  2.190138  2.946926  2.784346
   H ( 11)  5.406375  2.181491  2.772587  1.086031  2.962162  2.081395
   H ( 12)  5.837638  2.187331  3.286432  1.086926  3.369076  2.059995
             O (  7)   O (  8)   H (  9)   H ( 10)   H ( 11)
   O (  8)  2.409655
   H (  9)  4.368937  4.249031
   H ( 10)  3.400175  4.269826  1.803204
   H ( 11)  4.269527  3.466571  2.444074  3.089747
   H ( 12)  4.209700  4.397157  2.781078  2.455015  1.801901
 
 Requested basis set is 6-31++G(d,p)
 There are 57 shells and 180 basis functions
 A cutoff of  1.0D-12 yielded   1574 shell pairs
 There are     16206 function pairs
 Smallest overlap matrix eigenvalue = 1.31E-04

 -----------------------------------------------------------------------
  General SCF calculation program by
  Eric Jon Sundstrom, Paul Horn, Yuezhi Mao, Dmitri Zuev, Alec White,
  David Stuck, Shaama M.S., Shane Yost, Joonho Lee, David Small,
  Daniel Levine, Susi Lehtola, Hugh Burton, Evgeny Epifanovsky
 -----------------------------------------------------------------------
 Exchange:     0.2220 Hartree-Fock + 1.0000 wB97X-D + LR-HF
 Correlation:  1.0000 wB97X-D
 Using SG-3 standard quadrature grid
 Dispersion:   Grimme D
 using 32 threads for integral computing
 -------------------------------------------------------
 OpenMP Integral computing Module                
 Release: version 1.0, May 2013, Q-Chem Inc. Pittsburgh 
 -------------------------------------------------------
 using 32 threads for integral computing
 -------------------------------------------------------
 OpenMP Integral computing Module                
 Release: version 1.0, May 2013, Q-Chem Inc. Pittsburgh 
 -------------------------------------------------------
 -------------------------------------------------------
 OpenMP BLAS3 based DFT computing Module                
 Release: version 1.0, May 2013, Q-Chem Inc. Pittsburgh 
 -------------------------------------------------------
 A restricted SCF calculation will be
 performed using DIIS, GDM
 SCF converges when RMS gradient is below 1.0e-08
 ---------------------------------------
  Cycle       Energy         DIIS error
 ---------------------------------------
    1    -784.9336569028      2.44e-06  
    2    -784.9336956802      8.37e-07  Done DIIS. Switching to GDM
 ---------------------------------------
  Cycle       Energy        RMS Gradient
 ---------------------------------------
    1    -784.9336956802      1.21e-05   Normal BFGS step
    2    -784.9336956818      1.48e-05   Normal BFGS step
    3    -784.9336956837      1.89e-06   Normal BFGS step
    4    -784.9336956838      1.24e-06   Normal BFGS step
    5    -784.9336956838      2.81e-07   Normal BFGS step
    6    -784.9336956838      2.13e-07   Normal BFGS step
    7    -784.9336956838      4.63e-08   Normal BFGS step
    8    -784.9336956838      2.74e-08   Normal BFGS step
    9    -784.9336956838      4.42e-09  Convergence criterion met
 ---------------------------------------
 SCF time:   CPU 390.41s  wall 15.00s 
(0)  E-EN(g) gas-phase elect-nuc energy                    0.000000000 a.u.
(3)  G-ENP(liq) elect-nuc-pol free energy of system     -784.933695684 a.u.
(4)  G-CDS(liq) cavity-dispersion-solvent structure 
     free energy                                               -0.3973 kcal/mol
(6)  G-S(liq) free energy of system                     -784.934328762 a.u.
(9)  DeltaG-S(liq) free energy of  solvation
     (9) = (6) - (0)                                      -492553.7254 kcal/mol
 SCF   energy in the final basis set =     -784.9336956838
 Total energy in the final basis set =     -784.9343287617
 
 --------------------------------------------------------------
 
                    Orbital Energies (a.u.)
 --------------------------------------------------------------
 
 Alpha MOs
 -- Occupied --
-89.382 -19.389 -19.389 -19.346 -19.345 -10.399 -10.399  -8.366
 -6.318  -6.316  -6.315  -2.163  -1.354  -1.227  -1.208  -1.177
 -0.926  -0.814  -0.778  -0.678  -0.671  -0.637  -0.622  -0.593
 -0.571  -0.540  -0.523  -0.510  -0.489  -0.487  -0.485  -0.440
 -0.428
 -- Virtual --
  0.008   0.017   0.017   0.019   0.042   0.062   0.066   0.068
  0.070   0.086   0.089   0.090   0.093   0.115   0.122   0.133
  0.135   0.135   0.140   0.149   0.171   0.175   0.179   0.195
  0.203   0.204   0.212   0.215   0.216   0.220   0.239   0.247
  0.265   0.272   0.276   0.278   0.292   0.307   0.320   0.342
  0.346   0.351   0.354   0.364   0.383   0.393   0.404   0.405
  0.415   0.422   0.427   0.444   0.471   0.501   0.568   0.581
  0.610   0.644   0.665   0.675   0.684   0.732   0.743   0.764
  0.770   0.783   0.828   0.849   0.865   0.901   1.014   1.018
  1.062   1.103   1.114   1.132   1.143   1.173   1.183   1.238
  1.248   1.251   1.307   1.321   1.332   1.378   1.381   1.405
  1.409   1.425   1.447   1.489   1.493   1.522   1.584   1.642
  1.655   1.667   1.692   1.756   1.798   1.836   1.846   1.862
  1.904   1.914   1.958   1.983   1.987   2.000   2.034   2.062
  2.096   2.111   2.176   2.194   2.213   2.267   2.280   2.346
  2.392   2.411   2.509   2.601   2.641   2.648   2.667   2.741
  2.756   2.809   2.835   2.916   2.935   2.940   2.973   3.116
  3.375   3.395   3.533   3.593   4.063   4.211   4.294   4.309
  4.377   4.529   4.756
 --------------------------------------------------------------
 
          Ground-State Mulliken Net Atomic Charges

     Atom                 Charge (a.u.)
  ----------------------------------------
      1 Li                    0.770764
      2 C                    -0.150375
      3 O                    -0.531544
      4 C                    -0.150917
      5 S                     1.793555
      6 O                    -0.534382
      7 O                    -0.593693
      8 O                    -0.589015
      9 H                     0.255393
     10 H                     0.237665
     11 H                     0.238101
     12 H                     0.254448
  ----------------------------------------
  Sum of atomic charges =     1.000000

 -----------------------------------------------------------------
                    Cartesian Multipole Moments
 -----------------------------------------------------------------
    Charge (ESU x 10^10)
                 4.8032
    Dipole Moment (Debye)
         X       3.5129      Y       0.0956      Z      -0.4054
       Tot       3.5376
    Quadrupole Moments (Debye-Ang)
        XX       6.5682     XY       0.2768     YY     -46.1921
        XZ      -1.1452     YZ       0.3334     ZZ     -50.3676
    Octopole Moments (Debye-Ang^2)
       XXX     112.3609    XXY       1.0924    XYY      -2.2349
       YYY       0.7394    XXZ      -4.7781    XYZ       2.8775
       YYZ      -0.9853    XZZ      -6.5401    YZZ       0.1757
       ZZZ      -3.0102
    Hexadecapole Moments (Debye-Ang^3)
      XXXX       5.9551   XXXY       2.9477   XXYY     -97.3821
      XYYY      -0.1382   YYYY    -189.2152   XXXZ     -14.0752
      XXYZ       8.2273   XYYZ      -0.3365   YYYZ      -0.0820
      XXZZ    -110.3571   XYZZ       0.3362   YYZZ     -55.5050
      XZZZ      -1.5268   YZZZ       0.8975   ZZZZ    -161.6886
 -----------------------------------------------------------------
 Calculating analytic gradient of the SCF energy
 Gradient of CDS energy
            1           2           3           4           5           6
    1   0.0000592  -0.0004623   0.0001888  -0.0004437  -0.0000217   0.0001872
    2   0.0000013   0.0010628  -0.0001537  -0.0010696   0.0000110   0.0001552
    3  -0.0000063  -0.0000564  -0.0000837   0.0000690  -0.0000206   0.0000861
            7           8           9          10          11          12
    1  -0.0001274  -0.0001332   0.0001848   0.0002117   0.0001694   0.0001873
    2  -0.0000261   0.0000241  -0.0001067  -0.0001256   0.0001288   0.0000986
    3   0.0000969  -0.0000891   0.0000378   0.0000562  -0.0000669  -0.0000230
 Gradient of SCF Energy
            1           2           3           4           5           6
    1   0.0062721   0.0426038  -0.0265866   0.0437783  -0.0058346  -0.0259532
    2  -0.0001040  -0.0308823   0.0238318   0.0285433  -0.0001059  -0.0239240
    3  -0.0003194   0.0200814   0.0048708  -0.0157661  -0.0005402  -0.0055841
            7           8           9          10          11          12
    1   0.0198053   0.0203288  -0.0313818  -0.0055014  -0.0073990  -0.0301318
    2   0.0141951  -0.0140245   0.0171425   0.0140500  -0.0118476  -0.0168743
    3  -0.0408741   0.0421867   0.0296916  -0.0409513   0.0384128  -0.0312081
 Max gradient component =       4.378E-02
 RMS gradient           =       2.436E-02
 Computing VTN gradient.
 Updating gradient with PCM contributions...
 -- total gradient after adding PCM contribution --
---------------------------------------------------
  Atom         X              Y              Z     
---------------------------------------------------
   1       0.000009      -0.000043      -0.000068
   2      -0.000022      -0.000003       0.000047
   3      -0.000004      -0.000054       0.000105
   4      -0.000005      -0.000027      -0.000081
   5      -0.000054       0.000055      -0.000020
   6       0.000009       0.000019      -0.000049
   7      -0.000002       0.000063       0.000047
   8       0.000026      -0.000056      -0.000025
   9       0.000010      -0.000037       0.000074
  10       0.000020       0.000076       0.000037
  11       0.000013      -0.000027      -0.000014
  12      -0.000001       0.000036      -0.000052
---------------------------------------------------
 Number of fixed atoms: 0
 Gradient time:  CPU 76.92 s  wall 3.45 s
 ----------------------------------------------------------------
             Standard Nuclear Orientation (Angstroms)
    I     Atom           X                Y                Z
 ----------------------------------------------------------------
    1      Li      3.1363248309     0.0194339684    -0.0854314542
    2      C      -1.8550148150     0.7574588382    -0.0166357913
    3      O      -0.5109658361     1.0979653044     0.4720945387
    4      C      -1.8631937726    -0.7594697741     0.0088339634
    5      S       0.5230183782    -0.0067313227     0.0318602857
    6      O      -0.5018942310    -1.1181541048    -0.4138509288
    7      O       1.3424977048     0.3905444236    -1.1114809438
    8      O       1.3515840613    -0.3951759689     1.1664567189
    9      H      -2.5566597853     1.2010870734     0.6849607822
   10      H      -1.9652995791     1.1721956793    -1.0182718757
   11      H      -2.0249748379    -1.1630190386     1.0040410558
   12      H      -2.5369945796    -1.1970288166    -0.7232472399
 ----------------------------------------------------------------
 Nuclear Repulsion Energy =   484.1595773368 hartrees
 There are       33 alpha and       33 beta electrons
 Discretize the solute cavity surface with Lebedev spheres
	Using 302 Lebedev grid points for each H atom
	Using 302 Lebedev grid points for other atoms
	Atomic van der Waals radii will be scaled by 1.20
 Removing interior tesserae...
 Keep 1147 surface tesserae and discard 2477 interior tesserae
 Molecular Surface Area = 164.475 Angst**2

                       Distance Matrix (Angstroms)
             Li(  1)   C (  2)   O (  3)   C (  4)   S (  5)   O (  6)
   C (  2)  5.046076
   O (  3)  3.844060  1.470126
   C (  4)  5.060708  1.517164  2.343757
   S (  5)  2.616068  2.498275  1.575844  2.502230
   O (  6)  3.826043  2.346623  2.386664  1.469848  1.576187
   O (  7)  2.099599  3.399617  2.538402  3.585261  1.461713  2.482869
   O (  8)  2.219105  3.607014  2.486102  3.436218  1.457642  2.540758
   H (  9)  5.865141  1.086899  2.059323  2.186739  3.371911  3.287602
   H ( 10)  5.312779  1.089699  2.083696  2.190138  2.946926  2.784346
   H ( 11)  5.405937  2.181491  2.772587  1.086031  2.962162  2.081395
   H ( 12)  5.837221  2.187331  3.286432  1.086926  3.369076  2.059995
             O (  7)   O (  8)   H (  9)   H ( 10)   H ( 11)
   O (  8)  2.409655
   H (  9)  4.368937  4.249031
   H ( 10)  3.400175  4.269826  1.803204
   H ( 11)  4.269527  3.466571  2.444074  3.089747
   H ( 12)  4.209700  4.397157  2.781078  2.455015  1.801901
 
 Requested basis set is 6-31++G(d,p)
 There are 57 shells and 180 basis functions
 A cutoff of  1.0D-12 yielded   1574 shell pairs
 There are     16206 function pairs
 Smallest overlap matrix eigenvalue = 1.31E-04

 -----------------------------------------------------------------------
  General SCF calculation program by
  Eric Jon Sundstrom, Paul Horn, Yuezhi Mao, Dmitri Zuev, Alec White,
  David Stuck, Shaama M.S., Shane Yost, Joonho Lee, David Small,
  Daniel Levine, Susi Lehtola, Hugh Burton, Evgeny Epifanovsky
 -----------------------------------------------------------------------
 Exchange:     0.2220 Hartree-Fock + 1.0000 wB97X-D + LR-HF
 Correlation:  1.0000 wB97X-D
 Using SG-3 standard quadrature grid
 Dispersion:   Grimme D
 using 32 threads for integral computing
 -------------------------------------------------------
 OpenMP Integral computing Module                
 Release: version 1.0, May 2013, Q-Chem Inc. Pittsburgh 
 -------------------------------------------------------
 using 32 threads for integral computing
 -------------------------------------------------------
 OpenMP Integral computing Module                
 Release: version 1.0, May 2013, Q-Chem Inc. Pittsburgh 
 -------------------------------------------------------
 -------------------------------------------------------
 OpenMP BLAS3 based DFT computing Module                
 Release: version 1.0, May 2013, Q-Chem Inc. Pittsburgh 
 -------------------------------------------------------
 A restricted SCF calculation will be
 performed using DIIS, GDM
 SCF converges when RMS gradient is below 1.0e-08
 ---------------------------------------
  Cycle       Energy         DIIS error
 ---------------------------------------
    1    -784.9336954152      2.90e-06  
    2    -784.9336955037      1.26e-06  Done DIIS. Switching to GDM
 ---------------------------------------
  Cycle       Energy        RMS Gradient
 ---------------------------------------
    1    -784.9336955037      2.38e-05   Normal BFGS step
    2    -784.9336955058      2.78e-05   Normal BFGS step
    3    -784.9336955123      3.09e-06   Normal BFGS step
    4    -784.9336955125      1.10e-06   Normal BFGS step
    5    -784.9336955125      4.34e-07   Normal BFGS step
    6    -784.9336955125      3.30e-07   Normal BFGS step
    7    -784.9336955125      1.36e-08   Normal BFGS step
    8    -784.9336955125      1.24e-08   Normal BFGS step
    9    -784.9336955125      1.41e-09  Convergence criterion met
 ---------------------------------------
 SCF time:   CPU 391.03s  wall 15.00s 
(0)  E-EN(g) gas-phase elect-nuc energy                    0.000000000 a.u.
(3)  G-ENP(liq) elect-nuc-pol free energy of system     -784.933695513 a.u.
(4)  G-CDS(liq) cavity-dispersion-solvent structure 
     free energy                                               -0.3973 kcal/mol
(6)  G-S(liq) free energy of system                     -784.934328590 a.u.
(9)  DeltaG-S(liq) free energy of  solvation
     (9) = (6) - (0)                                      -492553.7253 kcal/mol
 SCF   energy in the final basis set =     -784.9336955125
 Total energy in the final basis set =     -784.9343285904
 
 --------------------------------------------------------------
 
                    Orbital Energies (a.u.)
 --------------------------------------------------------------
 
 Alpha MOs
 -- Occupied --
-89.382 -19.389 -19.389 -19.346 -19.345 -10.399 -10.399  -8.366
 -6.318  -6.316  -6.315  -2.163  -1.354  -1.227  -1.208  -1.177
 -0.926  -0.814  -0.778  -0.678  -0.671  -0.637  -0.622  -0.593
 -0.571  -0.540  -0.523  -0.510  -0.489  -0.487  -0.485  -0.440
 -0.428
 -- Virtual --
  0.008   0.017   0.017   0.019   0.042   0.062   0.066   0.068
  0.070   0.086   0.089   0.090   0.093   0.115   0.122   0.133
  0.135   0.135   0.140   0.149   0.171   0.175   0.179   0.195
  0.203   0.204   0.212   0.215   0.216   0.220   0.239   0.247
  0.265   0.272   0.276   0.278   0.292   0.307   0.320   0.342
  0.346   0.351   0.354   0.364   0.383   0.393   0.404   0.405
  0.415   0.422   0.427   0.444   0.471   0.501   0.568   0.581
  0.610   0.644   0.665   0.675   0.684   0.732   0.743   0.764
  0.770   0.783   0.828   0.849   0.865   0.901   1.014   1.018
  1.062   1.103   1.114   1.132   1.143   1.173   1.183   1.238
  1.248   1.251   1.307   1.321   1.332   1.378   1.381   1.405
  1.409   1.425   1.447   1.489   1.493   1.522   1.584   1.642
  1.655   1.667   1.692   1.756   1.798   1.836   1.846   1.862
  1.904   1.914   1.958   1.983   1.987   1.999   2.034   2.062
  2.096   2.111   2.176   2.194   2.213   2.267   2.280   2.346
  2.392   2.411   2.509   2.601   2.641   2.648   2.667   2.741
  2.756   2.809   2.835   2.916   2.935   2.940   2.973   3.116
  3.375   3.395   3.533   3.593   4.063   4.211   4.294   4.309
  4.377   4.529   4.756
 --------------------------------------------------------------
 
          Ground-State Mulliken Net Atomic Charges

     Atom                 Charge (a.u.)
  ----------------------------------------
      1 Li                    0.770765
      2 C                    -0.150352
      3 O                    -0.531561
      4 C                    -0.150949
      5 S                     1.793571
      6 O                    -0.534367
      7 O                    -0.593704
      8 O                    -0.589008
      9 H                     0.255391
     10 H                     0.237665
     11 H                     0.238103
     12 H                     0.254447
  ----------------------------------------
  Sum of atomic charges =     1.000000

 -----------------------------------------------------------------
                    Cartesian Multipole Moments
 -----------------------------------------------------------------
    Charge (ESU x 10^10)
                 4.8032
    Dipole Moment (Debye)
         X       3.5130      Y       0.0872      Z      -0.4055
       Tot       3.5374
    Quadrupole Moments (Debye-Ang)
        XX       6.5682     XY       0.2487     YY     -46.1924
        XZ      -1.1456     YZ       0.3342     ZZ     -50.3675
    Octopole Moments (Debye-Ang^2)
       XXX     112.3609    XXY       1.0029    XYY      -2.2360
       YYY       0.7437    XXZ      -4.7791    XYZ       2.8799
       YYZ      -0.9857    XZZ      -6.5401    YZZ       0.1776
       ZZZ      -3.0099
    Hexadecapole Moments (Debye-Ang^3)
      XXXX       5.9550   XXXY       2.6680   XXYY     -97.3858
      XYYY      -0.1272   YYYY    -189.2150   XXXZ     -14.0769
      XXYZ       8.2351   XYYZ      -0.3371   YYYZ      -0.0823
      XXZZ    -110.3571   XYZZ       0.3407   YYZZ     -55.5049
      XZZZ      -1.5269   YZZZ       0.8972   ZZZZ    -161.6885
 -----------------------------------------------------------------
 Calculating analytic gradient of the SCF energy
 Gradient of CDS energy
            1           2           3           4           5           6
    1   0.0000592  -0.0004623   0.0001888  -0.0004437  -0.0000217   0.0001872
    2   0.0000013   0.0010628  -0.0001537  -0.0010696   0.0000110   0.0001552
    3  -0.0000063  -0.0000564  -0.0000837   0.0000690  -0.0000206   0.0000861
            7           8           9          10          11          12
    1  -0.0001274  -0.0001332   0.0001848   0.0002117   0.0001694   0.0001873
    2  -0.0000261   0.0000241  -0.0001067  -0.0001256   0.0001288   0.0000986
    3   0.0000969  -0.0000891   0.0000378   0.0000562  -0.0000669  -0.0000230
 Gradient of SCF Energy
            1           2           3           4           5           6
    1   0.0062745   0.0426001  -0.0265896   0.0437820  -0.0058315  -0.0259486
    2  -0.0001251  -0.0308827   0.0238338   0.0285430  -0.0001402  -0.0239217
    3  -0.0003205   0.0200806   0.0048664  -0.0157671  -0.0005162  -0.0055891
            7           8           9          10          11          12
    1   0.0198030   0.0203240  -0.0313815  -0.0055019  -0.0073984  -0.0301321
    2   0.0142235  -0.0139975   0.0171418   0.0140487  -0.0118487  -0.0168749
    3  -0.0408816   0.0421817   0.0296908  -0.0409501   0.0384139  -0.0312090
 Max gradient component =       4.378E-02
 RMS gradient           =       2.436E-02
 Computing VTN gradient.
 Updating gradient with PCM contributions...
 -- total gradient after adding PCM contribution --
---------------------------------------------------
  Atom         X              Y              Z     
---------------------------------------------------
   1       0.000012      -0.000045      -0.000067
   2      -0.000022      -0.000003       0.000046
   3      -0.000007      -0.000052       0.000103
   4      -0.000005      -0.000027      -0.000081
   5      -0.000051       0.000022      -0.000001
   6       0.000012       0.000021      -0.000052
   7      -0.000002       0.000078       0.000039
   8       0.000020      -0.000043      -0.000032
   9       0.000010      -0.000037       0.000074
  10       0.000020       0.000076       0.000037
  11       0.000013      -0.000028      -0.000014
  12      -0.000001       0.000036      -0.000052
---------------------------------------------------
 Number of fixed atoms: 0
 Gradient time:  CPU 76.91 s  wall 3.46 s
 ----------------------------------------------------------------
             Standard Nuclear Orientation (Angstroms)
    I     Atom           X                Y                Z
 ----------------------------------------------------------------
    1      Li      3.1363248309     0.0204339684    -0.0844314542
    2      C      -1.8550148150     0.7574588382    -0.0166357913
    3      O      -0.5109658361     1.0979653044     0.4720945387
    4      C      -1.8631937726    -0.7594697741     0.0088339634
    5      S       0.5230183782    -0.0067313227     0.0318602857
    6      O      -0.5018942310    -1.1181541048    -0.4138509288
    7      O       1.3424977048     0.3905444236    -1.1114809438
    8      O       1.3515840613    -0.3951759689     1.1664567189
    9      H      -2.5566597853     1.2010870734     0.6849607822
   10      H      -1.9652995791     1.1721956793    -1.0182718757
   11      H      -2.0249748379    -1.1630190386     1.0040410558
   12      H      -2.5369945796    -1.1970288166    -0.7232472399
 ----------------------------------------------------------------
 Nuclear Repulsion Energy =   484.1598219044 hartrees
 There are       33 alpha and       33 beta electrons
 Discretize the solute cavity surface with Lebedev spheres
	Using 302 Lebedev grid points for each H atom
	Using 302 Lebedev grid points for other atoms
	Atomic van der Waals radii will be scaled by 1.20
 Removing interior tesserae...
 Keep 1147 surface tesserae and discard 2477 interior tesserae
 Molecular Surface Area = 164.475 Angst**2

                       Distance Matrix (Angstroms)
             Li(  1)   C (  2)   O (  3)   C (  4)   S (  5)   O (  6)
   C (  2)  5.045917
   O (  3)  3.843634  1.470126
   C (  4)  5.060843  1.517164  2.343757
   S (  5)  2.616034  2.498275  1.575844  2.502230
   O (  6)  3.826426  2.346623  2.386664  1.469848  1.576187
   O (  7)  2.099911  3.399617  2.538402  3.585261  1.461713  2.482869
   O (  8)  2.218728  3.607014  2.486102  3.436218  1.457642  2.540758
   H (  9)  5.864809  1.086899  2.059323  2.186739  3.371911  3.287602
   H ( 10)  5.312738  1.089699  2.083696  2.190138  2.946926  2.784346
   H ( 11)  5.405955  2.181491  2.772587  1.086031  2.962162  2.081395
   H ( 12)  5.837538  2.187331  3.286432  1.086926  3.369076  2.059995
             O (  7)   O (  8)   H (  9)   H ( 10)   H ( 11)
   O (  8)  2.409655
   H (  9)  4.368937  4.249031
   H ( 10)  3.400175  4.269826  1.803204
   H ( 11)  4.269527  3.466571  2.444074  3.089747
   H ( 12)  4.209700  4.397157  2.781078  2.455015  1.801901
 
 Requested basis set is 6-31++G(d,p)
 There are 57 shells and 180 basis functions
 A cutoff of  1.0D-12 yielded   1574 shell pairs
 There are     16206 function pairs
 Smallest overlap matrix eigenvalue = 1.31E-04

 -----------------------------------------------------------------------
  General SCF calculation program by
  Eric Jon Sundstrom, Paul Horn, Yuezhi Mao, Dmitri Zuev, Alec White,
  David Stuck, Shaama M.S., Shane Yost, Joonho Lee, David Small,
  Daniel Levine, Susi Lehtola, Hugh Burton, Evgeny Epifanovsky
 -----------------------------------------------------------------------
 Exchange:     0.2220 Hartree-Fock + 1.0000 wB97X-D + LR-HF
 Correlation:  1.0000 wB97X-D
 Using SG-3 standard quadrature grid
 Dispersion:   Grimme D
 using 32 threads for integral computing
 -------------------------------------------------------
 OpenMP Integral computing Module                
 Release: version 1.0, May 2013, Q-Chem Inc. Pittsburgh 
 -------------------------------------------------------
 using 32 threads for integral computing
 -------------------------------------------------------
 OpenMP Integral computing Module                
 Release: version 1.0, May 2013, Q-Chem Inc. Pittsburgh 
 -------------------------------------------------------
 -------------------------------------------------------
 OpenMP BLAS3 based DFT computing Module                
 Release: version 1.0, May 2013, Q-Chem Inc. Pittsburgh 
 -------------------------------------------------------
 A restricted SCF calculation will be
 performed using DIIS, GDM
 SCF converges when RMS gradient is below 1.0e-08
 ---------------------------------------
  Cycle       Energy         DIIS error
 ---------------------------------------
    1    -784.9336969993      2.09e-06  
    2    -784.9336957087      9.81e-07  Done DIIS. Switching to GDM
 ---------------------------------------
  Cycle       Energy        RMS Gradient
 ---------------------------------------
    1    -784.9336957087      1.88e-05   Normal BFGS step
    2    -784.9336957092      2.25e-05   Normal BFGS step
    3    -784.9336957136      1.91e-06   Normal BFGS step
    4    -784.9336957137      6.30e-07   Normal BFGS step
    5    -784.9336957137      2.08e-07   Normal BFGS step
    6    -784.9336957137      1.83e-07   Normal BFGS step
    7    -784.9336957137      1.17e-08   Normal BFGS step
    8    -784.9336957137      9.60e-09  Convergence criterion met
 ---------------------------------------
 SCF time:   CPU 353.53s  wall 14.00s 
(0)  E-EN(g) gas-phase elect-nuc energy                    0.000000000 a.u.
(3)  G-ENP(liq) elect-nuc-pol free energy of system     -784.933695714 a.u.
(4)  G-CDS(liq) cavity-dispersion-solvent structure 
     free energy                                               -0.3973 kcal/mol
(6)  G-S(liq) free energy of system                     -784.934328792 a.u.
(9)  DeltaG-S(liq) free energy of  solvation
     (9) = (6) - (0)                                      -492553.7254 kcal/mol
 SCF   energy in the final basis set =     -784.9336957137
 Total energy in the final basis set =     -784.9343287916
 
 --------------------------------------------------------------
 
                    Orbital Energies (a.u.)
 --------------------------------------------------------------
 
 Alpha MOs
 -- Occupied --
-89.382 -19.389 -19.389 -19.346 -19.345 -10.399 -10.399  -8.366
 -6.318  -6.316  -6.315  -2.163  -1.354  -1.227  -1.208  -1.177
 -0.926  -0.814  -0.778  -0.678  -0.671  -0.637  -0.622  -0.593
 -0.571  -0.540  -0.523  -0.510  -0.489  -0.487  -0.485  -0.440
 -0.428
 -- Virtual --
  0.008   0.017   0.017   0.019   0.042   0.062   0.066   0.068
  0.070   0.086   0.089   0.090   0.093   0.115   0.122   0.133
  0.135   0.135   0.140   0.149   0.171   0.175   0.179   0.195
  0.203   0.204   0.212   0.215   0.216   0.220   0.239   0.247
  0.265   0.272   0.276   0.278   0.292   0.307   0.320   0.342
  0.346   0.351   0.354   0.364   0.383   0.393   0.404   0.405
  0.415   0.422   0.427   0.444   0.471   0.501   0.568   0.581
  0.610   0.644   0.665   0.675   0.684   0.732   0.743   0.764
  0.770   0.783   0.828   0.849   0.865   0.901   1.014   1.018
  1.062   1.103   1.114   1.132   1.143   1.173   1.183   1.238
  1.248   1.251   1.307   1.321   1.332   1.378   1.381   1.405
  1.409   1.425   1.447   1.489   1.493   1.522   1.584   1.642
  1.655   1.667   1.692   1.756   1.798   1.836   1.846   1.862
  1.904   1.914   1.958   1.983   1.987   1.999   2.034   2.062
  2.096   2.111   2.176   2.194   2.213   2.267   2.280   2.346
  2.392   2.411   2.509   2.601   2.641   2.648   2.667   2.741
  2.756   2.809   2.835   2.916   2.935   2.940   2.973   3.116
  3.375   3.395   3.533   3.593   4.063   4.211   4.294   4.309
  4.377   4.529   4.756
 --------------------------------------------------------------
 
          Ground-State Mulliken Net Atomic Charges

     Atom                 Charge (a.u.)
  ----------------------------------------
      1 Li                    0.770755
      2 C                    -0.150412
      3 O                    -0.531551
      4 C                    -0.150901
      5 S                     1.793606
      6 O                    -0.534378
      7 O                    -0.593721
      8 O                    -0.589005
      9 H                     0.255391
     10 H                     0.237665
     11 H                     0.238101
     12 H                     0.254449
  ----------------------------------------
  Sum of atomic charges =     1.000000

 -----------------------------------------------------------------
                    Cartesian Multipole Moments
 -----------------------------------------------------------------
    Charge (ESU x 10^10)
                 4.8032
    Dipole Moment (Debye)
         X       3.5129      Y       0.0914      Z      -0.4014
       Tot       3.5369
    Quadrupole Moments (Debye-Ang)
        XX       6.5681     XY       0.2629     YY     -46.1923
        XZ      -1.1319     YZ       0.3339     ZZ     -50.3682
    Octopole Moments (Debye-Ang^2)
       XXX     112.3604    XXY       1.0481    XYY      -2.2355
       YYY       0.7415    XXZ      -4.7351    XYZ       2.8790
       YYZ      -0.9861    XZZ      -6.5426    YZZ       0.1767
       ZZZ      -3.0126
    Hexadecapole Moments (Debye-Ang^3)
      XXXX       5.9543   XXXY       2.8088   XXYY     -97.3840
      XYYY      -0.1327   YYYY    -189.2150   XXXZ     -13.9382
      XXYZ       8.2321   XYYZ      -0.3386   YYYZ      -0.0821
      XXZZ    -110.3650   XYZZ       0.3388   YYZZ     -55.5048
      XZZZ      -1.5335   YZZZ       0.8973   ZZZZ    -161.6877
 -----------------------------------------------------------------
 Calculating analytic gradient of the SCF energy
 Gradient of CDS energy
            1           2           3           4           5           6
    1   0.0000592  -0.0004623   0.0001888  -0.0004437  -0.0000217   0.0001872
    2   0.0000013   0.0010628  -0.0001537  -0.0010696   0.0000110   0.0001552
    3  -0.0000063  -0.0000564  -0.0000837   0.0000690  -0.0000206   0.0000861
            7           8           9          10          11          12
    1  -0.0001274  -0.0001332   0.0001848   0.0002117   0.0001694   0.0001873
    2  -0.0000261   0.0000241  -0.0001067  -0.0001256   0.0001288   0.0000986
    3   0.0000969  -0.0000891   0.0000378   0.0000562  -0.0000669  -0.0000230
 Gradient of SCF Energy
            1           2           3           4           5           6
    1   0.0062750   0.0426005  -0.0265881   0.0437812  -0.0058210  -0.0259515
    2  -0.0001128  -0.0308824   0.0238359   0.0285433  -0.0001373  -0.0239199
    3  -0.0003143   0.0200802   0.0048607  -0.0157677  -0.0004724  -0.0055941
            7           8           9          10          11          12
    1   0.0197999   0.0203184  -0.0313818  -0.0055022  -0.0073982  -0.0301322
    2   0.0142132  -0.0140086   0.0171423   0.0140493  -0.0118483  -0.0168746
    3  -0.0409035   0.0421628   0.0296916  -0.0409497   0.0384146  -0.0312082
 Max gradient component =       4.378E-02
 RMS gradient           =       2.436E-02
 Computing VTN gradient.
 Updating gradient with PCM contributions...
 -- total gradient after adding PCM contribution --
---------------------------------------------------
  Atom         X              Y              Z     
---------------------------------------------------
   1       0.000013      -0.000045      -0.000066
   2      -0.000022      -0.000003       0.000046
   3      -0.000005      -0.000051       0.000099
   4      -0.000005      -0.000027      -0.000081
   5      -0.000048       0.000029       0.000030
   6       0.000010       0.000022      -0.000055
   7      -0.000002       0.000075       0.000027
   8       0.000016      -0.000046      -0.000044
   9       0.000010      -0.000037       0.000074
  10       0.000020       0.000076       0.000037
  11       0.000013      -0.000028      -0.000014
  12      -0.000001       0.000036      -0.000052
---------------------------------------------------
 Number of fixed atoms: 0
 Gradient time:  CPU 78.05 s  wall 3.49 s
 ----------------------------------------------------------------
             Standard Nuclear Orientation (Angstroms)
    I     Atom           X                Y                Z
 ----------------------------------------------------------------
    1      Li      3.1363248309     0.0204339684    -0.0864314542
    2      C      -1.8550148150     0.7574588382    -0.0166357913
    3      O      -0.5109658361     1.0979653044     0.4720945387
    4      C      -1.8631937726    -0.7594697741     0.0088339634
    5      S       0.5230183782    -0.0067313227     0.0318602857
    6      O      -0.5018942310    -1.1181541048    -0.4138509288
    7      O       1.3424977048     0.3905444236    -1.1114809438
    8      O       1.3515840613    -0.3951759689     1.1664567189
[...]
     6    1.090766542146932e-02   5.768216366580594e-03   9.717534498605010e-03
     7    6.378008446026311e-04   6.978781519359116e-04  -4.172244072953456e-04
     8    1.000541095728149e-03   5.266449538675936e-04   1.034065863608482e-03
     9   -1.139505346598688e-04   2.463247800002691e-05   2.061039907735543e-04
    10    3.052721386050063e-04  -2.526430655605645e-04   4.975619127491476e-04
    11   -1.636031761722421e-02  -1.127225780209129e-02  -1.420912486662588e-02
    12    1.271899331906892e-01   8.677946229935977e-02   1.937238507381693e-01




 # Finishing finite difference calculation for IDERIV #
 ######################################################
 ######################################################
 Requested basis set is 6-31++G(d,p)
 There are 57 shells and 180 basis functions
 **********************************************************************
 **                                                                  **
 **                       VIBRATIONAL ANALYSIS                       **
 **                       --------------------                       **
 **                                                                  **
 **        VIBRATIONAL FREQUENCIES (CM**-1) AND NORMAL MODES         **
 **     FORCE CONSTANTS (mDYN/ANGSTROM) AND REDUCED MASSES (AMU)     **
 **                  INFRARED INTENSITIES (KM/MOL)                   **
 **                                                                  **
 **********************************************************************
 

 Mode:                 1                      2                      3
 Frequency:       -41.37                  72.04                  72.95
 Force Cnst:      0.0046                 0.0228                 0.0199
 Red. Mass:       4.5709                 7.4490                 6.3484
 IR Active:          YES                    YES                    YES
 IR Intens:       78.984                 98.930                 17.065
 Raman Active:       YES                    YES                    YES
               X      Y      Z        X      Y      Z        X      Y      Z
 Li        -0.018 -0.036  0.536    0.032  0.880  0.045   -0.085 -0.010  0.498
 C         -0.055 -0.035  0.210    0.061  0.101  0.008    0.078  0.051 -0.138
 O          0.037  0.055 -0.138    0.096 -0.014 -0.022    0.002 -0.096  0.204
 C          0.032 -0.045  0.134   -0.062  0.106  0.017   -0.055  0.063 -0.065
 S          0.002  0.013 -0.103    0.000 -0.121 -0.005   -0.003 -0.007 -0.036
 O         -0.023  0.037 -0.095   -0.097 -0.022 -0.007   -0.009 -0.076  0.161
 O          0.065 -0.026 -0.061    0.022 -0.157 -0.009   -0.200  0.044 -0.147
 O         -0.044 -0.001 -0.060   -0.034 -0.141  0.005    0.219  0.037 -0.164
 H          0.109 -0.136  0.438    0.107  0.156  0.019   -0.064  0.171 -0.356
 H         -0.428  0.021  0.271    0.076  0.103  0.007    0.452  0.004 -0.196
 H          0.169 -0.075  0.134   -0.075  0.115  0.021   -0.195  0.093 -0.066
 H         -0.060 -0.039  0.215   -0.114  0.161  0.032    0.019  0.082 -0.145
 TransDip  -0.026 -0.032  0.282    0.012  0.317  0.028   -0.060  0.038  0.111

 Mode:                 4                      5                      6
 Frequency:       274.05                 310.70                 316.75
 Force Cnst:      0.1108                 0.4480                 0.4206
 Red. Mass:       2.5044                 7.8757                 7.1151
 IR Active:          YES                    YES                    YES
 IR Intens:        5.465                  4.067                260.097
 Raman Active:       YES                    YES                    YES
               X      Y      Z        X      Y      Z        X      Y      Z
 Li         0.005 -0.001  0.026   -0.040  0.005 -0.016    0.966 -0.027  0.052
 C          0.035 -0.034 -0.155   -0.043  0.029  0.021   -0.070 -0.001  0.001
 O         -0.010  0.014 -0.009    0.039  0.131 -0.305   -0.081 -0.014  0.016
 C          0.052  0.003  0.221   -0.061 -0.002 -0.091   -0.080  0.003 -0.003
 S         -0.008  0.007 -0.011    0.008 -0.007  0.010   -0.013  0.008 -0.017
 O         -0.019  0.020 -0.045    0.045 -0.154  0.359   -0.076 -0.011  0.042
 O          0.004  0.121  0.039   -0.013  0.285  0.097   -0.064  0.026 -0.035
 O         -0.050 -0.137 -0.034    0.042 -0.276 -0.105   -0.043 -0.006 -0.008
 H         -0.077  0.170 -0.393    0.111 -0.092  0.252   -0.079  0.006 -0.011
 H          0.296 -0.229 -0.256   -0.414  0.116  0.093   -0.068 -0.005 -0.002
 H          0.262  0.135  0.343   -0.327 -0.042 -0.156   -0.114  0.005 -0.005
 H         -0.090 -0.209  0.477    0.125  0.095 -0.319   -0.067  0.008 -0.020
 TransDip   0.060 -0.012  0.043   -0.062  0.003 -0.019    0.517 -0.000 -0.002

 Mode:                 7                      8                      9
 Frequency:       451.72                 457.84                 507.23
 Force Cnst:      1.3702                 1.4454                 2.2153
 Red. Mass:      11.3972                11.7036                14.6136
 IR Active:          YES                    YES                    YES
 IR Intens:       58.399                 23.032                 54.704
 Raman Active:       YES                    YES                    YES
               X      Y      Z        X      Y      Z        X      Y      Z
 Li        -0.030  0.019 -0.020   -0.010 -0.061 -0.039   -0.066  0.041 -0.086
 C         -0.299 -0.038 -0.078    0.115  0.115  0.052    0.026 -0.013  0.063
 O         -0.200 -0.105 -0.032    0.093 -0.259 -0.074   -0.069 -0.127  0.339
 C         -0.277  0.010  0.062   -0.161  0.136  0.092   -0.058 -0.012  0.030
 S          0.031  0.016  0.025    0.004 -0.241 -0.121    0.006  0.150 -0.274
 O         -0.189  0.167  0.008   -0.131 -0.233 -0.073    0.063 -0.107  0.369
 O          0.402 -0.089  0.214    0.099  0.384  0.154    0.462 -0.035 -0.085
 O          0.424  0.015 -0.217   -0.023  0.385  0.111   -0.418 -0.032 -0.094
 H         -0.248  0.094 -0.105    0.233  0.201  0.120   -0.098  0.035 -0.092
 H         -0.192 -0.089 -0.106    0.028  0.135  0.066    0.272 -0.014  0.036
 H         -0.210  0.037  0.089   -0.071  0.170  0.127   -0.238 -0.031 -0.008
 H         -0.201 -0.149  0.084   -0.294  0.188  0.187    0.100  0.042 -0.148
 TransDip  -0.244  0.008  0.009   -0.037 -0.139 -0.054   -0.043  0.124 -0.198

 Mode:                10                     11                     12
 Frequency:       662.98                 667.22                 801.84
 Force Cnst:      1.4804                 1.5001                 3.7739
 Red. Mass:       5.7165                 5.7190                 9.9625
 IR Active:          YES                    YES                    YES
 IR Intens:       20.140                 10.123                 11.098
 Raman Active:       YES                    YES                    YES
               X      Y      Z        X      Y      Z        X      Y      Z
 Li         0.054  0.007 -0.004   -0.051  0.004  0.005    0.068  0.002 -0.003
 C          0.210 -0.148  0.058    0.053 -0.201  0.011    0.211 -0.029  0.006
 O          0.169  0.249  0.046    0.156 -0.086 -0.069    0.093 -0.362 -0.163
 C         -0.051 -0.181 -0.022   -0.245 -0.156  0.014    0.188  0.002 -0.016
 S         -0.147  0.044  0.006    0.141  0.047  0.010   -0.203 -0.002 -0.001
 O         -0.128 -0.127 -0.062   -0.173  0.225  0.051    0.060  0.384  0.172
 O          0.062 -0.029  0.156   -0.041  0.082 -0.138   -0.071 -0.065  0.207
 O          0.037  0.083 -0.144   -0.050 -0.022  0.153   -0.071  0.071 -0.205
 H          0.052  0.010 -0.210    0.135  0.169 -0.145    0.421  0.040  0.157
 H          0.497 -0.304 -0.024    0.298 -0.368 -0.071    0.080  0.024  0.039
 H         -0.199 -0.315 -0.134   -0.429 -0.299 -0.108    0.127 -0.019 -0.039
 H         -0.166  0.269 -0.195   -0.100  0.079 -0.274    0.403 -0.111 -0.131
 TransDip  -0.142 -0.025 -0.002    0.096 -0.036  0.000   -0.106 -0.012 -0.009

 Mode:                13                     14                     15
 Frequency:       839.25                 922.63                 932.89
 Force Cnst:      3.2163                 1.8272                 1.8382
 Red. Mass:       7.7505                 3.6432                 3.5849
 IR Active:          YES                    YES                    YES
 IR Intens:      301.720                189.827                105.338
 Raman Active:       YES                    YES                    YES
               X      Y      Z        X      Y      Z        X      Y      Z
 Li        -0.001  0.016  0.003    0.018  0.001  0.000    0.012  0.000  0.004
 C          0.012  0.030 -0.042   -0.265  0.135 -0.072    0.026  0.091  0.121
 O          0.108 -0.303 -0.100    0.271  0.006  0.066   -0.067 -0.044 -0.081
 C          0.017  0.043 -0.019   -0.066 -0.152 -0.034   -0.235 -0.022  0.110
 S         -0.000  0.302  0.109   -0.035 -0.007 -0.005   -0.023  0.025  0.014
 O         -0.125 -0.295 -0.100    0.059  0.004  0.002    0.280 -0.029 -0.083
 O         -0.005 -0.054 -0.008   -0.010  0.007  0.023   -0.022 -0.035  0.008
 O          0.006 -0.056 -0.011   -0.023  0.025 -0.014   -0.003 -0.022 -0.021
 H          0.398  0.069  0.313   -0.004  0.328  0.074    0.011  0.630 -0.212
 H         -0.121  0.230  0.051   -0.019  0.226 -0.060    0.403 -0.165 -0.011
 H          0.042  0.202  0.096    0.084 -0.050  0.059   -0.220 -0.211 -0.020
 H         -0.406  0.152  0.297    0.146 -0.758  0.126   -0.036  0.199 -0.199
 TransDip   0.016  0.540  0.135   -0.435 -0.010 -0.071   -0.299  0.066  0.118

 Mode:                16                     17                     18
 Frequency:      1016.00                1042.02                1135.90
 Force Cnst:      1.2185                 1.9284                 1.1271
 Red. Mass:       2.0035                 3.0144                 1.4827
 IR Active:          YES                    YES                    YES
 IR Intens:       67.896                188.048                 14.666
 Raman Active:       YES                    YES                    YES
               X      Y      Z        X      Y      Z        X      Y      Z
 Li        -0.004 -0.002  0.001    0.011 -0.003  0.000   -0.001  0.000  0.002
 C         -0.149  0.052  0.109   -0.163 -0.211 -0.013    0.030 -0.020  0.120
 O          0.005 -0.035 -0.053    0.159 -0.016  0.009   -0.020  0.003 -0.046
 C          0.191 -0.007  0.005   -0.042  0.227  0.013   -0.041  0.035 -0.140
 S          0.009 -0.003 -0.003   -0.021 -0.003 -0.002    0.002  0.003  0.002
 O         -0.086 -0.025  0.008    0.115  0.006 -0.002   -0.002  0.006  0.030
 O          0.006  0.008 -0.003   -0.019 -0.010  0.025    0.005  0.001 -0.007
 O          0.003  0.001  0.010   -0.022  0.013 -0.022    0.003 -0.004  0.006
 H         -0.362  0.388 -0.300   -0.407 -0.459 -0.102   -0.226 -0.088 -0.094
 H          0.500 -0.176 -0.039    0.019 -0.236 -0.024    0.517  0.006  0.088
 H         -0.001 -0.153 -0.122   -0.020  0.214 -0.000    0.304  0.206  0.025
 H          0.236  0.332 -0.237   -0.246  0.531  0.020   -0.283 -0.495  0.394
 TransDip   0.237  0.113 -0.028   -0.439  0.019 -0.016    0.076 -0.064  0.073

 Mode:                19                     20                     21
 Frequency:      1200.39                1254.89                1292.14
 Force Cnst:     13.4663                 1.1360                19.1476
 Red. Mass:      15.8618                 1.2243                19.4647
 IR Active:          YES                    YES                    YES
 IR Intens:      498.740                 11.653                437.770
 Raman Active:       YES                    YES                    YES
               X      Y      Z        X      Y      Z        X      Y      Z
 Li        -0.049  0.001  0.001   -0.000  0.001 -0.000   -0.000 -0.017  0.048
 C         -0.032  0.022  0.021    0.021 -0.034  0.025   -0.019 -0.023  0.006
 O         -0.055  0.043  0.027    0.003  0.001 -0.012   -0.009  0.013 -0.020
 C         -0.036 -0.029 -0.035   -0.027  0.091  0.050    0.009  0.022 -0.006
 S          0.421  0.013 -0.040    0.004  0.015  0.002    0.041 -0.164  0.485
 O         -0.052 -0.040 -0.011   -0.026 -0.034 -0.042   -0.007 -0.005 -0.031
 O         -0.334 -0.160  0.464   -0.006 -0.005  0.008    0.267  0.150 -0.430
 O         -0.289  0.133 -0.389   -0.003 -0.001 -0.005   -0.332  0.174 -0.513
 H         -0.112  0.191 -0.148   -0.076 -0.203  0.028    0.121  0.137  0.051
 H         -0.203 -0.083 -0.014    0.149 -0.003  0.033   -0.017 -0.066 -0.008
 H         -0.074  0.009 -0.006   -0.323  0.163  0.060   -0.046  0.041  0.001
 H         -0.222 -0.062  0.140    0.691 -0.486 -0.251    0.037 -0.042  0.010
 TransDip   0.712  0.022 -0.061    0.075  0.008  0.079    0.071 -0.214  0.631

 Mode:                22                     23                     24
 Frequency:      1298.11                1413.35                1562.95
 Force Cnst:      1.3453                 1.3378                 1.5970
 Red. Mass:       1.3550                 1.1367                 1.1096
 IR Active:          YES                    YES                    YES
 IR Intens:       25.420                 10.394                  2.754
 Raman Active:       YES                    YES                    YES
               X      Y      Z        X      Y      Z        X      Y      Z
 Li         0.000  0.000 -0.001    0.000 -0.001  0.000    0.000 -0.001  0.002
 C         -0.028 -0.119  0.026   -0.073 -0.021 -0.047    0.004  0.011 -0.014
 O         -0.013  0.025  0.029   -0.033  0.024 -0.003    0.004 -0.001 -0.001
 C          0.019  0.092 -0.063    0.012 -0.005  0.016   -0.083  0.014  0.014
 S         -0.007 -0.004 -0.008    0.008 -0.010 -0.007    0.006  0.006  0.005
 O         -0.004 -0.015  0.003    0.009  0.005  0.002   -0.023 -0.015  0.012
 O         -0.000  0.002  0.004   -0.006 -0.002  0.009   -0.002 -0.003  0.002
 O          0.007 -0.004  0.009   -0.005  0.004 -0.003   -0.004  0.001 -0.004
 H          0.493  0.705  0.038    0.474 -0.128  0.552    0.003 -0.100  0.052
 H         -0.222 -0.339 -0.032    0.637  0.103 -0.065    0.035 -0.052 -0.038
 H          0.125  0.106 -0.043   -0.056  0.031  0.031    0.868 -0.142  0.028
 H          0.092 -0.160  0.027   -0.044  0.127 -0.011    0.259  0.099 -0.349
 TransDip   0.122  0.026 -0.102    0.065 -0.079  0.016    0.008  0.048 -0.022

 Mode:                25                     26                     27
 Frequency:      1657.34                1713.98                3151.72
 Force Cnst:      1.8381                 2.0094                 6.1838
 Red. Mass:       1.1358                 1.1609                 1.0566
 IR Active:          YES                    YES                    YES
 IR Intens:       21.034                  8.249                 17.392
 Raman Active:       YES                    YES                    YES
               X      Y      Z        X      Y      Z        X      Y      Z
 Li         0.000  0.001 -0.000   -0.000  0.001  0.000    0.000  0.000  0.000
 C         -0.004 -0.097 -0.003    0.001  0.056  0.030   -0.036  0.043 -0.036
 O         -0.006  0.011 -0.007    0.003 -0.005  0.008   -0.001  0.000 -0.000
 C         -0.005 -0.042  0.002   -0.003 -0.084 -0.048    0.002 -0.001  0.002
 S          0.002 -0.004 -0.001   -0.002 -0.001 -0.000    0.001 -0.000 -0.000
 O          0.002  0.005 -0.001    0.005  0.008 -0.008    0.000 -0.000  0.000
 O         -0.001 -0.000  0.001    0.001  0.006  0.001   -0.000 -0.000  0.000
 O         -0.001  0.002 -0.000    0.001 -0.005 -0.000   -0.000  0.000  0.000
 H         -0.013  0.258 -0.223   -0.015 -0.076  0.095    0.352 -0.210 -0.368
 H          0.044  0.727  0.277   -0.058 -0.446 -0.137    0.071 -0.272  0.783
 H          0.066  0.349  0.288   -0.029  0.670  0.481    0.001 -0.002  0.000
 H          0.051  0.157 -0.165    0.006  0.158 -0.211   -0.014 -0.005 -0.012
 TransDip   0.001  0.109 -0.099    0.061  0.037  0.058   -0.046  0.038 -0.119

 Mode:                28                     29                     30
 Frequency:      3202.30                3252.74                5407.83
 Force Cnst:      6.5717                 6.9695                18.6987
 Red. Mass:       1.0877                 1.1180                 1.0852
 IR Active:          YES                    YES                    YES
 IR Intens:        1.799                  6.391                 23.940
 Raman Active:       YES                    YES                    YES
               X      Y      Z        X      Y      Z        X      Y      Z
 Li         0.000  0.000  0.000    0.000 -0.000 -0.000   -0.000 -0.001  0.000
 C         -0.002  0.002  0.002    0.043 -0.013 -0.090   -0.000 -0.000 -0.002
 O          0.001  0.000  0.000   -0.000  0.000  0.000    0.000  0.001 -0.002
 C         -0.053 -0.037 -0.056   -0.001 -0.002 -0.001    0.008  0.049 -0.067
 S          0.001  0.000  0.000   -0.000  0.000 -0.000   -0.000 -0.000  0.000
 O         -0.001  0.000  0.000   -0.001  0.000  0.001    0.000 -0.001  0.003
 O         -0.000  0.000  0.000   -0.000 -0.000  0.000    0.000 -0.002 -0.001
 O         -0.000 -0.000 -0.000   -0.000  0.000  0.000   -0.000  0.002  0.001
 H          0.024 -0.017 -0.025   -0.539  0.335  0.544    0.001  0.002 -0.002
 H          0.000 -0.002 -0.002    0.051 -0.179  0.505    0.001 -0.003 -0.002
 H          0.004  0.018 -0.022   -0.000 -0.001 -0.002   -0.107 -0.568  0.812
 H          0.610  0.404  0.675    0.020  0.014  0.024    0.006  0.003  0.009
 TransDip  -0.023  0.002  0.036   -0.074  0.033 -0.006    0.069  0.029 -0.138

 STANDARD THERMODYNAMIC QUANTITIES AT   298.15 K  AND     1.00 ATM

   This Molecule has  1 Imaginary Frequencies
   Zero point vibrational energy:       52.739 kcal/mol

   Atom    1 Element Li Has Mass    7.01600
   Atom    2 Element C  Has Mass   12.00000
   Atom    3 Element O  Has Mass   15.99491
   Atom    4 Element C  Has Mass   12.00000
   Atom    5 Element S  Has Mass   31.97207
   Atom    6 Element O  Has Mass   15.99491
   Atom    7 Element O  Has Mass   15.99491
   Atom    8 Element O  Has Mass   15.99491
   Atom    9 Element H  Has Mass    1.00783
   Atom   10 Element H  Has Mass    1.00783
   Atom   11 Element H  Has Mass    1.00783
   Atom   12 Element H  Has Mass    1.00783
   Molecular Mass:   130.999030 amu
   Principal axes and moments of inertia in amu*Bohr^2:
                             1           2           3
    Eigenvalues --      409.29365  1063.88510  1109.46213
          X               0.99999    -0.00188     0.00260
          Y               0.00197     0.99936    -0.03575
          Z              -0.00253     0.03576     0.99936
   Rotational Symmetry Number is   1
   The Molecule is an Asymmetric Top
   Translational Enthalpy:        0.889 kcal/mol
   Rotational Enthalpy:           0.889 kcal/mol
   Vibrational Enthalpy:         55.394 kcal/mol
   gas constant (RT):             0.592 kcal/mol
   Translational Entropy:        40.523  cal/mol.K
   Rotational Entropy:           27.670  cal/mol.K
   Vibrational Entropy:          16.349  cal/mol.K

   Total Enthalpy:               57.763 kcal/mol
   Total Entropy:                84.542  cal/mol.K
Archival summary:
1\1\nid01014\FREQ\ProcedureUnspecified\BasisUnspecified\142i14(1+,1)\sblau\FriDec2813:31:092018FriDec2813:31:092018\0\\#,FREQ,ProcedureUnspecified,BasisUnspecified,\\1,1\S\O,1,1.45764\O,1,1.46171,2,111.259\O,1,1.57584,2,110.019,3,-126.429,0\C,4,1.47013,1,110.16,2,-132.753,0\H,5,1.0869,4,106.323,1,151.693,0\H,5,1.0897,4,108.056,1,-88.0484,0\C,5,1.51716,4,103.352,1,32.272,0\H,8,1.08603,5,112.812,4,78.9487,0\H,8,1.08693,5,113.237,4,-152.468,0\O,8,1.46985,5,103.543,4,-37.6756,0\Li,3,2.09942,1,92.7988,2,0.581542,0\\\@

 Total job time:  1541.42s(wall), 38819.33s(cpu) 
 Fri Dec 28 13:31:09 2018

        *************************************************************
        *                                                           *
        *  Thank you very much for using Q-Chem.  Have a nice day.  *
        *                                                           *
        *************************************************************


