
Running Job 1 of 1 mol.qin
qchem mol.qin_15845.0 /tmp/chain_scratch/ 1
/global/common/cori/software/qchem/5.1/exe/qcprog.exe mol.qin_15845.0 /tmp/chain_scratch/
Check license passed

                  Welcome to Q-Chem
     A Quantum Leap Into The Future Of Chemistry


 Q-Chem 5.1, Q-Chem, Inc., Pleasanton, CA (2018)

 Yihan Shao,  Zhengting Gan,  E. Epifanovsky,  A. T. B. Gilbert,  M. Wormit,  
 J. Kussmann,  A. W. Lange,  A. Behn,  Jia Deng,  Xintian Feng,  D. Ghosh,  
 M. Goldey,  P. R. Horn,  L. D. Jacobson,  I. Kaliman,  T. Kus,  A. Landau,  
 Jie Liu,  E. I. Proynov,  R. M. Richard,  R. P. Steele,  E. J. Sundstrom,  
 H. L. Woodcock III,  P. M. Zimmerman,  D. Zuev,  B. Albrecht,  E. Alguire,  
 S. A. Baeppler,  D. Barton,  Z. Benda,  Y. A. Bernard,  E. J. Berquist,  
 K. B. Bravaya,  H. Burton,  D. Casanova,  Chun-Min Chang,  Yunqing Chen,  
 A. Chien,  K. D. Closser,  M. P. Coons,  S. Coriani,  S. Dasgupta,  
 A. L. Dempwolff,  M. Diedenhofen,  Hainam Do,  R. G. Edgar,  Po-Tung Fang,  
 S. Faraji,  S. Fatehi,  Qingguo Feng,  K. D. Fenk,  J. Fosso-Tande,  
 Qinghui Ge,  A. Ghysels,  G. Gidofalvi,  J. Gomes,  J. Gonthier,  A. Gunina,  
 D. Hait,  M. W. D. Hanson-Heine,  P. H. P. Harbach,  A. W. Hauser,  
 J. E. Herr,  E. G. Hohenstein,  Z. C. Holden,  Kerwin Hui,  B. C. Huynh,  
 T.-C. Jagau,  Hyunjun Ji,  B. Kaduk,  K. Khistyaev,  Jaehoon Kim,  
 P. Klunzinger,  K. Koh,  D. Kosenkov,  L. Koulias,  T. Kowalczyk,  
 C. M. Krauter,  A. Kunitsa,  Ka Un Lao,  A. Laurent,  K. V. Lawler,  
 Joonho Lee,  D. Lefrancois,  S. Lehtola,  D. S. Levine,  Yi-Pei Li,  
 You-Sheng Lin,  Fenglai Liu,  E. Livshits,  A. Luenser,  P. Manohar,  
 E. Mansoor,  S. F. Manzer,  Shan-Ping Mao,  Yuezhi Mao,  N. Mardirossian,  
 A. V. Marenich,  T. Markovich,  L. A. Martinez-Martinez,  S. A. Maurer,  
 N. J. Mayhall,  S. C. McKenzie,  J.-M. Mewes,  A. F. Morrison,  
 J. W. Mullinax,  K. Nanda,  T. S. Nguyen-Beck,  R. Olivares-Amaya,  
 J. A. Parkhill,  T. M. Perrine,  F. Plasser,  P. Pokhilko,  S. Prager,  
 A. Prociuk,  E. Ramos,  D. R. Rehn,  F. Rob,  M. Schneider,  N. Sergueev,  
 S. M. Sharada,  S. Sharma,  D. W. Small,  T. Stauch,  T. Stein,  
 Yu-Chuan Su,  A. J. W. Thom,  A. Tkatchenko,  T. Tsuchimochi,  N. M. Tubman,  
 L. Vogt,  M. L. Vidal,  O. Vydrov,  M. A. Watson,  J. Wenzel,  
 M. de Wergifosse,  T. A. Wesolowski,  A. White,  J. Witte,  A. Yamada,  
 Jun Yang,  K. Yao,  S. Yeganeh,  S. R. Yost,  Zhi-Qiang You,  A. Zech,  
 Igor Ying Zhang,  Xing Zhang,  Yan Zhao,  Ying Zhu,  B. R. Brooks,  
 G. K. L. Chan,  C. J. Cramer,  M. S. Gordon,  W. J. Hehre,  A. Klamt,  
 M. W. Schmidt,  C. D. Sherrill,  D. G. Truhlar,  A. Aspuru-Guzik,  R. Baer,  
 A. T. Bell,  N. A. Besley,  Jeng-Da Chai,  R. A. DiStasio Jr.,  A. Dreuw,  
 B. D. Dunietz,  T. R. Furlani,  Chao-Ping Hsu,  Yousung Jung,  Jing Kong,  
 D. S. Lambrecht,  WanZhen Liang,  C. Ochsenfeld,  V. A. Rassolov,  
 L. V. Slipchenko,  J. E. Subotnik,  T. Van Voorhis,  J. M. Herbert,  
 A. I. Krylov,  P. M. W. Gill,  M. Head-Gordon

 Contributors to earlier versions of Q-Chem not listed above: 
 R. D. Adamson,  B. Austin,  J. Baker,  G. J. O. Beran,  K. Brandhorst,  
 S. T. Brown,  E. F. C. Byrd,  A. K. Chakraborty,  C.-L. Cheng,  
 Siu Hung Chien,  D. M. Chipman,  D. L. Crittenden,  H. Dachsel,  
 R. J. Doerksen,  A. D. Dutoi,  L. Fusti-Molnar,  W. A. Goddard III,  
 A. Golubeva-Zadorozhnaya,  S. R. Gwaltney,  G. Hawkins,  A. Heyden,  
 S. Hirata,  G. Kedziora,  F. J. Keil,  C. Kelley,  Jihan Kim,  R. A. King,  
 R. Z. Khaliullin,  P. P. Korambath,  W. Kurlancheek,  A. M. Lee,  M. S. Lee,  
 S. V. Levchenko,  Ching Yeh Lin,  D. Liotard,  R. C. Lochan,  I. Lotan,  
 P. E. Maslen,  N. Nair,  D. P. O'Neill,  D. Neuhauser,  E. Neuscamman,  
 C. M. Oana,  R. Olson,  B. Peters,  R. Peverati,  P. A. Pieniazek,  
 Y. M. Rhee,  J. Ritchie,  M. A. Rohrdanz,  E. Rosta,  N. J. Russ,  
 H. F. Schaefer III,  N. E. Schultz,  N. Shenvi,  A. C. Simmonett,  A. Sodt,  
 D. Stuck,  K. S. Thanthiriwatte,  V. Vanovschi,  Tao Wang,  A. Warshel,  
 C. F. Williams,  Q. Wu,  X. Xu,  W. Zhang

 Please cite Q-Chem as follows:
 Y. Shao et al., Mol. Phys. 113, 184-215 (2015)
 DOI: 10.1080/00268976.2014.952696

 Q-Chem 5.1.0 for Intel X86 EM64T Linux

 Parts of Q-Chem use Armadillo 8.300.2 (Tropical Shenanigans).
 http://arma.sourceforge.net/

 Q-Chem begins on Fri Dec 28 12:20:27 2018  

Host: cori08
0

     Scratch files written to /tmp/chain_scratch//
 Jun2518 |scratch|qcdevops|jenkins|workspace|build_RNUM -1
Processing $rem in /global/common/cori/software/qchem/5.1/config/preferences.
 MEM_TOTAL  96000 
Symmetry turned off for PCM/SM12/SMD calculation

Checking the input file for inconsistencies... 	...done.

--------------------------------------------------------------
User input:
--------------------------------------------------------------
$molecule
1 1
Li      3.0905874227      0.0000399416     -0.0003779723
C     -1.8532221710      0.7622926194     -0.0099573840
O     -0.5064124000      1.1089155069      0.4370123849
C     -1.8532399288     -0.7622730053      0.0098193115
S      0.5268146280     -0.0000055942      0.0000640180
O     -0.5063921542     -1.1089379906     -0.4369490496
O      1.3571519531      0.3847638021     -1.1368852448
O      1.3571509861     -0.3847699331      1.1369871845
H     -2.5377956272      1.2076186487      0.7090790769
H     -1.9991444265      1.1788101697     -1.0080464829
H     -1.9993327218     -1.1787753336      1.0078901404
H     -2.5377380217     -1.2075725699     -0.7093068716
$end

$rem
job_type = opt
basis = 6-31++g**
max_scf_cycles = 200
gen_scfman = true
xc_grid = 3
scf_algorithm = diis_gdm
method = wb97xd
geom_opt_max_cycles = 200
solvent_method = smd
ideriv = 1
$end

$smx
solvent acetonitrile
$end
--------------------------------------------------------------
 ----------------------------------------------------------------
             Standard Nuclear Orientation (Angstroms)
    I     Atom           X                Y                Z
 ----------------------------------------------------------------
    1      Li      3.0905874227     0.0000399416    -0.0003779723
    2      C      -1.8532221710     0.7622926194    -0.0099573840
    3      O      -0.5064124000     1.1089155069     0.4370123849
    4      C      -1.8532399288    -0.7622730053     0.0098193115
    5      S       0.5268146280    -0.0000055942     0.0000640180
    6      O      -0.5063921542    -1.1089379906    -0.4369490496
    7      O       1.3571519531     0.3847638021    -1.1368852448
    8      O       1.3571509861    -0.3847699331     1.1369871845
    9      H      -2.5377956272     1.2076186487     0.7090790769
   10      H      -1.9991444265     1.1788101697    -1.0080464829
   11      H      -1.9993327218    -1.1787753336     1.0078901404
   12      H      -2.5377380217    -1.2075725699    -0.7093068716
 ----------------------------------------------------------------
 Nuclear Repulsion Energy =   484.7319208881 hartrees
 There are       33 alpha and       33 beta electrons
 Requested basis set is 6-31++G(d,p)
 There are 57 shells and 180 basis functions

 Total QAlloc Memory Limit  96000 MB
 Mega-Array Size       188 MB
 MEM_STATIC part       192 MB
 A cutoff of  1.0D-12 yielded   1573 shell pairs
 There are     16202 function pairs
 
 -------------------------------------------------------
 OpenMP Integral Computing Module                       
 Release: version 1.0, May 2013, Q-Chem Inc. Pittsburgh 
 -------------------------------------------------------
 Integral Job Info:
 Integral job number is                      11
 Integral operator is                         1
 short-range coefficients              22203600
 long-range coefficients              100000000
 Omega coefficients                         200
 if combine SR and LR in K                    1
 Integral screening is                        0
 Integral computing path is                   2
 max size of driver memory is            800000
 size of driver memory is                593474
 size of scratch memory is             15604072
 max col of scratch BK array               1296
 max len of scratch array in speh3          155
 max len of scratch index in speh4           18
 max int batch size is                      520
 min int batch size is                       52
 fixed nKL is                                52
 max L of basis functions is                  2
 order of int derivative is                   0
 number of shells is                         57
 number of basis is                         180
 number of cartesian basis is               180
 number of contracted shell pairs          1573
 number of primitive shell pairs           5391
 maxK2 (contraction) of shell pair           36
 max number of K2 of shell pair               1
 max number of CS2 of shell pair            176
 max number of PS2 of shell pair           1056
 mem total for path MDJ                  537180
 -------------------------------------------------------
 Smallest overlap matrix eigenvalue = 1.34E-04

 Scale SEOQF with 1.000000e-02/1.000000e-02/1.000000e-02

 Standard Electronic Orientation quadrupole field applied
 Nucleus-field energy     =     0.0000000004 hartrees
 Guess from superposition of atomic densities
 Warning:  Energy on first SCF cycle will be non-variational
 SAD guess density has 67.000000 electrons

 -----------------------------------------------------------------------
  General SCF calculation program by
  Eric Jon Sundstrom, Paul Horn, Yuezhi Mao, Dmitri Zuev, Alec White,
  David Stuck, Shaama M.S., Shane Yost, Joonho Lee, David Small,
  Daniel Levine, Susi Lehtola, Hugh Burton, Evgeny Epifanovsky
 -----------------------------------------------------------------------
 Exchange:     0.2220 Hartree-Fock + 1.0000 wB97X-D + LR-HF
 Correlation:  1.0000 wB97X-D
 Using SG-3 standard quadrature grid
 Dispersion:   Grimme D
 
 Citation of the SMD model:
 Marenich, A.V.; Cramer, C.J.; Truhlar, D.G.
 J. Phys. Chem. B 2009, 113, 6378-6396.
 iSolventCode=          53
 Solvent: acetonitrile                                                    
 
 vradii
            1           2           3           4           5           6
    1   2.1476001   1.8500000   2.1680000   1.8500000   2.4900000   2.1680000
            7           8           9          10          11          12
    1   2.1680000   2.1680000   1.2000000   1.2000000   1.2000000   1.2000000
Changing PCM_TESSEL_METHOD to VTN
Changing PCM_VDW_RADII to SMD_RADIUS
 Discretize the solute cavity surface with Lebedev spheres
	Using 302 Lebedev grid points for each H atom
	Using 302 Lebedev grid points for other atoms
	Atomic van der Waals radii will be scaled by 1.20
 Removing interior tesserae...
 Keep 1152 surface tesserae and discard 2472 interior tesserae
 Molecular Surface Area = 164.519 Angst**2
 
 Citation of the SMD model:
 Marenich, A.V.; Cramer, C.J.; Truhlar, D.G.
 J. Phys. Chem. B 2009, 113, 6378-6396.
 iSolventCode=          53
 Solvent: acetonitrile                                                    
 
 vradii
            1           2           3           4           5           6
    1   2.1476001   1.8500000   2.1680000   1.8500000   2.4900000   2.1680000
            7           8           9          10          11          12
    1   2.1680000   2.1680000   1.2000000   1.2000000   1.2000000   1.2000000
 
 Citation of the SMD model:
 Marenich, A.V.; Cramer, C.J.; Truhlar, D.G.
 J. Phys. Chem. B 2009, 113, 6378-6396.
 iSolventCode=          53
 Solvent: acetonitrile                                                    
 
 vradii
            1           2           3           4           5           6
    1   2.1476001   1.8500000   2.1680000   1.8500000   2.4900000   2.1680000
            7           8           9          10          11          12
    1   2.1680000   2.1680000   1.2000000   1.2000000   1.2000000   1.2000000
 using 32 threads for integral computing
 -------------------------------------------------------
 OpenMP Integral computing Module                
 Release: version 1.0, May 2013, Q-Chem Inc. Pittsburgh 
 -------------------------------------------------------
 using 32 threads for integral computing
 -------------------------------------------------------
 OpenMP Integral computing Module                
 Release: version 1.0, May 2013, Q-Chem Inc. Pittsburgh 
 -------------------------------------------------------
 -------------------------------------------------------
 OpenMP BLAS3 based DFT computing Module                
 Release: version 1.0, May 2013, Q-Chem Inc. Pittsburgh 
 -------------------------------------------------------
 A restricted SCF calculation will be
 performed using DIIS, GDM
 SCF converges when RMS gradient is below 1.0e-08
 ---------------------------------------
  Cycle       Energy         DIIS error
 ---------------------------------------
    1    -787.1591615229      5.41e-02  
    2    -784.6714743332      9.02e-03  Done DIIS. Switching to GDM
 ---------------------------------------
  Cycle       Energy        RMS Gradient
 ---------------------------------------
    1    -784.6714743332      1.81e-01   Descent step
    2    -784.9231977335      1.75e-02   Normal BFGS step
    3    -784.9307114588      1.30e-02   Normal BFGS step
    4    -784.9330274586      5.18e-03   Normal BFGS step
    5    -784.9333966784      1.16e-03   Normal BFGS step
    6    -784.9334398974      3.45e-04   Normal BFGS step
    7    -784.9334436949      9.82e-05   Normal BFGS step
    8    -784.9334438589      2.70e-05   Normal BFGS step
    9    -784.9334438755      8.95e-06   Normal BFGS step
   10    -784.9334438776      1.27e-06   Normal BFGS step
   11    -784.9334438777      5.15e-07   Normal BFGS step
   12    -784.9334438777      6.54e-07   Normal BFGS step
   13    -784.9334438777      4.73e-08   Normal BFGS step
   14    -784.9334438777      1.87e-08   Normal BFGS step
   15    -784.9334438777      6.39e-09  Convergence criterion met
 ---------------------------------------
 SCF time:   CPU 596.30s  wall 24.00s 
(0)  E-EN(g) gas-phase elect-nuc energy                    0.000000000 a.u.
(3)  G-ENP(liq) elect-nuc-pol free energy of system     -784.933443878 a.u.
(4)  G-CDS(liq) cavity-dispersion-solvent structure 
     free energy                                               -0.4018 kcal/mol
(6)  G-S(liq) free energy of system                     -784.934084124 a.u.
(9)  DeltaG-S(liq) free energy of  solvation
     (9) = (6) - (0)                                      -492553.5719 kcal/mol
 SCF   energy in the final basis set =     -784.9334438777
 Total energy in the final basis set =     -784.9340841243
 
 --------------------------------------------------------------
 
                    Orbital Energies (a.u.)
 --------------------------------------------------------------
 
 Alpha MOs
 -- Occupied --
-89.384 -19.391 -19.391 -19.348 -19.348 -10.399 -10.399  -8.368
 -6.320  -6.319  -6.318  -2.161  -1.356  -1.232  -1.210  -1.180
 -0.926  -0.817  -0.779  -0.679  -0.674  -0.638  -0.624  -0.593
 -0.573  -0.543  -0.525  -0.513  -0.489  -0.487  -0.487  -0.443
 -0.428
 -- Virtual --
  0.008   0.017   0.017   0.019   0.042   0.062   0.067   0.068
  0.070   0.084   0.089   0.090   0.093   0.115   0.121   0.133
  0.133   0.135   0.140   0.147   0.172   0.176   0.178   0.197
  0.203   0.204   0.212   0.215   0.216   0.221   0.239   0.250
  0.268   0.273   0.279   0.279   0.292   0.307   0.318   0.346
  0.346   0.351   0.355   0.363   0.384   0.392   0.404   0.406
  0.414   0.423   0.429   0.447   0.470   0.499   0.568   0.580
  0.610   0.643   0.666   0.675   0.692   0.737   0.744   0.770
  0.773   0.791   0.831   0.851   0.865   0.911   1.011   1.018
  1.062   1.104   1.113   1.143   1.147   1.176   1.184   1.239
  1.247   1.251   1.305   1.321   1.330   1.374   1.378   1.404
  1.407   1.426   1.445   1.491   1.492   1.520   1.587   1.640
  1.654   1.665   1.707   1.754   1.796   1.834   1.847   1.863
  1.908   1.913   1.960   1.984   1.997   2.001   2.043   2.064
  2.109   2.133   2.177   2.195   2.213   2.266   2.280   2.341
  2.401   2.412   2.509   2.597   2.639   2.642   2.668   2.747
  2.754   2.805   2.836   2.916   2.934   2.936   2.972   3.112
  3.367   3.392   3.525   3.593   4.061   4.211   4.295   4.310
  4.375   4.528   4.753
 --------------------------------------------------------------
 
          Ground-State Mulliken Net Atomic Charges

     Atom                 Charge (a.u.)
  ----------------------------------------
      1 Li                    0.749316
      2 C                    -0.154212
      3 O                    -0.530616
      4 C                    -0.154278
      5 S                     1.811932
      6 O                    -0.530640
      7 O                    -0.586376
      8 O                    -0.586358
      9 H                     0.253248
     10 H                     0.237332
     11 H                     0.237341
     12 H                     0.253310
  ----------------------------------------
  Sum of atomic charges =     1.000000

 -----------------------------------------------------------------
                    Cartesian Multipole Moments
 -----------------------------------------------------------------
    Charge (ESU x 10^10)
                 4.8032
    Dipole Moment (Debye)
         X       3.2714      Y       0.0002      Z      -0.0020
       Tot       3.2714
    Quadrupole Moments (Debye-Ang)
        XX       4.8503     XY       0.0005     YY     -46.0274
        XZ      -0.0036     YZ       0.3282     ZZ     -50.3282
    Octopole Moments (Debye-Ang^2)
       XXX     105.7030    XXY       0.0009    XYY      -2.5562
       YYY       0.0006    XXZ      -0.0192    XYZ       2.8291
       YYZ      -0.0011    XZZ      -6.7892    YZZ      -0.0000
       ZZZ      -0.0027
    Hexadecapole Moments (Debye-Ang^3)
      XXXX     -23.0580   XXXY       0.0070   XXYY     -97.1270
      XYYY      -0.0002   YYYY    -189.1186   XXXZ      -0.0509
      XXYZ       8.1459   XYYZ      -0.0004   YYYZ      -0.3010
      XXZZ    -110.7751   XYZZ       0.0010   YYZZ     -55.2473
      XZZZ      -0.0031   YZZZ       0.6719   ZZZZ    -160.5961
 -----------------------------------------------------------------
 Calculating analytic gradient of the SCF energy
 Gradient of CDS energy
            1           2           3           4           5           6
    1   0.0000618  -0.0004421   0.0001872  -0.0004420  -0.0000070   0.0001872
    2   0.0000000   0.0010683  -0.0001547  -0.0010683   0.0000000   0.0001547
    3  -0.0000000  -0.0000724  -0.0000838   0.0000725  -0.0000001   0.0000838
            7           8           9          10          11          12
    1  -0.0001330  -0.0001330   0.0001889   0.0001716   0.0001714   0.0001889
    2  -0.0000241   0.0000241  -0.0000932  -0.0001158   0.0001158   0.0000932
    3   0.0000931  -0.0000931   0.0000270   0.0000677  -0.0000677  -0.0000270
 Gradient of SCF Energy
            1           2           3           4           5           6
    1   0.0022296   0.0487133  -0.0328440   0.0487391  -0.0006159  -0.0328502
    2  -0.0000002  -0.0287134   0.0238199   0.0287170   0.0000036  -0.0238237
    3  -0.0000021   0.0210660   0.0038824  -0.0210391   0.0000075  -0.0038887
            7           8           9          10          11          12
    1   0.0217505   0.0217450  -0.0308624  -0.0075611  -0.0075731  -0.0308709
    2   0.0134282  -0.0134284   0.0190268   0.0151990  -0.0151971  -0.0190316
    3  -0.0401342   0.0401349   0.0303645  -0.0411816   0.0411698  -0.0303793
 Max gradient component =       4.874E-02
 RMS gradient           =       2.559E-02
 Computing VTN gradient.
 Updating gradient with PCM contributions...
 -- total gradient after adding PCM contribution --
---------------------------------------------------
  Atom         X              Y              Z     
---------------------------------------------------
   1      -0.002603       0.000000      -0.000000
   2       0.004426       0.002165       0.001987
   3      -0.005449      -0.000284      -0.001145
   4       0.004450      -0.002168      -0.001973
   5       0.003593       0.000003       0.000008
   6      -0.005458       0.000282       0.001142
   7       0.001105      -0.000464       0.001433
   8       0.001099       0.000464      -0.001439
   9      -0.000244       0.001294       0.000129
  10      -0.000330       0.001316      -0.000726
  11      -0.000332      -0.001322       0.000728
  12      -0.000258      -0.001287      -0.000144
---------------------------------------------------
 Number of fixed atoms: 0
 Gradient time:  CPU 76.04 s  wall 3.63 s
 Geometry Optimization Parameters
   NAtoms,    NIC,     NZ,  NCons,   NDum,   NFix, NCnnct, MaxDiis
       12     104       0       0       0       0       0       0


** GEOMETRY OPTIMIZATION IN DELOCALIZED INTERNAL COORDINATES **
   Searching for a Minimum

   Optimization Cycle:   1

                       Coordinates (Angstroms)
     ATOM                X               Y               Z
      1  Li        3.0905874227    0.0000399416   -0.0003779723
      2  C        -1.8532221710    0.7622926194   -0.0099573840
      3  O        -0.5064124000    1.1089155069    0.4370123849
      4  C        -1.8532399288   -0.7622730053    0.0098193115
      5  S         0.5268146280   -0.0000055942    0.0000640180
      6  O        -0.5063921542   -1.1089379906   -0.4369490496
      7  O         1.3571519531    0.3847638021   -1.1368852448
      8  O         1.3571509861   -0.3847699331    1.1369871845
      9  H        -2.5377956272    1.2076186487    0.7090790769
     10  H        -1.9991444265    1.1788101697   -1.0080464829
     11  H        -1.9993327218   -1.1787753336    1.0078901404
     12  H        -2.5377380217   -1.2075725699   -0.7093068716
   Point Group: c1    Number of degrees of freedom:    30


   Energy is   -784.934084124


 Attempting to Generate Delocalized Internal Coordinates

 30 Hessian modes will be used to form the next step
  Hessian Eigenvalues:
     0.009353    0.018263    0.026639    0.044420    0.047314    0.054476
     0.056547    0.059037    0.068294    0.071938    0.100551    0.105594
     0.110715    0.111376    0.119631    0.125448    0.143663    0.198976
     0.219854    0.282029    0.346614    0.346615    0.350326    0.350327
     0.350694    0.358086    0.516086    0.540602    0.798064    0.845924

 Minimum Search - Taking Simple RFO Step
 Searching for Lamda that Minimizes Along All modes
 Value Taken    Lamda =  -0.00027786
 Step Taken.  Stepsize is  0.041584

                             Maximum     Tolerance    Cnvgd?
         Gradient           0.004215      0.000300      NO
         Displacement       0.023979      0.001200      NO
         Energy change     *********      0.000001      NO


 New Cartesian Coordinates Obtained by Inverse Iteration

 Displacement from previous Coordinates is:  0.048963
 ----------------------------------------------------------------
             Standard Nuclear Orientation (Angstroms)
    I     Atom           X                Y                Z
 ----------------------------------------------------------------
    1      Li      3.0979897275     0.0000122582    -0.0003587047
    2      C      -1.8544402331     0.7589997979    -0.0106426264
    3      O      -0.5027972661     1.1080131104     0.4397052159
    4      C      -1.8544556504    -0.7589534654     0.0104627779
    5      S       0.5278806974    -0.0000070006     0.0000560302
    6      O      -0.5027716935    -1.1080245094    -0.4396709312
    7      O       1.3563467151     0.3880961614    -1.1377638430
    8      O       1.3563191174    -0.3881155668     1.1378712712
    9      H      -2.5425736044     1.1966249903     0.7079901078
   10      H      -2.0002300453     1.1682162328    -1.0097333154
   11      H      -2.0003502516    -1.1680640040     1.0095751410
   12      H      -2.5424899744    -1.1966917431    -0.7081620124
 ----------------------------------------------------------------
 Nuclear Repulsion Energy =   484.6572182067 hartrees
 There are       33 alpha and       33 beta electrons
 Discretize the solute cavity surface with Lebedev spheres
	Using 302 Lebedev grid points for each H atom
	Using 302 Lebedev grid points for other atoms
	Atomic van der Waals radii will be scaled by 1.20
 Removing interior tesserae...
 Keep 1149 surface tesserae and discard 2475 interior tesserae
 Molecular Surface Area = 164.059 Angst**2
 Nucleus-field energy     =     0.0000000004 hartrees
 Requested basis set is 6-31++G(d,p)
 There are 57 shells and 180 basis functions
 A cutoff of  1.0D-12 yielded   1573 shell pairs
 There are     16202 function pairs
 Smallest overlap matrix eigenvalue = 1.32E-04
 Guess MOs from SCF MO coefficient file
 Reading MOs from coefficient file
 Reading MOs from coefficient file

 -----------------------------------------------------------------------
  General SCF calculation program by
  Eric Jon Sundstrom, Paul Horn, Yuezhi Mao, Dmitri Zuev, Alec White,
  David Stuck, Shaama M.S., Shane Yost, Joonho Lee, David Small,
  Daniel Levine, Susi Lehtola, Hugh Burton, Evgeny Epifanovsky
 -----------------------------------------------------------------------
 Exchange:     0.2220 Hartree-Fock + 1.0000 wB97X-D + LR-HF
 Correlation:  1.0000 wB97X-D
 Using SG-3 standard quadrature grid
 Dispersion:   Grimme D
 using 32 threads for integral computing
 -------------------------------------------------------
 OpenMP Integral computing Module                
 Release: version 1.0, May 2013, Q-Chem Inc. Pittsburgh 
 -------------------------------------------------------
 using 32 threads for integral computing
 -------------------------------------------------------
 OpenMP Integral computing Module                
 Release: version 1.0, May 2013, Q-Chem Inc. Pittsburgh 
 -------------------------------------------------------
 -------------------------------------------------------
 OpenMP BLAS3 based DFT computing Module                
 Release: version 1.0, May 2013, Q-Chem Inc. Pittsburgh 
 -------------------------------------------------------
 A restricted SCF calculation will be
 performed using DIIS, GDM
 SCF converges when RMS gradient is below 1.0e-08
 ---------------------------------------
  Cycle       Energy         DIIS error
 ---------------------------------------
    1    -784.9344767415      2.91e-04  
    2    -784.9335764910      4.17e-05  Done DIIS. Switching to GDM
 ---------------------------------------
  Cycle       Energy        RMS Gradient
 ---------------------------------------
    1    -784.9335764910      5.37e-04   Normal BFGS step
    2    -784.9335830556      3.89e-04   Normal BFGS step
    3    -784.9335848479      1.12e-04   Normal BFGS step
    4    -784.9335851391      2.34e-05   Normal BFGS step
    5    -784.9335851658      2.01e-05   Normal BFGS step
    6    -784.9335851672      1.12e-05   Normal BFGS step
    7    -784.9335851688      1.40e-06   Normal BFGS step
    8    -784.9335851688      1.17e-06   Normal BFGS step
    9    -784.9335851688      9.66e-08   Normal BFGS step
   10    -784.9335851688      5.91e-08   Normal BFGS step
   11    -784.9335851688      4.47e-08   Normal BFGS step
   12    -784.9335851688      8.56e-09  Convergence criterion met
 ---------------------------------------
 SCF time:   CPU 488.89s  wall 19.00s 
(0)  E-EN(g) gas-phase elect-nuc energy                    0.000000000 a.u.
(3)  G-ENP(liq) elect-nuc-pol free energy of system     -784.933585169 a.u.
(4)  G-CDS(liq) cavity-dispersion-solvent structure 
     free energy                                               -0.4018 kcal/mol
(6)  G-S(liq) free energy of system                     -784.934225415 a.u.
(9)  DeltaG-S(liq) free energy of  solvation
     (9) = (6) - (0)                                      -492553.6606 kcal/mol
 SCF   energy in the final basis set =     -784.9335851688
 Total energy in the final basis set =     -784.9342254154
 
 --------------------------------------------------------------
 
                    Orbital Energies (a.u.)
 --------------------------------------------------------------
 
 Alpha MOs
 -- Occupied --
-89.384 -19.390 -19.390 -19.347 -19.347 -10.399 -10.399  -8.368
 -6.320  -6.318  -6.317  -2.161  -1.356  -1.230  -1.209  -1.179
 -0.927  -0.816  -0.780  -0.679  -0.673  -0.638  -0.624  -0.594
 -0.572  -0.542  -0.524  -0.512  -0.490  -0.488  -0.486  -0.442
 -0.429
 -- Virtual --
  0.008   0.017   0.017   0.019   0.042   0.062   0.066   0.068
  0.070   0.084   0.089   0.090   0.093   0.115   0.121   0.133
  0.134   0.135   0.140   0.148   0.172   0.176   0.179   0.196
  0.203   0.204   0.212   0.216   0.216   0.221   0.239   0.250
  0.268   0.273   0.278   0.279   0.293   0.307   0.320   0.345
  0.346   0.351   0.354   0.364   0.384   0.392   0.404   0.406
  0.414   0.422   0.428   0.446   0.471   0.500   0.568   0.580
  0.609   0.643   0.666   0.675   0.690   0.735   0.744   0.769
  0.773   0.790   0.829   0.852   0.866   0.910   1.013   1.018
  1.063   1.103   1.114   1.143   1.145   1.176   1.182   1.240
  1.246   1.251   1.306   1.321   1.330   1.375   1.379   1.404
  1.408   1.426   1.446   1.491   1.492   1.523   1.587   1.644
  1.655   1.666   1.705   1.755   1.795   1.835   1.847   1.863
  1.908   1.915   1.959   1.982   1.994   2.000   2.037   2.063
  2.109   2.125   2.176   2.194   2.212   2.267   2.280   2.346
  2.400   2.409   2.513   2.600   2.641   2.646   2.667   2.741
  2.753   2.807   2.835   2.915   2.936   2.941   2.972   3.113
  3.371   3.395   3.530   3.591   4.062   4.211   4.295   4.310
  4.375   4.529   4.755
 --------------------------------------------------------------
 
          Ground-State Mulliken Net Atomic Charges

     Atom                 Charge (a.u.)
  ----------------------------------------
      1 Li                    0.751878
      2 C                    -0.152894
      3 O                    -0.532453
      4 C                    -0.152911
      5 S                     1.808510
      6 O                    -0.532461
      7 O                    -0.587577
      8 O                    -0.587562
      9 H                     0.254526
     10 H                     0.238209
     11 H                     0.238211
     12 H                     0.254525
  ----------------------------------------
  Sum of atomic charges =     1.000000

 -----------------------------------------------------------------
                    Cartesian Multipole Moments
 -----------------------------------------------------------------
    Charge (ESU x 10^10)
                 4.8032
    Dipole Moment (Debye)
         X       3.2524      Y       0.0001      Z      -0.0016
       Tot       3.2524
    Quadrupole Moments (Debye-Ang)
        XX       5.2342     XY      -0.0000     YY     -46.1483
        XZ      -0.0042     YZ       0.3365     ZZ     -50.3283
    Octopole Moments (Debye-Ang^2)
       XXX     106.0576    XXY       0.0001    XYY      -2.4429
       YYY      -0.0000    XXZ      -0.0160    XYZ       2.8656
       YYZ      -0.0010    XZZ      -6.9390    YZZ       0.0002
       ZZZ      -0.0011
    Hexadecapole Moments (Debye-Ang^3)
      XXXX     -17.5548   XXXY       0.0029   XXYY     -97.4754
      XYYY       0.0022   YYYY    -188.8514   XXXZ      -0.0547
      XXYZ       8.1992   XYYZ      -0.0002   YYYZ      -0.2271
      XXZZ    -110.6613   XYZZ       0.0008   YYZZ     -55.2987
      XZZZ      -0.0054   YZZZ       0.7302   ZZZZ    -160.8839
 -----------------------------------------------------------------
 Calculating analytic gradient of the SCF energy
 Gradient of CDS energy
            1           2           3           4           5           6
    1   0.0000618  -0.0004421   0.0001872  -0.0004420  -0.0000070   0.0001872
    2   0.0000000   0.0010683  -0.0001547  -0.0010683   0.0000000   0.0001547
    3  -0.0000000  -0.0000724  -0.0000838   0.0000725  -0.0000001   0.0000838
            7           8           9          10          11          12
    1  -0.0001330  -0.0001330   0.0001889   0.0001716   0.0001714   0.0001889
    2  -0.0000241   0.0000241  -0.0000932  -0.0001158   0.0001158   0.0000932
    3   0.0000931  -0.0000931   0.0000270   0.0000677  -0.0000677  -0.0000270
 Gradient of SCF Energy
            1           2           3           4           5           6
    1   0.0029059   0.0459068  -0.0283348   0.0458901  -0.0018200  -0.0283417
    2  -0.0000006  -0.0294771   0.0234365   0.0294795   0.0000026  -0.0234361
    3  -0.0000017   0.0202812   0.0048893  -0.0203019   0.0000017  -0.0048870
            7           8           9          10          11          12
    1   0.0211554   0.0211522  -0.0313018  -0.0079620  -0.0079635  -0.0312866
    2   0.0138081  -0.0138101   0.0170121   0.0130199  -0.0130102  -0.0170244
    3  -0.0410717   0.0410768   0.0302694  -0.0409324   0.0409293  -0.0302532
 Max gradient component =       4.591E-02
 RMS gradient           =       2.493E-02
 Computing VTN gradient.
 Updating gradient with PCM contributions...
 -- total gradient after adding PCM contribution --
---------------------------------------------------
  Atom         X              Y              Z     
---------------------------------------------------
   1      -0.002158       0.000000      -0.000000
   2       0.001202      -0.002033       0.003624
   3      -0.001688      -0.000573      -0.000350
   4       0.001167       0.002206      -0.003805
   5       0.002371       0.000002       0.000004
   6      -0.001695       0.000573       0.000353
   7       0.000751      -0.000192       0.000490
   8       0.000748       0.000191      -0.000492
   9      -0.000239       0.000008      -0.000203
  10      -0.000128       0.002634      -0.002606
  11      -0.000103      -0.002805       0.002769
  12      -0.000229      -0.000011       0.000218
---------------------------------------------------
 Number of fixed atoms: 0
 Gradient time:  CPU 75.52 s  wall 3.44 s
 Geometry Optimization Parameters
   NAtoms,    NIC,     NZ,  NCons,   NDum,   NFix, NCnnct, MaxDiis
       12     104       0       0       0       0       0       0

 Cartesian Hessian Update
 Hessian Updated using BFGS Update


** GEOMETRY OPTIMIZATION IN DELOCALIZED INTERNAL COORDINATES **
   Searching for a Minimum

   Optimization Cycle:   2

                       Coordinates (Angstroms)
     ATOM                X               Y               Z
      1  Li        3.0979897275    0.0000122582   -0.0003587047
      2  C        -1.8544402331    0.7589997979   -0.0106426264
      3  O        -0.5027972661    1.1080131104    0.4397052159
      4  C        -1.8544556504   -0.7589534654    0.0104627779
      5  S         0.5278806974   -0.0000070006    0.0000560302
      6  O        -0.5027716935   -1.1080245094   -0.4396709312
      7  O         1.3563467151    0.3880961614   -1.1377638430
      8  O         1.3563191174   -0.3881155668    1.1378712712
      9  H        -2.5425736044    1.1966249903    0.7079901078
     10  H        -2.0002300453    1.1682162328   -1.0097333154
     11  H        -2.0003502516   -1.1680640040    1.0095751410
     12  H        -2.5424899744   -1.1966917431   -0.7081620124
   Point Group: c1    Number of degrees of freedom:    30


   Energy is   -784.934225415

 Hessian Updated using BFGS Update

 30 Hessian modes will be used to form the next step
  Hessian Eigenvalues:
     0.009482    0.018263    0.026639    0.032487    0.044421    0.048648
     0.054481    0.056547    0.059567    0.070131    0.091875    0.105582
     0.106541    0.110754    0.119648    0.125448    0.146511    0.181550
     0.219854    0.250315    0.302567    0.346615    0.350327    0.350604
     0.350694    0.500529    0.540602    0.625072    0.802291    0.845925

 Minimum Search - Taking Simple RFO Step
 Searching for Lamda that Minimizes Along All modes
 Value Taken    Lamda =  -0.00053689
 Step Taken.  Stepsize is  0.117946

                             Maximum     Tolerance    Cnvgd?
         Gradient           0.003639      0.000300      NO
         Displacement       0.067528      0.001200      NO
         Energy change     -0.000141      0.000001      NO


 New Cartesian Coordinates Obtained by Inverse Iteration

 Displacement from previous Coordinates is:  0.129404
 ----------------------------------------------------------------
             Standard Nuclear Orientation (Angstroms)
    I     Atom           X                Y                Z
 ----------------------------------------------------------------
    1      Li      3.1186458943     0.0003741992    -0.0007828717
    2      C      -1.8558274214     0.7534422166    -0.0119833656
    3      O      -0.4948604348     1.1081894527     0.4453996562
    4      C      -1.8558916973    -0.7538487676     0.0117187225
    5      S       0.5280227315    -0.0001579742     0.0001833843
    6      O      -0.4946102133    -1.1089102700    -0.4445945582
    7      O       1.3523033118     0.4003515744    -1.1377850507
    8      O       1.3529181600    -0.4003185557     1.1378145342
    9      H      -2.5462246843     1.1774531379     0.7104975519
   10      H      -2.0093064877     1.1320431765    -1.0077429918
   11      H      -2.0107860533    -1.1302622843     1.0074249947
   12      H      -2.5459555667    -1.1782496438    -0.7108208947
 ----------------------------------------------------------------
 Nuclear Repulsion Energy =   484.5419057045 hartrees
 There are       33 alpha and       33 beta electrons
 Discretize the solute cavity surface with Lebedev spheres
	Using 302 Lebedev grid points for each H atom
	Using 302 Lebedev grid points for other atoms
	Atomic van der Waals radii will be scaled by 1.20
 Removing interior tesserae...
 Keep 1138 surface tesserae and discard 2486 interior tesserae
 Molecular Surface Area = 162.729 Angst**2
 Nucleus-field energy     =     0.0000000004 hartrees
 Requested basis set is 6-31++G(d,p)
 There are 57 shells and 180 basis functions
 A cutoff of  1.0D-12 yielded   1573 shell pairs
 There are     16202 function pairs
 Smallest overlap matrix eigenvalue = 1.28E-04
 Guess MOs from SCF MO coefficient file
 Reading MOs from coefficient file
 Reading MOs from coefficient file

 -----------------------------------------------------------------------
  General SCF calculation program by
  Eric Jon Sundstrom, Paul Horn, Yuezhi Mao, Dmitri Zuev, Alec White,
  David Stuck, Shaama M.S., Shane Yost, Joonho Lee, David Small,
  Daniel Levine, Susi Lehtola, Hugh Burton, Evgeny Epifanovsky
 -----------------------------------------------------------------------
 Exchange:     0.2220 Hartree-Fock + 1.0000 wB97X-D + LR-HF
 Correlation:  1.0000 wB97X-D
 Using SG-3 standard quadrature grid
 Dispersion:   Grimme D
 using 32 threads for integral computing
 -------------------------------------------------------
 OpenMP Integral computing Module                
 Release: version 1.0, May 2013, Q-Chem Inc. Pittsburgh 
 -------------------------------------------------------
 using 32 threads for integral computing
 -------------------------------------------------------
 OpenMP Integral computing Module                
 Release: version 1.0, May 2013, Q-Chem Inc. Pittsburgh 
 -------------------------------------------------------
 -------------------------------------------------------
 OpenMP BLAS3 based DFT computing Module                
 Release: version 1.0, May 2013, Q-Chem Inc. Pittsburgh 
 -------------------------------------------------------
 A restricted SCF calculation will be
 performed using DIIS, GDM
 SCF converges when RMS gradient is below 1.0e-08
 ---------------------------------------
  Cycle       Energy         DIIS error
 ---------------------------------------
    1    -784.9396229333      6.74e-04  
    2    -784.9326811581      8.66e-05  Done DIIS. Switching to GDM
 ---------------------------------------
  Cycle       Energy        RMS Gradient
 ---------------------------------------
    1    -784.9326811581      1.04e-03   Normal BFGS step
    2    -784.9327167937      9.40e-04   Normal BFGS step
    3    -784.9327226380      3.53e-04   Normal BFGS step
    4    -784.9327248247      7.75e-05   Normal BFGS step
    5    -784.9327249134      4.50e-05   Normal BFGS step
    6    -784.9327249557      1.03e-05   Normal BFGS step
    7    -784.9327249596      4.03e-06   Normal BFGS step
    8    -784.9327249600      1.36e-06   Normal BFGS step
    9    -784.9327249601      5.56e-07   Normal BFGS step
   10    -784.9327249601      4.74e-07   Normal BFGS step
   11    -784.9327249601      1.24e-07   Normal BFGS step
   12    -784.9327249601      2.63e-08   Normal BFGS step
   13    -784.9327249601      7.10e-09  Convergence criterion met
 ---------------------------------------
 SCF time:   CPU 525.04s  wall 21.00s 
(0)  E-EN(g) gas-phase elect-nuc energy                    0.000000000 a.u.
(3)  G-ENP(liq) elect-nuc-pol free energy of system     -784.932724960 a.u.
(4)  G-CDS(liq) cavity-dispersion-solvent structure 
     free energy                                               -0.4018 kcal/mol
(6)  G-S(liq) free energy of system                     -784.933365207 a.u.
(9)  DeltaG-S(liq) free energy of  solvation
     (9) = (6) - (0)                                      -492553.1208 kcal/mol
 SCF   energy in the final basis set =     -784.9327249601
 Total energy in the final basis set =     -784.9333652067
 
 --------------------------------------------------------------
 
                    Orbital Energies (a.u.)
 --------------------------------------------------------------
 
 Alpha MOs
 -- Occupied --
-89.382 -19.390 -19.390 -19.346 -19.346 -10.398 -10.398  -8.366
 -6.318  -6.317  -6.316  -2.162  -1.354  -1.227  -1.208  -1.177
 -0.929  -0.813  -0.780  -0.680  -0.671  -0.638  -0.623  -0.594
 -0.570  -0.540  -0.524  -0.511  -0.491  -0.488  -0.486  -0.441
 -0.430
 -- Virtual --
  0.008   0.017   0.017   0.019   0.042   0.062   0.065   0.069
  0.070   0.086   0.090   0.090   0.093   0.114   0.120   0.133
  0.135   0.136   0.140   0.149   0.171   0.176   0.179   0.193
  0.202   0.204   0.212   0.216   0.216   0.221   0.239   0.250
  0.267   0.272   0.276   0.278   0.293   0.306   0.322   0.343
  0.346   0.350   0.355   0.364   0.384   0.393   0.404   0.407
  0.415   0.421   0.428   0.446   0.472   0.503   0.568   0.579
  0.609   0.643   0.665   0.674   0.686   0.728   0.744   0.766
  0.771   0.786   0.826   0.851   0.867   0.906   1.017   1.018
  1.065   1.101   1.118   1.135   1.145   1.178   1.178   1.242
  1.244   1.251   1.307   1.322   1.329   1.378   1.380   1.406
  1.410   1.425   1.448   1.488   1.491   1.531   1.586   1.656
  1.657   1.671   1.700   1.757   1.795   1.837   1.849   1.862
  1.907   1.915   1.956   1.976   1.987   1.996   2.022   2.065
  2.103   2.114   2.177   2.193   2.213   2.268   2.281   2.362
  2.396   2.403   2.527   2.605   2.642   2.654   2.668   2.724
  2.755   2.813   2.838   2.916   2.938   2.971   2.972   3.113
  3.392   3.403   3.558   3.591   4.064   4.211   4.296   4.311
  4.376   4.533   4.759
 --------------------------------------------------------------
 
          Ground-State Mulliken Net Atomic Charges

     Atom                 Charge (a.u.)
  ----------------------------------------
      1 Li                    0.760034
      2 C                    -0.151206
      3 O                    -0.532903
      4 C                    -0.151032
      5 S                     1.797226
      6 O                    -0.532903
      7 O                    -0.591772
      8 O                    -0.591700
      9 H                     0.257309
     10 H                     0.239782
     11 H                     0.239878
     12 H                     0.257286
  ----------------------------------------
  Sum of atomic charges =     1.000000

 -----------------------------------------------------------------
                    Cartesian Multipole Moments
 -----------------------------------------------------------------
    Charge (ESU x 10^10)
                 4.8032
    Dipole Moment (Debye)
         X       3.2492      Y       0.0015      Z      -0.0031
       Tot       3.2492
    Quadrupole Moments (Debye-Ang)
        XX       6.1875     XY       0.0063     YY     -46.4487
        XZ      -0.0122     YZ       0.4476     ZZ     -50.3008
    Octopole Moments (Debye-Ang^2)
       XXX     107.7700    XXY       0.0168    XYY      -2.1476
       YYY       0.0238    XXZ      -0.0335    XYZ       2.8743
       YYZ      -0.0108    XZZ      -7.2462    YZZ       0.0058
       ZZZ      -0.0108
    Hexadecapole Moments (Debye-Ang^3)
      XXXX      -2.3659   XXXY       0.0678   XXYY     -98.3330
      XYYY      -0.0074   YYYY    -188.8567   XXXZ      -0.1492
      XXYZ       8.4689   XYYZ       0.0086   YYYZ       0.1884
      XXZZ    -110.0528   XYZZ      -0.0016   YYZZ     -55.5191
      XZZZ      -0.0130   YZZZ       1.0221   ZZZZ    -161.0804
 -----------------------------------------------------------------
 Calculating analytic gradient of the SCF energy
 Gradient of CDS energy
            1           2           3           4           5           6
    1   0.0000618  -0.0004421   0.0001872  -0.0004420  -0.0000070   0.0001872
    2   0.0000000   0.0010683  -0.0001547  -0.0010683   0.0000000   0.0001547
    3  -0.0000000  -0.0000724  -0.0000838   0.0000725  -0.0000001   0.0000838
            7           8           9          10          11          12
    1  -0.0001330  -0.0001330   0.0001889   0.0001716   0.0001714   0.0001889
    2  -0.0000241   0.0000241  -0.0000932  -0.0001158   0.0001158   0.0000932
    3   0.0000931  -0.0000931   0.0000270   0.0000677  -0.0000677  -0.0000270
 Gradient of SCF Energy
            1           2           3           4           5           6
    1   0.0048564   0.0408619  -0.0186985   0.0409047  -0.0074951  -0.0185750
    2   0.0000003  -0.0270281   0.0234711   0.0265768  -0.0000218  -0.0234343
    3  -0.0000022   0.0128588   0.0082343  -0.0124046  -0.0000418  -0.0083282
            7           8           9          10          11          12
    1   0.0199646   0.0199774  -0.0315014  -0.0093300  -0.0094656  -0.0314994
    2   0.0152294  -0.0152189   0.0135393   0.0033651  -0.0029030  -0.0135758
    3  -0.0426608   0.0426840   0.0314042  -0.0346711   0.0343082  -0.0313809
 Max gradient component =       4.268E-02
 RMS gradient           =       2.292E-02
 Computing VTN gradient.
 Updating gradient with PCM contributions...
 -- total gradient after adding PCM contribution --
---------------------------------------------------
  Atom         X              Y              Z     
---------------------------------------------------
   1      -0.000889       0.000027      -0.000046
   2      -0.003251       0.001672      -0.006430
   3       0.006246      -0.000363       0.002115
   4      -0.003272      -0.001999       0.006886
   5      -0.002783      -0.000011      -0.000045
   6       0.006327       0.000397      -0.002180
   7       0.000091       0.000759      -0.001272
   8       0.000119      -0.000785       0.001341
   9      -0.000071      -0.002030      -0.000018
  10      -0.001201      -0.007695       0.007219
  11      -0.001238       0.008005      -0.007609
  12      -0.000079       0.002022       0.000039
---------------------------------------------------
 Number of fixed atoms: 0
 Gradient time:  CPU 76.12 s  wall 3.40 s
 Geometry Optimization Parameters
   NAtoms,    NIC,     NZ,  NCons,   NDum,   NFix, NCnnct, MaxDiis
       12     104       0       0       0       0       0       0

 Cartesian Hessian Update
 Hessian Updated using BFGS Update


** GEOMETRY OPTIMIZATION IN DELOCALIZED INTERNAL COORDINATES **
   Searching for a Minimum

   Optimization Cycle:   3

                       Coordinates (Angstroms)
     ATOM                X               Y               Z
      1  Li        3.1186458943    0.0003741992   -0.0007828717
      2  C        -1.8558274214    0.7534422166   -0.0119833656
      3  O        -0.4948604348    1.1081894527    0.4453996562
      4  C        -1.8558916973   -0.7538487676    0.0117187225
      5  S         0.5280227315   -0.0001579742    0.0001833843
      6  O        -0.4946102133   -1.1089102700   -0.4445945582
      7  O         1.3523033118    0.4003515744   -1.1377850507
      8  O         1.3529181600   -0.4003185557    1.1378145342
      9  H        -2.5462246843    1.1774531379    0.7104975519
     10  H        -2.0093064877    1.1320431765   -1.0077429918
     11  H        -2.0107860533   -1.1302622843    1.0074249947
     12  H        -2.5459555667   -1.1782496438   -0.7108208947
   Point Group: c1    Number of degrees of freedom:    30


   Energy is   -784.933365207

 Hessian Updated using BFGS Update

 30 Hessian modes will be used to form the next step
  Hessian Eigenvalues:
     0.009501    0.018264    0.026639    0.044420    0.045829    0.051421
     0.054482    0.056547    0.063378    0.070510    0.105577    0.106404
     0.110752    0.119644    0.125448    0.135262    0.146530    0.194690
     0.219855    0.299952    0.346615    0.349972    0.350327    0.350694
     0.393808    0.508998    0.540602    0.632355    0.802287    0.845927

 Minimum Search - Taking Simple RFO Step
 Searching for Lamda that Minimizes Along All modes
 Value Taken    Lamda =  -0.00123882
 Step Taken.  Stepsize is  0.078585

                             Maximum     Tolerance    Cnvgd?
         Gradient           0.011984      0.000300      NO
         Displacement       0.047182      0.001200      NO
         Energy change      0.000860      0.000001      NO


 New Cartesian Coordinates Obtained by Inverse Iteration

 Displacement from previous Coordinates is:  0.101000
 ----------------------------------------------------------------
             Standard Nuclear Orientation (Angstroms)
    I     Atom           X                Y                Z
 ----------------------------------------------------------------
    1      Li      3.1076786465     0.0001345835    -0.0005167419
    2      C      -1.8558620250     0.7583996424    -0.0121750771
    3      O      -0.5017215374     1.1089116005     0.4416397105
    4      C      -1.8558881963    -0.7585397340     0.0119382915
    5      S       0.5254355602    -0.0000631158     0.0000960115
    6      O      -0.5016025186    -1.1092393395    -0.4412438021
    7      O       1.3523549250     0.3933310179    -1.1375577878
    8      O       1.3525946871    -0.3933010653     1.1375967012
    9      H      -2.5423227554     1.1946238388     0.7086275841
   10      H      -1.9997204509     1.1602126554    -1.0097947817
   11      H      -2.0003732174    -1.1593631188     1.0096174786
   12      H      -2.5421455792    -1.1950007034    -0.7088984756
 ----------------------------------------------------------------
 Nuclear Repulsion Energy =   484.5661749925 hartrees
 There are       33 alpha and       33 beta electrons
 Discretize the solute cavity surface with Lebedev spheres
	Using 302 Lebedev grid points for each H atom
	Using 302 Lebedev grid points for other atoms
	Atomic van der Waals radii will be scaled by 1.20
 Removing interior tesserae...
 Keep 1145 surface tesserae and discard 2479 interior tesserae
 Molecular Surface Area = 163.678 Angst**2
 Nucleus-field energy     =     0.0000000004 hartrees
 Requested basis set is 6-31++G(d,p)
 There are 57 shells and 180 basis functions
 A cutoff of  1.0D-12 yielded   1573 shell pairs
 There are     16202 function pairs
 Smallest overlap matrix eigenvalue = 1.31E-04
 Guess MOs from SCF MO coefficient file
 Reading MOs from coefficient file
 Reading MOs from coefficient file

 -----------------------------------------------------------------------
  General SCF calculation program by
  Eric Jon Sundstrom, Paul Horn, Yuezhi Mao, Dmitri Zuev, Alec White,
  David Stuck, Shaama M.S., Shane Yost, Joonho Lee, David Small,
  Daniel Levine, Susi Lehtola, Hugh Burton, Evgeny Epifanovsky
 -----------------------------------------------------------------------
 Exchange:     0.2220 Hartree-Fock + 1.0000 wB97X-D + LR-HF
 Correlation:  1.0000 wB97X-D
 Using SG-3 standard quadrature grid
 Dispersion:   Grimme D
 using 32 threads for integral computing
 -------------------------------------------------------
 OpenMP Integral computing Module                
 Release: version 1.0, May 2013, Q-Chem Inc. Pittsburgh 
 -------------------------------------------------------
 using 32 threads for integral computing
 -------------------------------------------------------
 OpenMP Integral computing Module                
 Release: version 1.0, May 2013, Q-Chem Inc. Pittsburgh 
 -------------------------------------------------------
 -------------------------------------------------------
 OpenMP BLAS3 based DFT computing Module                
 Release: version 1.0, May 2013, Q-Chem Inc. Pittsburgh 
 -------------------------------------------------------
 A restricted SCF calculation will be
 performed using DIIS, GDM
 SCF converges when RMS gradient is below 1.0e-08
 ---------------------------------------
  Cycle       Energy         DIIS error
 ---------------------------------------
    1    -784.9285439356      4.62e-04  
    2    -784.9335082710      5.62e-05  Done DIIS. Switching to GDM
 ---------------------------------------
  Cycle       Energy        RMS Gradient
 ---------------------------------------
    1    -784.9335082710      6.44e-04   Normal BFGS step
    2    -784.9335229147      6.23e-04   Normal BFGS step
    3    -784.9335256141      2.43e-04   Normal BFGS step
    4    -784.9335265415      6.06e-05   Normal BFGS step
    5    -784.9335265855      3.48e-05   Normal BFGS step
    6    -784.9335266029      7.99e-06   Normal BFGS step
    7    -784.9335266048      2.21e-06   Normal BFGS step
    8    -784.9335266050      6.73e-07   Normal BFGS step
    9    -784.9335266051      3.28e-07   Normal BFGS step
   10    -784.9335266051      3.09e-07   Normal BFGS step
   11    -784.9335266051      4.60e-08   Normal BFGS step
   12    -784.9335266051      1.62e-08   Normal BFGS step
   13    -784.9335266051      4.09e-09  Convergence criterion met
 ---------------------------------------
 SCF time:   CPU 523.65s  wall 20.00s 
(0)  E-EN(g) gas-phase elect-nuc energy                    0.000000000 a.u.
(3)  G-ENP(liq) elect-nuc-pol free energy of system     -784.933526605 a.u.
(4)  G-CDS(liq) cavity-dispersion-solvent structure 
     free energy                                               -0.4018 kcal/mol
(6)  G-S(liq) free energy of system                     -784.934166852 a.u.
(9)  DeltaG-S(liq) free energy of  solvation
     (9) = (6) - (0)                                      -492553.6238 kcal/mol
 SCF   energy in the final basis set =     -784.9335266051
 Total energy in the final basis set =     -784.9341668517
 
 --------------------------------------------------------------
 
                    Orbital Energies (a.u.)
 --------------------------------------------------------------
 
 Alpha MOs
 -- Occupied --
-89.383 -19.390 -19.390 -19.346 -19.346 -10.399 -10.399  -8.367
 -6.319  -6.317  -6.316  -2.162  -1.355  -1.229  -1.209  -1.178
 -0.927  -0.815  -0.780  -0.679  -0.672  -0.638  -0.623  -0.594
 -0.572  -0.541  -0.524  -0.511  -0.490  -0.487  -0.486  -0.442
 -0.429
 -- Virtual --
  0.008   0.017   0.017   0.019   0.042   0.062   0.066   0.068
  0.070   0.085   0.089   0.090   0.093   0.115   0.121   0.133
  0.135   0.135   0.140   0.148   0.172   0.176   0.179   0.195
  0.203   0.204   0.212   0.216   0.216   0.221   0.239   0.250
  0.267   0.272   0.277   0.278   0.293   0.307   0.320   0.344
  0.346   0.351   0.354   0.364   0.384   0.392   0.404   0.406
  0.415   0.422   0.428   0.446   0.471   0.501   0.568   0.579
  0.609   0.643   0.665   0.675   0.688   0.733   0.744   0.768
  0.772   0.788   0.829   0.850   0.866   0.907   1.015   1.018
  1.064   1.103   1.115   1.141   1.143   1.176   1.181   1.240
  1.246   1.251   1.306   1.321   1.330   1.377   1.379   1.405
  1.409   1.426   1.447   1.490   1.492   1.524   1.586   1.646
  1.655   1.667   1.702   1.756   1.796   1.837   1.848   1.862
  1.907   1.914   1.958   1.981   1.994   1.998   2.033   2.062
  2.110   2.113   2.177   2.193   2.212   2.266   2.280   2.350
  2.397   2.408   2.513   2.602   2.642   2.648   2.667   2.737
  2.755   2.810   2.835   2.915   2.936   2.947   2.971   3.114
  3.378   3.397   3.538   3.592   4.063   4.211   4.295   4.310
  4.375   4.530   4.756
 --------------------------------------------------------------
 
          Ground-State Mulliken Net Atomic Charges

     Atom                 Charge (a.u.)
  ----------------------------------------
      1 Li                    0.756779
      2 C                    -0.152742
      3 O                    -0.531867
      4 C                    -0.152656
      5 S                     1.803308
      6 O                    -0.531870
      7 O                    -0.589937
      8 O                    -0.589930
      9 H                     0.255450
     10 H                     0.238992
     11 H                     0.239033
     12 H                     0.255439
  ----------------------------------------
  Sum of atomic charges =     1.000000

 -----------------------------------------------------------------
                    Cartesian Multipole Moments
 -----------------------------------------------------------------
    Charge (ESU x 10^10)
                 4.8032
    Dipole Moment (Debye)
         X       3.2763      Y       0.0007      Z      -0.0024
       Tot       3.2763
    Quadrupole Moments (Debye-Ang)
        XX       5.6201     XY       0.0021     YY     -46.2103
        XZ      -0.0074     YZ       0.3725     ZZ     -50.3250
    Octopole Moments (Debye-Ang^2)
       XXX     107.4667    XXY       0.0063    XYY      -2.3644
       YYY       0.0101    XXZ      -0.0236    XYZ       2.8797
       YYZ      -0.0051    XZZ      -6.9480    YZZ       0.0022
       ZZZ      -0.0047
    Hexadecapole Moments (Debye-Ang^3)
      XXXX     -10.8099   XXXY       0.0242   XXYY     -97.5802
      XYYY      -0.0031   YYYY    -189.1445   XXXZ      -0.0911
      XXYZ       8.3178   XYYZ       0.0039   YYYZ      -0.0401
      XXZZ    -110.3964   XYZZ       0.0001   YYZZ     -55.3921
      XZZZ      -0.0085   YZZZ       0.8822   ZZZZ    -160.9580
 -----------------------------------------------------------------
 Calculating analytic gradient of the SCF energy
 Gradient of CDS energy
            1           2           3           4           5           6
    1   0.0000618  -0.0004421   0.0001872  -0.0004420  -0.0000070   0.0001872
    2   0.0000000   0.0010683  -0.0001547  -0.0010683   0.0000000   0.0001547
    3  -0.0000000  -0.0000724  -0.0000838   0.0000725  -0.0000001   0.0000838
            7           8           9          10          11          12
    1  -0.0001330  -0.0001330   0.0001889   0.0001716   0.0001714   0.0001889
    2  -0.0000241   0.0000241  -0.0000932  -0.0001158   0.0001158   0.0000932
    3   0.0000931  -0.0000931   0.0000270   0.0000677  -0.0000677  -0.0000270
 Gradient of SCF Energy
            1           2           3           4           5           6
    1   0.0039986   0.0438044  -0.0255484   0.0438252  -0.0050886  -0.0255141
    2  -0.0000007  -0.0281616   0.0240374   0.0279811  -0.0000105  -0.0240261
    3  -0.0000016   0.0167635   0.0059243  -0.0166231  -0.0000086  -0.0059485
            7           8           9          10          11          12
    1   0.0207053   0.0206979  -0.0308612  -0.0075563  -0.0076091  -0.0308539
    2   0.0144024  -0.0143917   0.0164306   0.0106829  -0.0104916  -0.0164522
    3  -0.0415780   0.0415777   0.0310798  -0.0388044   0.0386909  -0.0310720
 Max gradient component =       4.383E-02
 RMS gradient           =       2.415E-02
 Computing VTN gradient.
 Updating gradient with PCM contributions...
 -- total gradient after adding PCM contribution --
---------------------------------------------------
  Atom         X              Y              Z     
---------------------------------------------------
   1      -0.001423      -0.000000       0.000000
   2      -0.000042       0.002093      -0.002189
   3       0.000658      -0.000002       0.000422
   4      -0.000043      -0.002222       0.002335
   5      -0.000378      -0.000007      -0.000008
   6       0.000676       0.000013      -0.000437
   7       0.000514       0.000210      -0.000115
   8       0.000500      -0.000203       0.000110
   9       0.000078      -0.000339       0.000199
  10      -0.000302      -0.002465       0.002430
  11      -0.000315       0.002589      -0.002558
  12       0.000077       0.000334      -0.000190
---------------------------------------------------
 Number of fixed atoms: 0
 Gradient time:  CPU 76.32 s  wall 3.66 s
 Geometry Optimization Parameters
   NAtoms,    NIC,     NZ,  NCons,   NDum,   NFix, NCnnct, MaxDiis
       12     104       0       0       0       0       0       0

 Cartesian Hessian Update
 Hessian Updated using BFGS Update


** GEOMETRY OPTIMIZATION IN DELOCALIZED INTERNAL COORDINATES **
   Searching for a Minimum

   Optimization Cycle:   4

                       Coordinates (Angstroms)
     ATOM                X               Y               Z
      1  Li        3.1076786465    0.0001345835   -0.0005167419
      2  C        -1.8558620250    0.7583996424   -0.0121750771
      3  O        -0.5017215374    1.1089116005    0.4416397105
      4  C        -1.8558881963   -0.7585397340    0.0119382915
      5  S         0.5254355602   -0.0000631158    0.0000960115
      6  O        -0.5016025186   -1.1092393395   -0.4412438021
      7  O         1.3523549250    0.3933310179   -1.1375577878
      8  O         1.3525946871   -0.3933010653    1.1375967012
      9  H        -2.5423227554    1.1946238388    0.7086275841
     10  H        -1.9997204509    1.1602126554   -1.0097947817
     11  H        -2.0003732174   -1.1593631188    1.0096174786
     12  H        -2.5421455792   -1.1950007034   -0.7088984756
   Point Group: c1    Number of degrees of freedom:    30


   Energy is   -784.934166852

 Hessian Updated using BFGS Update

 30 Hessian modes will be used to form the next step
  Hessian Eigenvalues:
     0.009498    0.018265    0.026639    0.044420    0.046097    0.052500
     0.054484    0.056548    0.064297    0.070205    0.105574    0.106364
     0.110751    0.119638    0.123177    0.125449    0.146352    0.190159
     0.219855    0.300193    0.344068    0.346619    0.350326    0.350689
     0.351034    0.500994    0.540602    0.618742    0.802273    0.845929

 Minimum Search - Taking Simple RFO Step
 Searching for Lamda that Minimizes Along All modes
 Value Taken    Lamda =  -0.00011637
 Step Taken.  Stepsize is  0.025754

                             Maximum     Tolerance    Cnvgd?
         Gradient           0.003424      0.000300      NO
         Displacement       0.014732      0.001200      NO
         Energy change     -0.000802      0.000001      NO


 New Cartesian Coordinates Obtained by Inverse Iteration

 Displacement from previous Coordinates is:  0.031071
 ----------------------------------------------------------------
             Standard Nuclear Orientation (Angstroms)
    I     Atom           X                Y                Z
 ----------------------------------------------------------------
    1      Li      3.1100436473     0.0002291626    -0.0006982989
    2      C      -1.8568128744     0.7591863254    -0.0123016331
    3      O      -0.5036488099     1.1088169906     0.4405645004
    4      C      -1.8569019582    -0.7592511232     0.0121148384
    5      S       0.5248682031    -0.0000775627     0.0002075520
    6      O      -0.5035626257    -1.1091611611    -0.4399244111
    7      O       1.3519339334     0.3907734228    -1.1379825288
    8      O       1.3524334372    -0.3907749881     1.1380745112
    9      H      -2.5428673804     1.1988235462     0.7072806274
   10      H      -1.9967832365     1.1695810366    -1.0105793577
   11      H      -1.9976512347    -1.1691666585     1.0103778139
   12      H      -2.5426235625    -1.1988727288    -0.7078045027
 ----------------------------------------------------------------
 Nuclear Repulsion Energy =   484.4759287267 hartrees
 There are       33 alpha and       33 beta electrons
 Discretize the solute cavity surface with Lebedev spheres
	Using 302 Lebedev grid points for each H atom
	Using 302 Lebedev grid points for other atoms
	Atomic van der Waals radii will be scaled by 1.20
 Removing interior tesserae...
 Keep 1147 surface tesserae and discard 2477 interior tesserae
 Molecular Surface Area = 163.934 Angst**2
 Nucleus-field energy     =     0.0000000004 hartrees
 Requested basis set is 6-31++G(d,p)
 There are 57 shells and 180 basis functions
 A cutoff of  1.0D-12 yielded   1573 shell pairs
 There are     16202 function pairs
 Smallest overlap matrix eigenvalue = 1.32E-04
 Guess MOs from SCF MO coefficient file
 Reading MOs from coefficient file
 Reading MOs from coefficient file

 -----------------------------------------------------------------------
  General SCF calculation program by
  Eric Jon Sundstrom, Paul Horn, Yuezhi Mao, Dmitri Zuev, Alec White,
  David Stuck, Shaama M.S., Shane Yost, Joonho Lee, David Small,
  Daniel Levine, Susi Lehtola, Hugh Burton, Evgeny Epifanovsky
 -----------------------------------------------------------------------
 Exchange:     0.2220 Hartree-Fock + 1.0000 wB97X-D + LR-HF
 Correlation:  1.0000 wB97X-D
 Using SG-3 standard quadrature grid
 Dispersion:   Grimme D
 using 32 threads for integral computing
 -------------------------------------------------------
 OpenMP Integral computing Module                
 Release: version 1.0, May 2013, Q-Chem Inc. Pittsburgh 
 -------------------------------------------------------
 using 32 threads for integral computing
 -------------------------------------------------------
 OpenMP Integral computing Module                
 Release: version 1.0, May 2013, Q-Chem Inc. Pittsburgh 
 -------------------------------------------------------
 -------------------------------------------------------
 OpenMP BLAS3 based DFT computing Module                
 Release: version 1.0, May 2013, Q-Chem Inc. Pittsburgh 
 -------------------------------------------------------
 A restricted SCF calculation will be
 performed using DIIS, GDM
 SCF converges when RMS gradient is below 1.0e-08
 ---------------------------------------
  Cycle       Energy         DIIS error
 ---------------------------------------
    1    -784.9305389734      1.25e-04  
    2    -784.9336418395      1.73e-05  Done DIIS. Switching to GDM
 ---------------------------------------
  Cycle       Energy        RMS Gradient
 ---------------------------------------
    1    -784.9336418395      2.49e-04   Normal BFGS step
    2    -784.9336428452      3.06e-04   Normal BFGS step
    3    -784.9336435482      4.46e-05   Normal BFGS step
    4    -784.9336436085      1.03e-05   Normal BFGS step
    5    -784.9336436136      3.70e-06   Normal BFGS step
    6    -784.9336436140      2.16e-06   Normal BFGS step
    7    -784.9336436141      1.12e-06   Normal BFGS step
    8    -784.9336436141      4.53e-07   Normal BFGS step
    9    -784.9336436141      1.94e-07   Normal BFGS step
   10    -784.9336436141      7.72e-08   Normal BFGS step
   11    -784.9336436141      1.30e-08   Normal BFGS step
   12    -784.9336436141      7.59e-09  Convergence criterion met
 ---------------------------------------
 SCF time:   CPU 487.19s  wall 19.00s 
(0)  E-EN(g) gas-phase elect-nuc energy                    0.000000000 a.u.
(3)  G-ENP(liq) elect-nuc-pol free energy of system     -784.933643614 a.u.
(4)  G-CDS(liq) cavity-dispersion-solvent structure 
     free energy                                               -0.4018 kcal/mol
(6)  G-S(liq) free energy of system                     -784.934283861 a.u.
(9)  DeltaG-S(liq) free energy of  solvation
     (9) = (6) - (0)                                      -492553.6972 kcal/mol
 SCF   energy in the final basis set =     -784.9336436141
 Total energy in the final basis set =     -784.9342838608
 
 --------------------------------------------------------------
 
                    Orbital Energies (a.u.)
 --------------------------------------------------------------
 
 Alpha MOs
 -- Occupied --
-89.383 -19.390 -19.390 -19.346 -19.346 -10.399 -10.399  -8.367
 -6.319  -6.317  -6.316  -2.162  -1.355  -1.229  -1.209  -1.178
 -0.927  -0.815  -0.779  -0.678  -0.672  -0.638  -0.623  -0.593
 -0.572  -0.541  -0.524  -0.511  -0.490  -0.487  -0.486  -0.441
 -0.429
 -- Virtual --
  0.008   0.017   0.017   0.019   0.042   0.062   0.066   0.068
  0.070   0.085   0.089   0.090   0.093   0.115   0.121   0.133
  0.135   0.135   0.140   0.148   0.172   0.175   0.179   0.195
  0.203   0.204   0.212   0.216   0.216   0.221   0.239   0.249
  0.267   0.272   0.277   0.278   0.292   0.307   0.319   0.344
  0.346   0.351   0.354   0.364   0.384   0.392   0.404   0.405
  0.415   0.422   0.428   0.445   0.471   0.500   0.568   0.580
  0.609   0.643   0.666   0.675   0.688   0.734   0.744   0.768
  0.771   0.787   0.829   0.850   0.865   0.907   1.014   1.018
  1.063   1.104   1.114   1.140   1.142   1.176   1.181   1.239
  1.246   1.251   1.306   1.321   1.330   1.377   1.379   1.405
  1.409   1.426   1.447   1.491   1.492   1.522   1.586   1.643
  1.655   1.667   1.701   1.756   1.796   1.837   1.847   1.862
  1.907   1.913   1.958   1.982   1.996   1.998   2.035   2.061
  2.108   2.111   2.176   2.193   2.212   2.266   2.280   2.345
  2.397   2.410   2.509   2.602   2.641   2.647   2.666   2.741
  2.755   2.807   2.834   2.915   2.935   2.939   2.971   3.115
  3.374   3.395   3.531   3.592   4.063   4.211   4.295   4.309
  4.376   4.529   4.755
 --------------------------------------------------------------
 
          Ground-State Mulliken Net Atomic Charges

     Atom                 Charge (a.u.)
  ----------------------------------------
      1 Li                    0.758106
      2 C                    -0.152489
      3 O                    -0.532129
      4 C                    -0.152408
      5 S                     1.803772
      6 O                    -0.532186
      7 O                    -0.589906
      8 O                    -0.589840
      9 H                     0.254769
     10 H                     0.238759
     11 H                     0.238790
     12 H                     0.254762
  ----------------------------------------
  Sum of atomic charges =     1.000000

 -----------------------------------------------------------------
                    Cartesian Multipole Moments
 -----------------------------------------------------------------
    Charge (ESU x 10^10)
                 4.8032
    Dipole Moment (Debye)
         X       3.3086      Y       0.0012      Z      -0.0029
       Tot       3.3086
    Quadrupole Moments (Debye-Ang)
        XX       5.6523     XY       0.0030     YY     -46.1516
        XZ      -0.0099     YZ       0.3414     ZZ     -50.3477
    Octopole Moments (Debye-Ang^2)
       XXX     108.1042    XXY       0.0131    XYY      -2.4136
       YYY       0.0111    XXZ      -0.0361    XYZ       2.8916
       YYZ      -0.0066    XZZ      -6.8550    YZZ       0.0014
       ZZZ      -0.0140
    Hexadecapole Moments (Debye-Ang^3)
      XXXX     -10.1601   XXXY       0.0332   XXYY     -97.3980
      XYYY      -0.0034   YYYY    -189.1726   XXXZ      -0.1238
      XXYZ       8.2616   XYYZ      -0.0014   YYYZ      -0.1272
      XXZZ    -110.5902   XYZZ       0.0027   YYZZ     -55.3616
      XZZZ      -0.0126   YZZZ       0.8425   ZZZZ    -161.0430
 -----------------------------------------------------------------
 Calculating analytic gradient of the SCF energy
 Gradient of CDS energy
            1           2           3           4           5           6
    1   0.0000618  -0.0004421   0.0001872  -0.0004420  -0.0000070   0.0001872
    2   0.0000000   0.0010683  -0.0001547  -0.0010683   0.0000000   0.0001547
    3  -0.0000000  -0.0000724  -0.0000838   0.0000725  -0.0000001   0.0000838
            7           8           9          10          11          12
    1  -0.0001330  -0.0001330   0.0001889   0.0001716   0.0001714   0.0001889
    2  -0.0000241   0.0000241  -0.0000932  -0.0001158   0.0001158   0.0000932
    3   0.0000931  -0.0000931   0.0000270   0.0000677  -0.0000677  -0.0000270
 Gradient of SCF Energy
            1           2           3           4           5           6
    1   0.0041988   0.0441334  -0.0270037   0.0441857  -0.0044142  -0.0269892
    2  -0.0000001  -0.0295035   0.0240914   0.0294166  -0.0000065  -0.0240836
    3  -0.0000004   0.0182150   0.0051301  -0.0181436   0.0000148  -0.0051666
            7           8           9          10          11          12
    1   0.0207286   0.0207689  -0.0308377  -0.0069514  -0.0069993  -0.0308199
    2   0.0141212  -0.0141221   0.0171798   0.0132779  -0.0131912  -0.0171800
    3  -0.0413870   0.0413881   0.0307525  -0.0402929   0.0402575  -0.0307675
 Max gradient component =       4.419E-02
 RMS gradient           =       2.459E-02
 Computing VTN gradient.
 Updating gradient with PCM contributions...
 -- total gradient after adding PCM contribution --
---------------------------------------------------
  Atom         X              Y              Z     
---------------------------------------------------
   1      -0.001274      -0.000000       0.000002
   2       0.000107      -0.000347       0.000481
   3      -0.000516      -0.000013      -0.000171
   4       0.000030       0.000787      -0.000851
   5       0.000357       0.000001       0.000002
   6      -0.000514       0.000019       0.000146
   7       0.000508       0.000047       0.000095
   8       0.000526      -0.000052      -0.000090
   9       0.000007       0.000075       0.000140
  10       0.000337       0.001052      -0.000443
  11       0.000428      -0.001492       0.000832
  12       0.000005      -0.000077      -0.000143
---------------------------------------------------
 Number of fixed atoms: 0
 Gradient time:  CPU 76.34 s  wall 3.37 s
 Geometry Optimization Parameters
   NAtoms,    NIC,     NZ,  NCons,   NDum,   NFix, NCnnct, MaxDiis
       12     104       0       0       0       0       0       0

 Cartesian Hessian Update
 Hessian Updated using BFGS Update


** GEOMETRY OPTIMIZATION IN DELOCALIZED INTERNAL COORDINATES **
   Searching for a Minimum

   Optimization Cycle:   5

                       Coordinates (Angstroms)
     ATOM                X               Y               Z
      1  Li        3.1100436473    0.0002291626   -0.0006982989
      2  C        -1.8568128744    0.7591863254   -0.0123016331
      3  O        -0.5036488099    1.1088169906    0.4405645004
      4  C        -1.8569019582   -0.7592511232    0.0121148384
      5  S         0.5248682031   -0.0000775627    0.0002075520
      6  O        -0.5035626257   -1.1091611611   -0.4399244111
      7  O         1.3519339334    0.3907734228   -1.1379825288
      8  O         1.3524334372   -0.3907749881    1.1380745112
      9  H        -2.5428673804    1.1988235462    0.7072806274
     10  H        -1.9967832365    1.1695810366   -1.0105793577
     11  H        -1.9976512347   -1.1691666585    1.0103778139
     12  H        -2.5426235625   -1.1988727288   -0.7078045027
   Point Group: c1    Number of degrees of freedom:    30


   Energy is   -784.934283861

 Hessian Updated using BFGS Update

 30 Hessian modes will be used to form the next step
  Hessian Eigenvalues:
     0.009514    0.018255    0.026639    0.044408    0.045766    0.049237
     0.054495    0.056548    0.063548    0.070826    0.105581    0.105724
     0.110630    0.119380    0.125448    0.144154    0.150590    0.193503
     0.219870    0.300126    0.345455    0.350257    0.350327    0.350690
     0.424245    0.503703    0.540602    0.626585    0.803264    0.845933

 Minimum Search - Taking Simple RFO Step
 Searching for Lamda that Minimizes Along All modes
 Value Taken    Lamda =  -0.00002902
 Step Taken.  Stepsize is  0.016395

                             Maximum     Tolerance    Cnvgd?
         Gradient           0.001442      0.000300      NO
         Displacement       0.012611      0.001200      NO
         Energy change     -0.000117      0.000001      NO


 New Cartesian Coordinates Obtained by Inverse Iteration

 Displacement from previous Coordinates is:  0.014221
 ----------------------------------------------------------------
             Standard Nuclear Orientation (Angstroms)
    I     Atom           X                Y                Z
 ----------------------------------------------------------------
    1      Li      3.1144539206     0.0006389540    -0.0012192411
    2      C      -1.8570444364     0.7585976851    -0.0122774698
    3      O      -0.5032573835     1.1083844172     0.4414347736
    4      C      -1.8572334829    -0.7591110527     0.0119832883
    5      S       0.5250249284    -0.0002171445     0.0003578038
    6      O      -0.5029702725    -1.1094850457    -0.4398203598
    7      O       1.3513202018     0.3918753434    -1.1380056133
    8      O       1.3525584664    -0.3917806623     1.1379739705
    9      H      -2.5432691254     1.1972598317     0.7075958131
   10      H      -1.9979180129     1.1673487415    -1.0107352130
   11      H      -2.0004498347    -1.1654408404     1.0104453437
   12      H      -2.5427874303    -1.1979639655    -0.7084039849
 ----------------------------------------------------------------
 Nuclear Repulsion Energy =   484.4179079895 hartrees
 There are       33 alpha and       33 beta electrons
 Discretize the solute cavity surface with Lebedev spheres
	Using 302 Lebedev grid points for each H atom
	Using 302 Lebedev grid points for other atoms
	Atomic van der Waals radii will be scaled by 1.20
 Removing interior tesserae...
 Keep 1146 surface tesserae and discard 2478 interior tesserae
 Molecular Surface Area = 163.806 Angst**2
 Nucleus-field energy     =     0.0000000004 hartrees
 Requested basis set is 6-31++G(d,p)
 There are 57 shells and 180 basis functions
 A cutoff of  1.0D-12 yielded   1573 shell pairs
 There are     16202 function pairs
 Smallest overlap matrix eigenvalue = 1.32E-04
 Guess MOs from SCF MO coefficient file
 Reading MOs from coefficient file
 Reading MOs from coefficient file

 -----------------------------------------------------------------------
  General SCF calculation program by
  Eric Jon Sundstrom, Paul Horn, Yuezhi Mao, Dmitri Zuev, Alec White,
  David Stuck, Shaama M.S., Shane Yost, Joonho Lee, David Small,
  Daniel Levine, Susi Lehtola, Hugh Burton, Evgeny Epifanovsky
 -----------------------------------------------------------------------
 Exchange:     0.2220 Hartree-Fock + 1.0000 wB97X-D + LR-HF
 Correlation:  1.0000 wB97X-D
 Using SG-3 standard quadrature grid
 Dispersion:   Grimme D
 using 32 threads for integral computing
 -------------------------------------------------------
 OpenMP Integral computing Module                
 Release: version 1.0, May 2013, Q-Chem Inc. Pittsburgh 
 -------------------------------------------------------
 using 32 threads for integral computing
 -------------------------------------------------------
 OpenMP Integral computing Module                
 Release: version 1.0, May 2013, Q-Chem Inc. Pittsburgh 
 -------------------------------------------------------
 -------------------------------------------------------
 OpenMP BLAS3 based DFT computing Module                
 Release: version 1.0, May 2013, Q-Chem Inc. Pittsburgh 
 -------------------------------------------------------
 A restricted SCF calculation will be
 performed using DIIS, GDM
[...]
 ----------------------------------------------------------------
    1      Li      3.1328406343     0.0062113080    -0.0235813069
    2      C      -1.8562890322     0.7572801942    -0.0135717931
    3      O      -0.5079498569     1.1006251026     0.4606464363
    4      C      -1.8612232434    -0.7598338176     0.0116065433
    5      S       0.5233407854    -0.0018740656     0.0095052188
    6      O      -0.5036922022    -1.1155709281    -0.4250159658
    7      O       1.3370243822     0.3957457492    -1.1358196058
    8      O       1.3598976765    -0.3909682393     1.1403522198
    9      H      -2.5511289423     1.1993877848     0.6957232697
   10      H      -1.9790928090     1.1707046438    -1.0140495017
   11      H      -2.0138253903    -1.1633958442     1.0075897736
   12      H      -2.5414744633    -1.1982056261    -0.7140561772
 ----------------------------------------------------------------
 Nuclear Repulsion Energy =   484.2239100244 hartrees
 There are       33 alpha and       33 beta electrons
 Discretize the solute cavity surface with Lebedev spheres
	Using 302 Lebedev grid points for each H atom
	Using 302 Lebedev grid points for other atoms
	Atomic van der Waals radii will be scaled by 1.20
 Removing interior tesserae...
 Keep 1149 surface tesserae and discard 2475 interior tesserae
 Molecular Surface Area = 164.569 Angst**2
 Nucleus-field energy     =     0.0000000004 hartrees
 Requested basis set is 6-31++G(d,p)
 There are 57 shells and 180 basis functions
 A cutoff of  1.0D-12 yielded   1574 shell pairs
 There are     16206 function pairs
 Smallest overlap matrix eigenvalue = 1.31E-04
 Guess MOs from SCF MO coefficient file
 Reading MOs from coefficient file
 Reading MOs from coefficient file

 -----------------------------------------------------------------------
  General SCF calculation program by
  Eric Jon Sundstrom, Paul Horn, Yuezhi Mao, Dmitri Zuev, Alec White,
  David Stuck, Shaama M.S., Shane Yost, Joonho Lee, David Small,
  Daniel Levine, Susi Lehtola, Hugh Burton, Evgeny Epifanovsky
 -----------------------------------------------------------------------
 Exchange:     0.2220 Hartree-Fock + 1.0000 wB97X-D + LR-HF
 Correlation:  1.0000 wB97X-D
 Using SG-3 standard quadrature grid
 Dispersion:   Grimme D
 using 32 threads for integral computing
 -------------------------------------------------------
 OpenMP Integral computing Module                
 Release: version 1.0, May 2013, Q-Chem Inc. Pittsburgh 
 -------------------------------------------------------
 using 32 threads for integral computing
 -------------------------------------------------------
 OpenMP Integral computing Module                
 Release: version 1.0, May 2013, Q-Chem Inc. Pittsburgh 
 -------------------------------------------------------
 -------------------------------------------------------
 OpenMP BLAS3 based DFT computing Module                
 Release: version 1.0, May 2013, Q-Chem Inc. Pittsburgh 
 -------------------------------------------------------
 A restricted SCF calculation will be
 performed using DIIS, GDM
 SCF converges when RMS gradient is below 1.0e-08
 ---------------------------------------
  Cycle       Energy         DIIS error
 ---------------------------------------
    1    -784.9337168945      2.04e-05  
    2    -784.9336505369      1.95e-06  Done DIIS. Switching to GDM
 ---------------------------------------
  Cycle       Energy        RMS Gradient
 ---------------------------------------
    1    -784.9336505369      2.83e-05   Normal BFGS step
    2    -784.9336505642      9.23e-06   Normal BFGS step
    3    -784.9336505657      1.10e-05   Normal BFGS step
    4    -784.9336505672      1.10e-06   Normal BFGS step
    5    -784.9336505672      4.68e-07   Normal BFGS step
    6    -784.9336505672      1.48e-07   Normal BFGS step
    7    -784.9336505672      3.90e-08   Normal BFGS step
    8    -784.9336505672      2.81e-08   Normal BFGS step
    9    -784.9336505672      9.21e-09  Convergence criterion met
 ---------------------------------------
 SCF time:   CPU 381.32s  wall 15.00s 
(0)  E-EN(g) gas-phase elect-nuc energy                    0.000000000 a.u.
(3)  G-ENP(liq) elect-nuc-pol free energy of system     -784.933650567 a.u.
(4)  G-CDS(liq) cavity-dispersion-solvent structure 
     free energy                                               -0.4018 kcal/mol
(6)  G-S(liq) free energy of system                     -784.934290814 a.u.
(9)  DeltaG-S(liq) free energy of  solvation
     (9) = (6) - (0)                                      -492553.7016 kcal/mol
 SCF   energy in the final basis set =     -784.9336505672
 Total energy in the final basis set =     -784.9342908139
 
 --------------------------------------------------------------
 
                    Orbital Energies (a.u.)
 --------------------------------------------------------------
 
 Alpha MOs
 -- Occupied --
-89.382 -19.389 -19.389 -19.346 -19.346 -10.399 -10.399  -8.366
 -6.318  -6.317  -6.315  -2.163  -1.354  -1.228  -1.208  -1.177
 -0.927  -0.815  -0.779  -0.678  -0.671  -0.637  -0.623  -0.593
 -0.571  -0.540  -0.523  -0.510  -0.490  -0.487  -0.486  -0.440
 -0.428
 -- Virtual --
  0.008   0.017   0.017   0.019   0.042   0.062   0.066   0.068
  0.070   0.085   0.089   0.089   0.093   0.115   0.121   0.133
  0.135   0.135   0.140   0.149   0.171   0.175   0.179   0.195
  0.203   0.204   0.212   0.216   0.216   0.220   0.239   0.248
  0.266   0.272   0.277   0.277   0.293   0.306   0.320   0.342
  0.346   0.351   0.354   0.364   0.383   0.393   0.404   0.405
  0.415   0.422   0.427   0.444   0.471   0.501   0.568   0.581
  0.609   0.644   0.665   0.674   0.684   0.733   0.743   0.766
  0.769   0.782   0.829   0.849   0.865   0.902   1.015   1.017
  1.063   1.103   1.113   1.131   1.143   1.176   1.180   1.239
  1.247   1.250   1.307   1.321   1.331   1.378   1.381   1.405
  1.409   1.426   1.447   1.490   1.492   1.521   1.585   1.642
  1.655   1.667   1.694   1.756   1.797   1.839   1.847   1.862
  1.904   1.914   1.958   1.983   1.994   1.996   2.034   2.061
  2.090   2.109   2.176   2.194   2.213   2.267   2.279   2.346
  2.393   2.410   2.510   2.601   2.641   2.647   2.667   2.740
  2.756   2.809   2.835   2.916   2.935   2.941   2.972   3.116
  3.375   3.395   3.533   3.593   4.063   4.211   4.295   4.309
  4.377   4.529   4.756
 --------------------------------------------------------------
 
          Ground-State Mulliken Net Atomic Charges

     Atom                 Charge (a.u.)
  ----------------------------------------
      1 Li                    0.768476
      2 C                    -0.155209
      3 O                    -0.530947
      4 C                    -0.148123
      5 S                     1.796864
      6 O                    -0.534082
      7 O                    -0.592311
      8 O                    -0.591029
      9 H                     0.255335
     10 H                     0.238277
     11 H                     0.238138
     12 H                     0.254611
  ----------------------------------------
  Sum of atomic charges =     1.000000

 -----------------------------------------------------------------
                    Cartesian Multipole Moments
 -----------------------------------------------------------------
    Charge (ESU x 10^10)
                 4.8032
    Dipole Moment (Debye)
         X       3.4738      Y       0.0340      Z      -0.1220
       Tot       3.4761
    Quadrupole Moments (Debye-Ang)
        XX       6.4316     XY       0.0797     YY     -46.1886
        XZ      -0.3389     YZ       0.3444     ZZ     -50.3813
    Octopole Moments (Debye-Ang^2)
       XXX     111.6865    XXY       0.3504    XYY      -2.2851
       YYY       0.3389    XXZ      -1.4518    XYZ       2.9027
       YYZ      -0.3436    XZZ      -6.6856    YZZ       0.0074
       ZZZ      -0.9204
    Hexadecapole Moments (Debye-Ang^3)
      XXXX       3.5943   XXXY       0.7926   XXYY     -97.4325
      XYYY      -0.2146   YYYY    -189.1954   XXXZ      -4.2910
      XXYZ       8.2965   XYYZ      -0.0669   YYYZ      -0.0889
      XXZZ    -110.6207   XYZZ       0.0640   YYZZ     -55.4444
      XZZZ      -0.3592   YZZZ       0.8817   ZZZZ    -161.3161
 -----------------------------------------------------------------
 Calculating analytic gradient of the SCF energy
 Gradient of CDS energy
            1           2           3           4           5           6
    1   0.0000618  -0.0004421   0.0001872  -0.0004420  -0.0000070   0.0001872
    2   0.0000000   0.0010683  -0.0001547  -0.0010683   0.0000000   0.0001547
    3  -0.0000000  -0.0000724  -0.0000838   0.0000725  -0.0000001   0.0000838
            7           8           9          10          11          12
    1  -0.0001330  -0.0001330   0.0001889   0.0001716   0.0001714   0.0001889
    2  -0.0000241   0.0000241  -0.0000932  -0.0001158   0.0001158   0.0000932
    3   0.0000931  -0.0000931   0.0000270   0.0000677  -0.0000677  -0.0000270
 Gradient of SCF Energy
            1           2           3           4           5           6
    1   0.0060962   0.0429155  -0.0265081   0.0440121  -0.0054557  -0.0260924
    2  -0.0000476  -0.0307012   0.0238409   0.0283577  -0.0002249  -0.0239942
    3  -0.0000397   0.0195348   0.0051621  -0.0158478   0.0003403  -0.0054566
            7           8           9          10          11          12
    1   0.0195337   0.0205247  -0.0311010  -0.0061770  -0.0072952  -0.0304529
    2   0.0143852  -0.0139701   0.0171117   0.0138055  -0.0116235  -0.0169394
    3  -0.0415325   0.0412041   0.0300954  -0.0407980   0.0382316  -0.0308937
 Max gradient component =       4.401E-02
 RMS gradient           =       2.433E-02
 Computing VTN gradient.
 Updating gradient with PCM contributions...
 -- total gradient after adding PCM contribution --
---------------------------------------------------
  Atom         X              Y              Z     
---------------------------------------------------
   1      -0.000028       0.000064       0.000043
   2       0.000044       0.000091      -0.000012
   3       0.000006      -0.000038       0.000061
   4      -0.000060      -0.000105       0.000026
   5      -0.000027       0.000040      -0.000056
   6      -0.000068      -0.000008      -0.000011
   7      -0.000035       0.000097       0.000008
   8       0.000086      -0.000106      -0.000080
   9       0.000004      -0.000019       0.000082
  10      -0.000025      -0.000041       0.000164
  11       0.000114       0.000012      -0.000165
  12      -0.000010       0.000013      -0.000061
---------------------------------------------------
 Number of fixed atoms: 0
 Gradient time:  CPU 76.94 s  wall 3.39 s
 Geometry Optimization Parameters
   NAtoms,    NIC,     NZ,  NCons,   NDum,   NFix, NCnnct, MaxDiis
       12     104       0       0       0       0       0       0

 Cartesian Hessian Update
 Hessian Updated using BFGS Update


** GEOMETRY OPTIMIZATION IN DELOCALIZED INTERNAL COORDINATES **
   Searching for a Minimum

   Optimization Cycle:  25

                       Coordinates (Angstroms)
     ATOM                X               Y               Z
      1  Li        3.1328406343    0.0062113080   -0.0235813069
      2  C        -1.8562890322    0.7572801942   -0.0135717931
      3  O        -0.5079498569    1.1006251026    0.4606464363
      4  C        -1.8612232434   -0.7598338176    0.0116065433
      5  S         0.5233407854   -0.0018740656    0.0095052188
      6  O        -0.5036922022   -1.1155709281   -0.4250159658
      7  O         1.3370243822    0.3957457492   -1.1358196058
      8  O         1.3598976765   -0.3909682393    1.1403522198
      9  H        -2.5511289423    1.1993877848    0.6957232697
     10  H        -1.9790928090    1.1707046438   -1.0140495017
     11  H        -2.0138253903   -1.1633958442    1.0075897736
     12  H        -2.5414744633   -1.1982056261   -0.7140561772
   Point Group: c1    Number of degrees of freedom:    30


   Energy is   -784.934290814

 Hessian Updated using BFGS Update

 30 Hessian modes will be used to form the next step
  Hessian Eigenvalues:
     0.008408    0.011028    0.020867    0.025957    0.036597    0.048336
     0.056703    0.061548    0.066567    0.081039    0.092678    0.110510
     0.114182    0.130430    0.142303    0.161154    0.189890    0.218606
     0.293646    0.310873    0.350874    0.353885    0.376269    0.404928
     0.488836    0.549616    0.669764    0.809088    0.848296    4.883251

 Minimum Search - Taking Simple RFO Step
 Searching for Lamda that Minimizes Along All modes
 Value Taken    Lamda =   0.00000000
 Step Taken.  Stepsize is  0.006698

                             Maximum     Tolerance    Cnvgd?
         Gradient           0.000142      0.000300     YES
         Displacement       0.005128      0.001200      NO
         Energy change     -0.000001      0.000001     YES


                       Distance Matrix (Angstroms)
             Li(  1)   C (  2)   O (  3)   C (  4)   S (  5)   O (  6)
   C (  2)  5.045356
   O (  3)  3.832437  1.469962
   C (  4)  5.052597  1.517331  2.343991
   S (  5)  2.609722  2.497896  1.575625  2.502130
   O (  6)  3.826737  2.346567  2.386617  1.469721  1.576048
   O (  7)  2.147968  3.404027  2.539584  3.588975  1.460120  2.485469
   O (  8)  2.157735  3.604701  2.485097  3.433038  1.459465  2.539369
   H (  9)  5.852229  1.086904  2.059028  2.186901  3.371393  3.287413
   H ( 10)  5.335629  1.089475  2.084203  2.189256  2.946995  2.784030
   H ( 11)  5.377682  2.180960  2.773553  1.085418  2.963531  2.082102
   H ( 12)  5.841680  2.187254  3.286301  1.086967  3.368656  2.059837
             O (  7)   O (  8)   H (  9)   H ( 10)   H ( 11)
   O (  8)  2.408402
   H (  9)  4.372428  4.245357
   H ( 10)  3.407642  4.269558  1.803156
   H ( 11)  4.272390  3.463564  2.443093  3.088083
   H ( 12)  4.214418  4.394447  2.781371  2.453162  1.801025
 
 Final energy is   -784.934290813873     


 ******************************
 **  OPTIMIZATION CONVERGED  **
 ******************************

                       Coordinates (Angstroms)
     ATOM                X               Y               Z
      1  Li        3.1328406343    0.0062113080   -0.0235813069
      2  C        -1.8562890322    0.7572801942   -0.0135717931
      3  O        -0.5079498569    1.1006251026    0.4606464363
      4  C        -1.8612232434   -0.7598338176    0.0116065433
      5  S         0.5233407854   -0.0018740656    0.0095052188
      6  O        -0.5036922022   -1.1155709281   -0.4250159658
      7  O         1.3370243822    0.3957457492   -1.1358196058
      8  O         1.3598976765   -0.3909682393    1.1403522198
      9  H        -2.5511289423    1.1993877848    0.6957232697
     10  H        -1.9790928090    1.1707046438   -1.0140495017
     11  H        -2.0138253903   -1.1633958442    1.0075897736
     12  H        -2.5414744633   -1.1982056261   -0.7140561772

Z-matrix Print:
$molecule
1 1
S 
O  1 1.459465
O  1 1.460120 2 111.159238
O  1 1.575625 2 109.868512 3 -126.481569 0
C  4 1.469962 1 110.155323 2 -132.490605 0
H  5 1.086904 4 106.311227 1 151.677841 0
H  5 1.089475 4 108.120121 1 -88.021824 0
C  5 1.517331 4 103.365979 1 32.254271 0
H  8 1.085418 5 112.794924 4 79.088381 0
H  8 1.086967 5 113.215929 4 -152.414891 0
O  8 1.469721 5 103.537168 4 -37.643061 0
Li 3 2.147968 1 90.593111 2 0.224876 0
$end

 
 --------------------------------------------------------------
 
                    Orbital Energies (a.u.)
 --------------------------------------------------------------
 
 Alpha MOs
 -- Occupied --
-89.382 -19.389 -19.389 -19.346 -19.346 -10.399 -10.399  -8.366
 -6.318  -6.317  -6.315  -2.163  -1.354  -1.228  -1.208  -1.177
 -0.927  -0.815  -0.779  -0.678  -0.671  -0.637  -0.623  -0.593
 -0.571  -0.540  -0.523  -0.510  -0.490  -0.487  -0.486  -0.440
 -0.428
 -- Virtual --
  0.008   0.017   0.017   0.019   0.042   0.062   0.066   0.068
  0.070   0.085   0.089   0.089   0.093   0.115   0.121   0.133
  0.135   0.135   0.140   0.149   0.171   0.175   0.179   0.195
  0.203   0.204   0.212   0.216   0.216   0.220   0.239   0.248
  0.266   0.272   0.277   0.277   0.293   0.306   0.320   0.342
  0.346   0.351   0.354   0.364   0.383   0.393   0.404   0.405
  0.415   0.422   0.427   0.444   0.471   0.501   0.568   0.581
  0.609   0.644   0.665   0.674   0.684   0.733   0.743   0.766
  0.769   0.782   0.829   0.849   0.865   0.902   1.015   1.017
  1.063   1.103   1.113   1.131   1.143   1.176   1.180   1.239
  1.247   1.250   1.307   1.321   1.331   1.378   1.381   1.405
  1.409   1.426   1.447   1.490   1.492   1.521   1.585   1.642
  1.655   1.667   1.694   1.756   1.797   1.839   1.847   1.862
  1.904   1.914   1.958   1.983   1.994   1.996   2.034   2.061
  2.090   2.109   2.176   2.194   2.213   2.267   2.279   2.346
  2.393   2.410   2.510   2.601   2.641   2.647   2.667   2.740
  2.756   2.809   2.835   2.916   2.935   2.941   2.972   3.116
  3.375   3.395   3.533   3.593   4.063   4.211   4.295   4.309
  4.377   4.529   4.756
 --------------------------------------------------------------
 
          Ground-State Mulliken Net Atomic Charges

     Atom                 Charge (a.u.)
  ----------------------------------------
      1 Li                    0.768476
      2 C                    -0.155209
      3 O                    -0.530947
      4 C                    -0.148123
      5 S                     1.796864
      6 O                    -0.534082
      7 O                    -0.592311
      8 O                    -0.591029
      9 H                     0.255335
     10 H                     0.238277
     11 H                     0.238138
     12 H                     0.254611
  ----------------------------------------
  Sum of atomic charges =     1.000000

 -----------------------------------------------------------------
                    Cartesian Multipole Moments
 -----------------------------------------------------------------
    Charge (ESU x 10^10)
                 4.8032
    Dipole Moment (Debye)
         X       3.4738      Y       0.0340      Z      -0.1220
       Tot       3.4761
    Quadrupole Moments (Debye-Ang)
        XX       6.4316     XY       0.0797     YY     -46.1886
        XZ      -0.3389     YZ       0.3444     ZZ     -50.3813
    Octopole Moments (Debye-Ang^2)
       XXX     111.6865    XXY       0.3504    XYY      -2.2851
       YYY       0.3389    XXZ      -1.4518    XYZ       2.9027
       YYZ      -0.3436    XZZ      -6.6856    YZZ       0.0074
       ZZZ      -0.9204
    Hexadecapole Moments (Debye-Ang^3)
      XXXX       3.5943   XXXY       0.7926   XXYY     -97.4325
      XYYY      -0.2146   YYYY    -189.1954   XXXZ      -4.2910
      XXYZ       8.2965   XYYZ      -0.0669   YYYZ      -0.0889
      XXZZ    -110.6207   XYZZ       0.0640   YYZZ     -55.4444
      XZZZ      -0.3592   YZZZ       0.8817   ZZZZ    -161.3161
 -----------------------------------------------------------------
Archival summary:
1\1\nid01014\OPT\ProcedureUnspecified\BasisUnspecified\142i14(1+,1)\sblau\FriDec2812:30:502018FriDec2812:30:502018\0\\#,OPT,ProcedureUnspecified,BasisUnspecified,\\1,1\S\O,1,1.45946\O,1,1.46012,2,111.159\O,1,1.57562,2,109.869,3,-126.482,0\C,4,1.46996,1,110.155,2,-132.491,0\H,5,1.0869,4,106.311,1,151.678,0\H,5,1.08948,4,108.12,1,-88.0218,0\C,5,1.51733,4,103.366,1,32.2543,0\H,8,1.08542,5,112.795,4,79.0884,0\H,8,1.08697,5,113.216,4,-152.415,0\O,8,1.46972,5,103.537,4,-37.6431,0\Li,3,2.14797,1,90.5931,2,0.224876,0\\\@

 Total job time:  622.46s(wall), 14557.42s(cpu) 
 Fri Dec 28 12:30:50 2018

        *************************************************************
        *                                                           *
        *  Thank you very much for using Q-Chem.  Have a nice day.  *
        *                                                           *
        *************************************************************


