
Running Job 1 of 1 mol.qin
qchem mol.qin_24281.0 /tmp/chain_scratch/ 1
/global/common/cori/software/qchem/5.1/exe/qcprog.exe mol.qin_24281.0 /tmp/chain_scratch/
Check license passed

                  Welcome to Q-Chem
     A Quantum Leap Into The Future Of Chemistry


 Q-Chem 5.1, Q-Chem, Inc., Pleasanton, CA (2018)

 Yihan Shao,  Zhengting Gan,  E. Epifanovsky,  A. T. B. Gilbert,  M. Wormit,  
 J. Kussmann,  A. W. Lange,  A. Behn,  Jia Deng,  Xintian Feng,  D. Ghosh,  
 M. Goldey,  P. R. Horn,  L. D. Jacobson,  I. Kaliman,  T. Kus,  A. Landau,  
 Jie Liu,  E. I. Proynov,  R. M. Richard,  R. P. Steele,  E. J. Sundstrom,  
 H. L. Woodcock III,  P. M. Zimmerman,  D. Zuev,  B. Albrecht,  E. Alguire,  
 S. A. Baeppler,  D. Barton,  Z. Benda,  Y. A. Bernard,  E. J. Berquist,  
 K. B. Bravaya,  H. Burton,  D. Casanova,  Chun-Min Chang,  Yunqing Chen,  
 A. Chien,  K. D. Closser,  M. P. Coons,  S. Coriani,  S. Dasgupta,  
 A. L. Dempwolff,  M. Diedenhofen,  Hainam Do,  R. G. Edgar,  Po-Tung Fang,  
 S. Faraji,  S. Fatehi,  Qingguo Feng,  K. D. Fenk,  J. Fosso-Tande,  
 Qinghui Ge,  A. Ghysels,  G. Gidofalvi,  J. Gomes,  J. Gonthier,  A. Gunina,  
 D. Hait,  M. W. D. Hanson-Heine,  P. H. P. Harbach,  A. W. Hauser,  
 J. E. Herr,  E. G. Hohenstein,  Z. C. Holden,  Kerwin Hui,  B. C. Huynh,  
 T.-C. Jagau,  Hyunjun Ji,  B. Kaduk,  K. Khistyaev,  Jaehoon Kim,  
 P. Klunzinger,  K. Koh,  D. Kosenkov,  L. Koulias,  T. Kowalczyk,  
 C. M. Krauter,  A. Kunitsa,  Ka Un Lao,  A. Laurent,  K. V. Lawler,  
 Joonho Lee,  D. Lefrancois,  S. Lehtola,  D. S. Levine,  Yi-Pei Li,  
 You-Sheng Lin,  Fenglai Liu,  E. Livshits,  A. Luenser,  P. Manohar,  
 E. Mansoor,  S. F. Manzer,  Shan-Ping Mao,  Yuezhi Mao,  N. Mardirossian,  
 A. V. Marenich,  T. Markovich,  L. A. Martinez-Martinez,  S. A. Maurer,  
 N. J. Mayhall,  S. C. McKenzie,  J.-M. Mewes,  A. F. Morrison,  
 J. W. Mullinax,  K. Nanda,  T. S. Nguyen-Beck,  R. Olivares-Amaya,  
 J. A. Parkhill,  T. M. Perrine,  F. Plasser,  P. Pokhilko,  S. Prager,  
 A. Prociuk,  E. Ramos,  D. R. Rehn,  F. Rob,  M. Schneider,  N. Sergueev,  
 S. M. Sharada,  S. Sharma,  D. W. Small,  T. Stauch,  T. Stein,  
 Yu-Chuan Su,  A. J. W. Thom,  A. Tkatchenko,  T. Tsuchimochi,  N. M. Tubman,  
 L. Vogt,  M. L. Vidal,  O. Vydrov,  M. A. Watson,  J. Wenzel,  
 M. de Wergifosse,  T. A. Wesolowski,  A. White,  J. Witte,  A. Yamada,  
 Jun Yang,  K. Yao,  S. Yeganeh,  S. R. Yost,  Zhi-Qiang You,  A. Zech,  
 Igor Ying Zhang,  Xing Zhang,  Yan Zhao,  Ying Zhu,  B. R. Brooks,  
 G. K. L. Chan,  C. J. Cramer,  M. S. Gordon,  W. J. Hehre,  A. Klamt,  
 M. W. Schmidt,  C. D. Sherrill,  D. G. Truhlar,  A. Aspuru-Guzik,  R. Baer,  
 A. T. Bell,  N. A. Besley,  Jeng-Da Chai,  R. A. DiStasio Jr.,  A. Dreuw,  
 B. D. Dunietz,  T. R. Furlani,  Chao-Ping Hsu,  Yousung Jung,  Jing Kong,  
 D. S. Lambrecht,  WanZhen Liang,  C. Ochsenfeld,  V. A. Rassolov,  
 L. V. Slipchenko,  J. E. Subotnik,  T. Van Voorhis,  J. M. Herbert,  
 A. I. Krylov,  P. M. W. Gill,  M. Head-Gordon

 Contributors to earlier versions of Q-Chem not listed above: 
 R. D. Adamson,  B. Austin,  J. Baker,  G. J. O. Beran,  K. Brandhorst,  
 S. T. Brown,  E. F. C. Byrd,  A. K. Chakraborty,  C.-L. Cheng,  
 Siu Hung Chien,  D. M. Chipman,  D. L. Crittenden,  H. Dachsel,  
 R. J. Doerksen,  A. D. Dutoi,  L. Fusti-Molnar,  W. A. Goddard III,  
 A. Golubeva-Zadorozhnaya,  S. R. Gwaltney,  G. Hawkins,  A. Heyden,  
 S. Hirata,  G. Kedziora,  F. J. Keil,  C. Kelley,  Jihan Kim,  R. A. King,  
 R. Z. Khaliullin,  P. P. Korambath,  W. Kurlancheek,  A. M. Lee,  M. S. Lee,  
 S. V. Levchenko,  Ching Yeh Lin,  D. Liotard,  R. C. Lochan,  I. Lotan,  
 P. E. Maslen,  N. Nair,  D. P. O'Neill,  D. Neuhauser,  E. Neuscamman,  
 C. M. Oana,  R. Olson,  B. Peters,  R. Peverati,  P. A. Pieniazek,  
 Y. M. Rhee,  J. Ritchie,  M. A. Rohrdanz,  E. Rosta,  N. J. Russ,  
 H. F. Schaefer III,  N. E. Schultz,  N. Shenvi,  A. C. Simmonett,  A. Sodt,  
 D. Stuck,  K. S. Thanthiriwatte,  V. Vanovschi,  Tao Wang,  A. Warshel,  
 C. F. Williams,  Q. Wu,  X. Xu,  W. Zhang

 Please cite Q-Chem as follows:
 Y. Shao et al., Mol. Phys. 113, 184-215 (2015)
 DOI: 10.1080/00268976.2014.952696

 Q-Chem 5.1.0 for Intel X86 EM64T Linux

 Parts of Q-Chem use Armadillo 8.300.2 (Tropical Shenanigans).
 http://arma.sourceforge.net/

 Q-Chem begins on Fri Dec 28 16:40:03 2018  

Host: cori08
0

     Scratch files written to /tmp/chain_scratch//
 Jun2518 |scratch|qcdevops|jenkins|workspace|build_RNUM -1
Processing $rem in /global/common/cori/software/qchem/5.1/config/preferences.
 MEM_TOTAL  96000 
The previous job contains 0 fragments, simply inherited here
Symmetry turned off for PCM/SM12/SMD calculation

Checking the input file for inconsistencies... 	...done.

--------------------------------------------------------------
User input:
--------------------------------------------------------------
$molecule
read
$end

$rem
job_type = freq
basis = 6-31++g**
max_scf_cycles = 200
gen_scfman = true
xc_grid = 3
scf_algorithm = diis_gdm
method = wb97xd
geom_opt_max_cycles = 200
solvent_method = smd
ideriv = 1
scf_guess = read
$end

$smx
solvent acetonitrile
$end
--------------------------------------------------------------
 ----------------------------------------------------------------
             Standard Nuclear Orientation (Angstroms)
    I     Atom           X                Y                Z
 ----------------------------------------------------------------
    1      Li      3.1287087323     0.0337017459    -0.0431680295
    2      C      -1.8520932069     0.7558007462    -0.0147544007
    3      O      -0.5108094952     1.0862325813     0.4895977353
    4      C      -1.8658586344    -0.7608088831     0.0050016498
    5      S       0.5219863072    -0.0084878203     0.0231078458
    6      O      -0.5035583450    -1.1221598262    -0.4144864310
    7      O       1.3260580034     0.4034265730    -1.1245745088
    8      O       1.3681262444    -0.4027111751     1.1442691824
    9      H      -2.5584967557     1.2004576332     0.6813199554
   10      H      -1.9465430167     1.1745010127    -1.0151483297
   11      H      -2.0300758311    -1.1660708886     0.9985613727
   12      H      -2.5390164635    -1.1937754378    -0.7303969309
 ----------------------------------------------------------------
 Nuclear Repulsion Energy =   484.3217119276 hartrees
 There are       33 alpha and       33 beta electrons
 Requested basis set is 6-31++G(d,p)
 There are 57 shells and 180 basis functions

 Total QAlloc Memory Limit  96000 MB
 Mega-Array Size       188 MB
 MEM_STATIC part       192 MB

                       Distance Matrix (Angstroms)
             Li(  1)   C (  2)   O (  3)   C (  4)   S (  5)   O (  6)
   C (  2)  5.032954
   O (  3)  3.825932  1.470578
   C (  4)  5.057595  1.516801  2.341485
   S (  5)  2.607906  2.494358  1.575656  2.503621
   O (  6)  3.829786  2.346288  2.386298  1.470512  1.575911
   O (  7)  2.134405  3.384747  2.538869  3.580463  1.460609  2.485787
   O (  8)  2.167975  3.613212  2.485145  3.447437  1.458893  2.539789
   H (  9)  5.850684  1.086851  2.059813  2.187172  3.374043  3.289090
   H ( 10)  5.291914  1.088586  2.081678  2.189210  2.927640  2.778066
   H ( 11)  5.397936  2.179926  2.764070  1.085525  2.967243  2.080598
   H ( 12)  5.839700  2.187431  3.286403  1.086928  3.367850  2.061072
             O (  7)   O (  8)   H (  9)   H ( 10)   H ( 11)
   O (  8)  2.408169
   H (  9)  4.357325  4.266479
   H ( 10)  3.363993  4.258840  1.803653
   H ( 11)  4.270206  3.485933  2.445471  3.088735
   H ( 12)  4.200623  4.405215  2.779510  2.457812  1.802522
 
 A cutoff of  1.0D-12 yielded   1574 shell pairs
 There are     16206 function pairs
 
 -------------------------------------------------------
 OpenMP Integral Computing Module                       
 Release: version 1.0, May 2013, Q-Chem Inc. Pittsburgh 
 -------------------------------------------------------
 Integral Job Info:
 Integral job number is                      11
 Integral operator is                         1
 short-range coefficients              22203600
 long-range coefficients              100000000
 Omega coefficients                         200
 if combine SR and LR in K                    1
 Integral screening is                        0
 Integral computing path is                   2
 max size of driver memory is            800000
 size of driver memory is                593474
 size of scratch memory is             15604072
 max col of scratch BK array               1296
 max len of scratch array in speh3          155
 max len of scratch index in speh4           18
 max int batch size is                      520
 min int batch size is                       52
 fixed nKL is                                52
 max L of basis functions is                  2
 order of int derivative is                   0
 number of shells is                         57
 number of basis is                         180
 number of cartesian basis is               180
 number of contracted shell pairs          1574
 number of primitive shell pairs           5388
 maxK2 (contraction) of shell pair           36
 max number of K2 of shell pair               1
 max number of CS2 of shell pair            176
 max number of PS2 of shell pair           1056
 mem total for path MDJ                  537180
 -------------------------------------------------------
 Smallest overlap matrix eigenvalue = 1.31E-04

 -----------------------------------------------------------------------
  General SCF calculation program by
  Eric Jon Sundstrom, Paul Horn, Yuezhi Mao, Dmitri Zuev, Alec White,
  David Stuck, Shaama M.S., Shane Yost, Joonho Lee, David Small,
  Daniel Levine, Susi Lehtola, Hugh Burton, Evgeny Epifanovsky
 -----------------------------------------------------------------------
 Exchange:     0.2220 Hartree-Fock + 1.0000 wB97X-D + LR-HF
 Correlation:  1.0000 wB97X-D
 Using SG-3 standard quadrature grid
 Dispersion:   Grimme D
 
 Citation of the SMD model:
 Marenich, A.V.; Cramer, C.J.; Truhlar, D.G.
 J. Phys. Chem. B 2009, 113, 6378-6396.
 iSolventCode=          53
 Solvent: acetonitrile                                                    
 
 vradii
            1           2           3           4           5           6
    1   2.1476001   1.8500000   2.1680000   1.8500000   2.4900000   2.1680000
            7           8           9          10          11          12
    1   2.1680000   2.1680000   1.2000000   1.2000000   1.2000000   1.2000000
Changing PCM_TESSEL_METHOD to VTN
Changing PCM_VDW_RADII to SMD_RADIUS
 Discretize the solute cavity surface with Lebedev spheres
	Using 302 Lebedev grid points for each H atom
	Using 302 Lebedev grid points for other atoms
	Atomic van der Waals radii will be scaled by 1.20
 Removing interior tesserae...
 Keep 1147 surface tesserae and discard 2477 interior tesserae
 Molecular Surface Area = 164.708 Angst**2
 
 Citation of the SMD model:
 Marenich, A.V.; Cramer, C.J.; Truhlar, D.G.
 J. Phys. Chem. B 2009, 113, 6378-6396.
 iSolventCode=          53
 Solvent: acetonitrile                                                    
 
 vradii
            1           2           3           4           5           6
    1   2.1476001   1.8500000   2.1680000   1.8500000   2.4900000   2.1680000
            7           8           9          10          11          12
    1   2.1680000   2.1680000   1.2000000   1.2000000   1.2000000   1.2000000
 using 32 threads for integral computing
 -------------------------------------------------------
 OpenMP Integral computing Module                
 Release: version 1.0, May 2013, Q-Chem Inc. Pittsburgh 
 -------------------------------------------------------
 using 32 threads for integral computing
 -------------------------------------------------------
 OpenMP Integral computing Module                
 Release: version 1.0, May 2013, Q-Chem Inc. Pittsburgh 
 -------------------------------------------------------
 -------------------------------------------------------
 OpenMP BLAS3 based DFT computing Module                
 Release: version 1.0, May 2013, Q-Chem Inc. Pittsburgh 
 -------------------------------------------------------
 A restricted SCF calculation will be
 performed using DIIS, GDM
 SCF converges when RMS gradient is below 1.0e-08
 ---------------------------------------
  Cycle       Energy         DIIS error
 ---------------------------------------
    1    -784.8385353838      4.03e-04  
    2    -784.9323608322      4.40e-04  Done DIIS. Switching to GDM
 ---------------------------------------
  Cycle       Energy        RMS Gradient
 ---------------------------------------
    1    -784.9323608322      6.44e-03   Normal BFGS step
    2    -784.9333356016      2.96e-03   Normal BFGS step
    3    -784.9335640671      1.22e-03   Normal BFGS step
    4    -784.9336018364      4.36e-04   Normal BFGS step
    5    -784.9336053516      2.26e-04   Normal BFGS step
    6    -784.9336062880      9.05e-05   Normal BFGS step
    7    -784.9336064081      5.15e-05   Normal BFGS step
    8    -784.9336064559      7.36e-06   Normal BFGS step
    9    -784.9336064579      6.18e-06   Normal BFGS step
   10    -784.9336064583      3.13e-06   Normal BFGS step
   11    -784.9336064584      8.11e-07   Normal BFGS step
   12    -784.9336064584      1.55e-07   Normal BFGS step
   13    -784.9336064584      3.27e-08   Normal BFGS step
   14    -784.9336064584      9.58e-09  Convergence criterion met
 ---------------------------------------
 SCF time:   CPU 579.72s  wall 22.00s 
(0)  E-EN(g) gas-phase elect-nuc energy                    0.000000000 a.u.
(3)  G-ENP(liq) elect-nuc-pol free energy of system     -784.933606458 a.u.
(4)  G-CDS(liq) cavity-dispersion-solvent structure 
     free energy                                               -0.3959 kcal/mol
(6)  G-S(liq) free energy of system                     -784.934237368 a.u.
(9)  DeltaG-S(liq) free energy of  solvation
     (9) = (6) - (0)                                      -492553.6681 kcal/mol
 SCF   energy in the final basis set =     -784.9336064584
 Total energy in the final basis set =     -784.9342373675
 
 --------------------------------------------------------------
 
                    Orbital Energies (a.u.)
 --------------------------------------------------------------
 
 Alpha MOs
 -- Occupied --
-89.382 -19.389 -19.389 -19.346 -19.346 -10.399 -10.399  -8.366
 -6.318  -6.317  -6.315  -2.163  -1.354  -1.228  -1.208  -1.177
 -0.927  -0.815  -0.779  -0.678  -0.672  -0.637  -0.623  -0.593
 -0.572  -0.540  -0.523  -0.510  -0.490  -0.487  -0.486  -0.441
 -0.429
 -- Virtual --
  0.008   0.017   0.017   0.019   0.042   0.062   0.066   0.068
  0.070   0.085   0.089   0.090   0.093   0.115   0.121   0.133
  0.135   0.135   0.140   0.149   0.171   0.175   0.179   0.195
  0.203   0.204   0.212   0.216   0.216   0.220   0.239   0.248
  0.265   0.272   0.276   0.278   0.293   0.306   0.320   0.342
  0.346   0.351   0.354   0.364   0.383   0.392   0.404   0.405
  0.415   0.422   0.427   0.444   0.471   0.501   0.568   0.581
  0.609   0.644   0.666   0.675   0.685   0.732   0.744   0.766
  0.770   0.783   0.828   0.849   0.865   0.903   1.014   1.019
  1.063   1.103   1.114   1.133   1.142   1.174   1.182   1.238
  1.247   1.251   1.307   1.321   1.331   1.377   1.382   1.405
  1.409   1.425   1.448   1.490   1.493   1.521   1.585   1.641
  1.656   1.667   1.695   1.756   1.797   1.838   1.847   1.862
  1.904   1.914   1.959   1.985   1.993   1.999   2.033   2.061
  2.092   2.110   2.176   2.193   2.213   2.266   2.278   2.346
  2.393   2.411   2.508   2.600   2.642   2.649   2.667   2.740
  2.757   2.810   2.835   2.916   2.935   2.941   2.972   3.116
  3.377   3.395   3.535   3.592   4.063   4.212   4.296   4.307
  4.379   4.530   4.757
 --------------------------------------------------------------
 
          Ground-State Mulliken Net Atomic Charges

     Atom                 Charge (a.u.)
  ----------------------------------------
      1 Li                    0.767513
      2 C                    -0.157832
      3 O                    -0.529307
      4 C                    -0.143474
      5 S                     1.795716
      6 O                    -0.536266
      7 O                    -0.593135
      8 O                    -0.590155
      9 H                     0.256239
     10 H                     0.237995
     11 H                     0.237821
     12 H                     0.254885
  ----------------------------------------
  Sum of atomic charges =     1.000000

 -----------------------------------------------------------------
                    Cartesian Multipole Moments
 -----------------------------------------------------------------
    Charge (ESU x 10^10)
                 4.8032
    Dipole Moment (Debye)
         X       3.4514      Y       0.1614      Z      -0.2448
       Tot       3.4638
    Quadrupole Moments (Debye-Ang)
        XX       6.3386     XY       0.4734     YY     -46.1847
        XZ      -0.6038     YZ       0.3650     ZZ     -50.3706
    Octopole Moments (Debye-Ang^2)
       XXX     111.1893    XXY       1.7946    XYY      -2.2979
       YYY       1.0839    XXZ      -2.8314    XYZ       2.9177
       YYZ      -0.7846    XZZ      -6.5305    YZZ       0.1536
       ZZZ      -2.2365
    Hexadecapole Moments (Debye-Ang^3)
      XXXX       2.0356   XXXY       4.7101   XXYY     -97.3527
      XYYY      -0.4671   YYYY    -189.1388   XXXZ      -8.3244
      XXYZ       8.4349   XYYZ      -0.3304   YYYZ      -0.0911
      XXZZ    -110.4513   XYZZ       0.2454   YYZZ     -55.4838
      XZZZ      -1.1845   YZZZ       0.9271   ZZZZ    -161.3214
 -----------------------------------------------------------------
 Calculating analytic gradient of the SCF energy
 Gradient of CDS energy
            1           2           3           4           5           6
    1   0.0000599  -0.0004847   0.0001893  -0.0004347  -0.0000234   0.0001875
    2   0.0000014   0.0010598  -0.0001511  -0.0010695   0.0000234   0.0001556
    3  -0.0000024  -0.0000318  -0.0000907   0.0000798  -0.0000377   0.0000855
            7           8           9          10          11          12
    1  -0.0001285  -0.0001332   0.0001844   0.0002447   0.0001511   0.0001876
    2  -0.0000281   0.0000239  -0.0001056  -0.0001278   0.0001235   0.0000945
    3   0.0000954  -0.0000898   0.0000374   0.0000503  -0.0000777  -0.0000183
 Gradient of SCF Energy
            1           2           3           4           5           6
    1   0.0059507   0.0414026  -0.0266221   0.0441562  -0.0055907  -0.0260890
    2   0.0001560  -0.0308660   0.0237937   0.0280134  -0.0007879  -0.0237692
    3  -0.0000661   0.0198628   0.0049392  -0.0153846   0.0006381  -0.0056146
            7           8           9          10          11          12
    1   0.0191224   0.0210810  -0.0317353  -0.0041994  -0.0073377  -0.0301386
    2   0.0147806  -0.0141918   0.0172241   0.0139387  -0.0116328  -0.0166588
    3  -0.0413862   0.0407943   0.0296952  -0.0403308   0.0382335  -0.0313808
 Max gradient component =       4.416E-02
 RMS gradient           =       2.423E-02
 Computing VTN gradient.
 Updating gradient with PCM contributions...
 -- total gradient after adding PCM contribution --
---------------------------------------------------
  Atom         X              Y              Z     
---------------------------------------------------
   1      -0.000157       0.000104       0.000098
   2      -0.000109       0.000049       0.000035
   3       0.000064      -0.000052       0.000058
   4      -0.000000      -0.000006       0.000003
   5      -0.000072      -0.000067      -0.000136
   6       0.000048       0.000070      -0.000123
   7      -0.000069       0.000079       0.000056
   8       0.000180      -0.000067      -0.000201
   9       0.000019      -0.000066       0.000143
  10       0.000086       0.000005       0.000177
  11       0.000028      -0.000099      -0.000065
  12      -0.000019       0.000048      -0.000045
---------------------------------------------------
 Number of fixed atoms: 0
 Gradient time:  CPU 77.78 s  wall 3.49 s
 ######################################################
 ######################################################
 # Starting finite difference calculation for IDERIV  #
 Finite diff step size:  1.88973e-03 a.u.
 ----------------------------------------------------------------
             Standard Nuclear Orientation (Angstroms)
    I     Atom           X                Y                Z
 ----------------------------------------------------------------
    1      Li      3.1297087323     0.0337017459    -0.0431680295
    2      C      -1.8520932069     0.7558007462    -0.0147544007
    3      O      -0.5108094952     1.0862325813     0.4895977353
    4      C      -1.8658586344    -0.7608088831     0.0050016498
    5      S       0.5219863072    -0.0084878203     0.0231078458
    6      O      -0.5035583450    -1.1221598262    -0.4144864310
    7      O       1.3260580034     0.4034265730    -1.1245745088
    8      O       1.3681262444    -0.4027111751     1.1442691824
    9      H      -2.5584967557     1.2004576332     0.6813199554
   10      H      -1.9465430167     1.1745010127    -1.0151483297
   11      H      -2.0300758311    -1.1660708886     0.9985613727
   12      H      -2.5390164635    -1.1937754378    -0.7303969309
 ----------------------------------------------------------------
 Nuclear Repulsion Energy =   484.3108478941 hartrees
 There are       33 alpha and       33 beta electrons
 Discretize the solute cavity surface with Lebedev spheres
	Using 302 Lebedev grid points for each H atom
	Using 302 Lebedev grid points for other atoms
	Atomic van der Waals radii will be scaled by 1.20
 Removing interior tesserae...
 Keep 1147 surface tesserae and discard 2477 interior tesserae
 Molecular Surface Area = 164.708 Angst**2

                       Distance Matrix (Angstroms)
             Li(  1)   C (  2)   O (  3)   C (  4)   S (  5)   O (  6)
   C (  2)  5.033943
   O (  3)  3.826883  1.470578
   C (  4)  5.058583  1.516801  2.341485
   S (  5)  2.608906  2.494358  1.575656  2.503621
   O (  6)  3.830734  2.346288  2.386298  1.470512  1.575911
   O (  7)  2.135250  3.384747  2.538869  3.580463  1.460609  2.485787
   O (  8)  2.168787  3.613212  2.485145  3.447437  1.458893  2.539789
   H (  9)  5.851657  1.086851  2.059813  2.187172  3.374043  3.289090
   H ( 10)  5.292873  1.088586  2.081678  2.189210  2.927640  2.778066
   H ( 11)  5.398892  2.179926  2.764070  1.085525  2.967243  2.080598
   H ( 12)  5.840670  2.187431  3.286403  1.086928  3.367850  2.061072
             O (  7)   O (  8)   H (  9)   H ( 10)   H ( 11)
   O (  8)  2.408169
   H (  9)  4.357325  4.266479
   H ( 10)  3.363993  4.258840  1.803653
   H ( 11)  4.270206  3.485933  2.445471  3.088735
   H ( 12)  4.200623  4.405215  2.779510  2.457812  1.802522
 
 Requested basis set is 6-31++G(d,p)
 There are 57 shells and 180 basis functions
 A cutoff of  1.0D-12 yielded   1574 shell pairs
 There are     16206 function pairs
 Smallest overlap matrix eigenvalue = 1.31E-04

 -----------------------------------------------------------------------
  General SCF calculation program by
  Eric Jon Sundstrom, Paul Horn, Yuezhi Mao, Dmitri Zuev, Alec White,
  David Stuck, Shaama M.S., Shane Yost, Joonho Lee, David Small,
  Daniel Levine, Susi Lehtola, Hugh Burton, Evgeny Epifanovsky
 -----------------------------------------------------------------------
 Exchange:     0.2220 Hartree-Fock + 1.0000 wB97X-D + LR-HF
 Correlation:  1.0000 wB97X-D
 Using SG-3 standard quadrature grid
 Dispersion:   Grimme D
 using 32 threads for integral computing
 -------------------------------------------------------
 OpenMP Integral computing Module                
 Release: version 1.0, May 2013, Q-Chem Inc. Pittsburgh 
 -------------------------------------------------------
 using 32 threads for integral computing
 -------------------------------------------------------
 OpenMP Integral computing Module                
 Release: version 1.0, May 2013, Q-Chem Inc. Pittsburgh 
 -------------------------------------------------------
 -------------------------------------------------------
 OpenMP BLAS3 based DFT computing Module                
 Release: version 1.0, May 2013, Q-Chem Inc. Pittsburgh 
 -------------------------------------------------------
 A restricted SCF calculation will be
 performed using DIIS, GDM
 SCF converges when RMS gradient is below 1.0e-08
 ---------------------------------------
  Cycle       Energy         DIIS error
 ---------------------------------------
    1    -784.9335678336      1.99e-06  
    2    -784.9336068176      6.48e-07  Done DIIS. Switching to GDM
 ---------------------------------------
  Cycle       Energy        RMS Gradient
 ---------------------------------------
    1    -784.9336068176      8.75e-06   Normal BFGS step
    2    -784.9336068182      1.01e-05   Normal BFGS step
    3    -784.9336068193      1.29e-06   Normal BFGS step
    4    -784.9336068193      9.88e-07   Normal BFGS step
    5    -784.9336068194      1.40e-07   Normal BFGS step
    6    -784.9336068194      8.88e-08   Normal BFGS step
    7    -784.9336068194      3.01e-08   Normal BFGS step
    8    -784.9336068194      1.64e-08   Normal BFGS step
    9    -784.9336068194      4.13e-09  Convergence criterion met
 ---------------------------------------
 SCF time:   CPU 391.78s  wall 15.00s 
(0)  E-EN(g) gas-phase elect-nuc energy                    0.000000000 a.u.
(3)  G-ENP(liq) elect-nuc-pol free energy of system     -784.933606819 a.u.
(4)  G-CDS(liq) cavity-dispersion-solvent structure 
     free energy                                               -0.3959 kcal/mol
(6)  G-S(liq) free energy of system                     -784.934237728 a.u.
(9)  DeltaG-S(liq) free energy of  solvation
     (9) = (6) - (0)                                      -492553.6683 kcal/mol
 SCF   energy in the final basis set =     -784.9336068194
 Total energy in the final basis set =     -784.9342377285
 
 --------------------------------------------------------------
 
                    Orbital Energies (a.u.)
 --------------------------------------------------------------
 
 Alpha MOs
 -- Occupied --
-89.382 -19.389 -19.389 -19.346 -19.345 -10.399 -10.399  -8.366
 -6.318  -6.316  -6.315  -2.163  -1.354  -1.228  -1.208  -1.177
 -0.927  -0.815  -0.779  -0.678  -0.671  -0.637  -0.623  -0.593
 -0.572  -0.540  -0.523  -0.510  -0.490  -0.487  -0.485  -0.441
 -0.429
 -- Virtual --
  0.008   0.017   0.017   0.019   0.042   0.062   0.066   0.068
  0.070   0.085   0.089   0.089   0.093   0.115   0.121   0.133
  0.135   0.135   0.140   0.149   0.171   0.175   0.179   0.195
  0.203   0.204   0.212   0.216   0.216   0.220   0.239   0.248
  0.265   0.272   0.276   0.278   0.293   0.306   0.320   0.342
  0.346   0.351   0.354   0.364   0.383   0.392   0.404   0.405
  0.415   0.422   0.427   0.444   0.471   0.501   0.568   0.581
  0.609   0.644   0.666   0.675   0.685   0.732   0.744   0.765
  0.770   0.783   0.828   0.849   0.865   0.903   1.014   1.019
  1.063   1.103   1.113   1.133   1.142   1.174   1.182   1.238
  1.247   1.251   1.307   1.321   1.331   1.377   1.382   1.405
  1.409   1.425   1.448   1.490   1.493   1.521   1.585   1.641
  1.656   1.667   1.695   1.756   1.797   1.838   1.847   1.862
  1.904   1.914   1.959   1.985   1.993   1.999   2.033   2.061
  2.092   2.110   2.176   2.193   2.213   2.266   2.278   2.346
  2.393   2.411   2.508   2.600   2.642   2.649   2.667   2.740
  2.757   2.810   2.835   2.916   2.935   2.941   2.972   3.116
  3.377   3.395   3.535   3.592   4.063   4.212   4.296   4.307
  4.379   4.530   4.757
 --------------------------------------------------------------
 
          Ground-State Mulliken Net Atomic Charges

     Atom                 Charge (a.u.)
  ----------------------------------------
      1 Li                    0.767909
      2 C                    -0.157809
      3 O                    -0.529293
      4 C                    -0.143446
      5 S                     1.795490
      6 O                    -0.536251
      7 O                    -0.593250
      8 O                    -0.590261
      9 H                     0.256234
     10 H                     0.237985
     11 H                     0.237812
     12 H                     0.254880
  ----------------------------------------
  Sum of atomic charges =     1.000000

 -----------------------------------------------------------------
                    Cartesian Multipole Moments
 -----------------------------------------------------------------
    Charge (ESU x 10^10)
                 4.8032
    Dipole Moment (Debye)
         X       3.4573      Y       0.1614      Z      -0.2448
       Tot       3.4697
    Quadrupole Moments (Debye-Ang)
        XX       6.3684     XY       0.4736     YY     -46.1856
        XZ      -0.6041     YZ       0.3652     ZZ     -50.3719
    Octopole Moments (Debye-Ang^2)
       XXX     111.3325    XXY       1.7957    XYY      -2.2975
       YYY       1.0839    XXZ      -2.8328    XYZ       2.9180
       YYZ      -0.7846    XZZ      -6.5311    YZZ       0.1537
       ZZZ      -2.2366
    Hexadecapole Moments (Debye-Ang^3)
      XXXX       2.5980   XXXY       4.7148   XXYY     -97.3574
      XYYY      -0.4671   YYYY    -189.1419   XXXZ      -8.3305
      XXYZ       8.4350   XYYZ      -0.3304   YYYZ      -0.0908
      XXZZ    -110.4559   XYZZ       0.2454   YYZZ     -55.4854
      XZZZ      -1.1847   YZZZ       0.9281   ZZZZ    -161.3276
 -----------------------------------------------------------------
 Calculating analytic gradient of the SCF energy
 Gradient of CDS energy
            1           2           3           4           5           6
    1   0.0000599  -0.0004847   0.0001893  -0.0004347  -0.0000234   0.0001875
    2   0.0000014   0.0010598  -0.0001511  -0.0010695   0.0000234   0.0001556
    3  -0.0000024  -0.0000318  -0.0000907   0.0000798  -0.0000377   0.0000855
            7           8           9          10          11          12
    1  -0.0001285  -0.0001332   0.0001844   0.0002447   0.0001511   0.0001876
    2  -0.0000281   0.0000239  -0.0001056  -0.0001278   0.0001235   0.0000945
    3   0.0000954  -0.0000898   0.0000374   0.0000503  -0.0000777  -0.0000183
 Gradient of SCF Energy
            1           2           3           4           5           6
    1   0.0060240   0.0413947  -0.0266033   0.0441481  -0.0056977  -0.0260702
    2   0.0001559  -0.0308620   0.0237879   0.0280098  -0.0007900  -0.0237630
    3  -0.0000652   0.0198562   0.0049377  -0.0153788   0.0006426  -0.0056140
            7           8           9          10          11          12
    1   0.0191202   0.0210837  -0.0317306  -0.0041985  -0.0073363  -0.0301341
    2   0.0147781  -0.0141877   0.0172217   0.0139370  -0.0116313  -0.0166564
    3  -0.0413804   0.0407841   0.0296918  -0.0403246   0.0382275  -0.0313771
 Max gradient component =       4.415E-02
 RMS gradient           =       2.422E-02
 Computing VTN gradient.
 Updating gradient with PCM contributions...
 -- total gradient after adding PCM contribution --
---------------------------------------------------
  Atom         X              Y              Z     
---------------------------------------------------
   1      -0.000105       0.000104       0.000100
   2      -0.000113       0.000048       0.000032
   3       0.000075      -0.000056       0.000057
   4      -0.000004      -0.000005       0.000006
   5      -0.000144      -0.000068      -0.000134
   6       0.000059       0.000074      -0.000123
   7      -0.000068       0.000080       0.000055
   8       0.000185      -0.000066      -0.000204
   9       0.000019      -0.000066       0.000144
  10       0.000087       0.000005       0.000178
  11       0.000029      -0.000099      -0.000066
  12      -0.000018       0.000048      -0.000045
---------------------------------------------------
 Number of fixed atoms: 0
 Gradient time:  CPU 77.08 s  wall 3.42 s
 ----------------------------------------------------------------
             Standard Nuclear Orientation (Angstroms)
    I     Atom           X                Y                Z
 ----------------------------------------------------------------
    1      Li      3.1277087323     0.0337017459    -0.0431680295
    2      C      -1.8520932069     0.7558007462    -0.0147544007
    3      O      -0.5108094952     1.0862325813     0.4895977353
    4      C      -1.8658586344    -0.7608088831     0.0050016498
    5      S       0.5219863072    -0.0084878203     0.0231078458
    6      O      -0.5035583450    -1.1221598262    -0.4144864310
    7      O       1.3260580034     0.4034265730    -1.1245745088
    8      O       1.3681262444    -0.4027111751     1.1442691824
    9      H      -2.5584967557     1.2004576332     0.6813199554
   10      H      -1.9465430167     1.1745010127    -1.0151483297
   11      H      -2.0300758311    -1.1660708886     0.9985613727
   12      H      -2.5390164635    -1.1937754378    -0.7303969309
 ----------------------------------------------------------------
 Nuclear Repulsion Energy =   484.3325826556 hartrees
 There are       33 alpha and       33 beta electrons
 Discretize the solute cavity surface with Lebedev spheres
	Using 302 Lebedev grid points for each H atom
	Using 302 Lebedev grid points for other atoms
	Atomic van der Waals radii will be scaled by 1.20
 Removing interior tesserae...
 Keep 1147 surface tesserae and discard 2477 interior tesserae
 Molecular Surface Area = 164.708 Angst**2

                       Distance Matrix (Angstroms)
             Li(  1)   C (  2)   O (  3)   C (  4)   S (  5)   O (  6)
   C (  2)  5.031964
   O (  3)  3.824980  1.470578
   C (  4)  5.056608  1.516801  2.341485
   S (  5)  2.606907  2.494358  1.575656  2.503621
   O (  6)  3.828837  2.346288  2.386298  1.470512  1.575911
   O (  7)  2.133561  3.384747  2.538869  3.580463  1.460609  2.485787
   O (  8)  2.167163  3.613212  2.485145  3.447437  1.458893  2.539789
   H (  9)  5.849712  1.086851  2.059813  2.187172  3.374043  3.289090
   H ( 10)  5.290954  1.088586  2.081678  2.189210  2.927640  2.778066
   H ( 11)  5.396980  2.179926  2.764070  1.085525  2.967243  2.080598
   H ( 12)  5.838729  2.187431  3.286403  1.086928  3.367850  2.061072
             O (  7)   O (  8)   H (  9)   H ( 10)   H ( 11)
   O (  8)  2.408169
   H (  9)  4.357325  4.266479
   H ( 10)  3.363993  4.258840  1.803653
   H ( 11)  4.270206  3.485933  2.445471  3.088735
   H ( 12)  4.200623  4.405215  2.779510  2.457812  1.802522
 
 Requested basis set is 6-31++G(d,p)
 There are 57 shells and 180 basis functions
 A cutoff of  1.0D-12 yielded   1574 shell pairs
 There are     16206 function pairs
 Smallest overlap matrix eigenvalue = 1.31E-04

 -----------------------------------------------------------------------
  General SCF calculation program by
  Eric Jon Sundstrom, Paul Horn, Yuezhi Mao, Dmitri Zuev, Alec White,
  David Stuck, Shaama M.S., Shane Yost, Joonho Lee, David Small,
  Daniel Levine, Susi Lehtola, Hugh Burton, Evgeny Epifanovsky
 -----------------------------------------------------------------------
 Exchange:     0.2220 Hartree-Fock + 1.0000 wB97X-D + LR-HF
 Correlation:  1.0000 wB97X-D
 Using SG-3 standard quadrature grid
 Dispersion:   Grimme D
 using 32 threads for integral computing
 -------------------------------------------------------
 OpenMP Integral computing Module                
 Release: version 1.0, May 2013, Q-Chem Inc. Pittsburgh 
 -------------------------------------------------------
 using 32 threads for integral computing
 -------------------------------------------------------
 OpenMP Integral computing Module                
 Release: version 1.0, May 2013, Q-Chem Inc. Pittsburgh 
 -------------------------------------------------------
 -------------------------------------------------------
 OpenMP BLAS3 based DFT computing Module                
 Release: version 1.0, May 2013, Q-Chem Inc. Pittsburgh 
 -------------------------------------------------------
 A restricted SCF calculation will be
 performed using DIIS, GDM
 SCF converges when RMS gradient is below 1.0e-08
 ---------------------------------------
  Cycle       Energy         DIIS error
 ---------------------------------------
    1    -784.9336838779      3.99e-06  
    2    -784.9336059931      1.30e-06  Done DIIS. Switching to GDM
 ---------------------------------------
  Cycle       Energy        RMS Gradient
 ---------------------------------------
    1    -784.9336059931      1.75e-05   Normal BFGS step
    2    -784.9336059958      2.01e-05   Normal BFGS step
    3    -784.9336060001      2.58e-06   Normal BFGS step
    4    -784.9336060002      1.98e-06   Normal BFGS step
    5    -784.9336060003      2.80e-07   Normal BFGS step
    6    -784.9336060003      1.78e-07   Normal BFGS step
    7    -784.9336060003      6.03e-08   Normal BFGS step
    8    -784.9336060003      3.30e-08   Normal BFGS step
    9    -784.9336060003      8.29e-09  Convergence criterion met
 ---------------------------------------
 SCF time:   CPU 392.35s  wall 15.00s 
(0)  E-EN(g) gas-phase elect-nuc energy                    0.000000000 a.u.
(3)  G-ENP(liq) elect-nuc-pol free energy of system     -784.933606000 a.u.
(4)  G-CDS(liq) cavity-dispersion-solvent structure 
     free energy                                               -0.3959 kcal/mol
(6)  G-S(liq) free energy of system                     -784.934236909 a.u.
(9)  DeltaG-S(liq) free energy of  solvation
     (9) = (6) - (0)                                      -492553.6678 kcal/mol
 SCF   energy in the final basis set =     -784.9336060003
 Total energy in the final basis set =     -784.9342369094
 
 --------------------------------------------------------------
 
                    Orbital Energies (a.u.)
 --------------------------------------------------------------
 
 Alpha MOs
 -- Occupied --
-89.382 -19.389 -19.389 -19.346 -19.346 -10.399 -10.399  -8.366
 -6.318  -6.317  -6.315  -2.163  -1.354  -1.228  -1.208  -1.177
 -0.927  -0.815  -0.779  -0.678  -0.672  -0.637  -0.623  -0.593
 -0.572  -0.540  -0.523  -0.510  -0.490  -0.487  -0.486  -0.441
 -0.429
 -- Virtual --
  0.008   0.017   0.017   0.019   0.042   0.062   0.066   0.068
  0.070   0.085   0.089   0.090   0.093   0.115   0.121   0.133
  0.135   0.135   0.140   0.149   0.172   0.175   0.179   0.195
  0.203   0.204   0.212   0.216   0.216   0.220   0.239   0.248
  0.265   0.272   0.276   0.278   0.293   0.306   0.320   0.342
  0.346   0.351   0.354   0.364   0.383   0.392   0.404   0.405
  0.415   0.422   0.427   0.444   0.471   0.501   0.568   0.581
  0.609   0.644   0.666   0.675   0.685   0.732   0.744   0.766
  0.770   0.783   0.828   0.849   0.865   0.903   1.014   1.019
  1.063   1.103   1.114   1.134   1.142   1.174   1.182   1.238
  1.247   1.251   1.307   1.321   1.331   1.377   1.382   1.405
  1.409   1.425   1.448   1.490   1.493   1.521   1.585   1.641
  1.656   1.667   1.696   1.756   1.796   1.838   1.847   1.862
  1.904   1.914   1.959   1.985   1.993   1.999   2.033   2.061
  2.093   2.110   2.176   2.193   2.213   2.266   2.278   2.346
  2.393   2.411   2.508   2.600   2.642   2.649   2.667   2.740
  2.757   2.810   2.835   2.916   2.935   2.941   2.972   3.116
  3.377   3.395   3.535   3.592   4.063   4.212   4.296   4.307
  4.379   4.530   4.757
 --------------------------------------------------------------
 
          Ground-State Mulliken Net Atomic Charges

     Atom                 Charge (a.u.)
  ----------------------------------------
      1 Li                    0.767118
      2 C                    -0.157854
      3 O                    -0.529322
      4 C                    -0.143502
      5 S                     1.795941
      6 O                    -0.536282
      7 O                    -0.593021
      8 O                    -0.590049
      9 H                     0.256245
     10 H                     0.238005
     11 H                     0.237830
     12 H                     0.254889
  ----------------------------------------
  Sum of atomic charges =     1.000000

 -----------------------------------------------------------------
                    Cartesian Multipole Moments
 -----------------------------------------------------------------
    Charge (ESU x 10^10)
                 4.8032
    Dipole Moment (Debye)
         X       3.4455      Y       0.1614      Z      -0.2448
       Tot       3.4579
    Quadrupole Moments (Debye-Ang)
        XX       6.3089     XY       0.4732     YY     -46.1838
        XZ      -0.6036     YZ       0.3649     ZZ     -50.3693
    Octopole Moments (Debye-Ang^2)
       XXX     111.0461    XXY       1.7935    XYY      -2.2983
       YYY       1.0838    XXZ      -2.8300    XYZ       2.9173
       YYZ      -0.7846    XZZ      -6.5300    YZZ       0.1536
       ZZZ      -2.2364
    Hexadecapole Moments (Debye-Ang^3)
      XXXX       1.4738   XXXY       4.7053   XXYY     -97.3480
      XYYY      -0.4671   YYYY    -189.1357   XXXZ      -8.3183
      XXYZ       8.4347   XYYZ      -0.3304   YYYZ      -0.0915
      XXZZ    -110.4468   XYZZ       0.2453   YYZZ     -55.4822
      XZZZ      -1.1844   YZZZ       0.9260   ZZZZ    -161.3152
 -----------------------------------------------------------------
 Calculating analytic gradient of the SCF energy
 Gradient of CDS energy
            1           2           3           4           5           6
    1   0.0000599  -0.0004847   0.0001893  -0.0004347  -0.0000234   0.0001875
    2   0.0000014   0.0010598  -0.0001511  -0.0010695   0.0000234   0.0001556
    3  -0.0000024  -0.0000318  -0.0000907   0.0000798  -0.0000377   0.0000855
            7           8           9          10          11          12
    1  -0.0001285  -0.0001332   0.0001844   0.0002447   0.0001511   0.0001876
    2  -0.0000281   0.0000239  -0.0001056  -0.0001278   0.0001235   0.0000945
    3   0.0000954  -0.0000898   0.0000374   0.0000503  -0.0000777  -0.0000183
 Gradient of SCF Energy
            1           2           3           4           5           6
    1   0.0058772   0.0414104  -0.0266410   0.0441642  -0.0054836  -0.0261078
    2   0.0001560  -0.0308699   0.0237994   0.0280171  -0.0007858  -0.0237754
    3  -0.0000670   0.0198693   0.0049407  -0.0153905   0.0006335  -0.0056153
            7           8           9          10          11          12
    1   0.0191247   0.0210783  -0.0317399  -0.0042002  -0.0073392  -0.0301431
    2   0.0147831  -0.0141960   0.0172265   0.0139403  -0.0116343  -0.0166611
    3  -0.0413919   0.0408045   0.0296986  -0.0403370   0.0382394  -0.0313844
 Max gradient component =       4.416E-02
 RMS gradient           =       2.423E-02
 Computing VTN gradient.
 Updating gradient with PCM contributions...
 -- total gradient after adding PCM contribution --
---------------------------------------------------
  Atom         X              Y              Z     
---------------------------------------------------
   1      -0.000208       0.000105       0.000097
   2      -0.000106       0.000051       0.000037
   3       0.000054      -0.000049       0.000059
   4       0.000003      -0.000007       0.000001
   5       0.000001      -0.000065      -0.000139
   6       0.000037       0.000066      -0.000124
   7      -0.000069       0.000079       0.000057
   8       0.000176      -0.000069      -0.000199
   9       0.000018      -0.000066       0.000143
  10       0.000086       0.000005       0.000177
  11       0.000028      -0.000100      -0.000065
  12      -0.000019       0.000048      -0.000044
---------------------------------------------------
 Number of fixed atoms: 0
 Gradient time:  CPU 76.91 s  wall 3.59 s
 ----------------------------------------------------------------
             Standard Nuclear Orientation (Angstroms)
    I     Atom           X                Y                Z
 ----------------------------------------------------------------
    1      Li      3.1287087323     0.0347017459    -0.0431680295
    2      C      -1.8520932069     0.7558007462    -0.0147544007
    3      O      -0.5108094952     1.0862325813     0.4895977353
    4      C      -1.8658586344    -0.7608088831     0.0050016498
    5      S       0.5219863072    -0.0084878203     0.0231078458
    6      O      -0.5035583450    -1.1221598262    -0.4144864310
    7      O       1.3260580034     0.4034265730    -1.1245745088
    8      O       1.3681262444    -0.4027111751     1.1442691824
    9      H      -2.5584967557     1.2004576332     0.6813199554
   10      H      -1.9465430167     1.1745010127    -1.0151483297
   11      H      -2.0300758311    -1.1660708886     0.9985613727
   12      H      -2.5390164635    -1.1937754378    -0.7303969309
 ----------------------------------------------------------------
 Nuclear Repulsion Energy =   484.3215607081 hartrees
 There are       33 alpha and       33 beta electrons
 Discretize the solute cavity surface with Lebedev spheres
	Using 302 Lebedev grid points for each H atom
	Using 302 Lebedev grid points for other atoms
	Atomic van der Waals radii will be scaled by 1.20
 Removing interior tesserae...
 Keep 1147 surface tesserae and discard 2477 interior tesserae
 Molecular Surface Area = 164.708 Angst**2

                       Distance Matrix (Angstroms)
             Li(  1)   C (  2)   O (  3)   C (  4)   S (  5)   O (  6)
   C (  2)  5.032810
   O (  3)  3.825657  1.470578
   C (  4)  5.057753  1.516801  2.341485
   S (  5)  2.607922  2.494358  1.575656  2.503621
   O (  6)  3.830087  2.346288  2.386298  1.470512  1.575911
   O (  7)  2.134232  3.384747  2.538869  3.580463  1.460609  2.485787
   O (  8)  2.168176  3.613212  2.485145  3.447437  1.458893  2.539789
   H (  9)  5.850485  1.086851  2.059813  2.187172  3.374043  3.289090
   H ( 10)  5.291698  1.088586  2.081678  2.189210  2.927640  2.778066
   H ( 11)  5.398158  2.179926  2.764070  1.085525  2.967243  2.080598
   H ( 12)  5.839910  2.187431  3.286403  1.086928  3.367850  2.061072
             O (  7)   O (  8)   H (  9)   H ( 10)   H ( 11)
   O (  8)  2.408169
   H (  9)  4.357325  4.266479
   H ( 10)  3.363993  4.258840  1.803653
   H ( 11)  4.270206  3.485933  2.445471  3.088735
   H ( 12)  4.200623  4.405215  2.779510  2.457812  1.802522
 
 Requested basis set is 6-31++G(d,p)
 There are 57 shells and 180 basis functions
 A cutoff of  1.0D-12 yielded   1574 shell pairs
 There are     16206 function pairs
 Smallest overlap matrix eigenvalue = 1.31E-04

 -----------------------------------------------------------------------
  General SCF calculation program by
  Eric Jon Sundstrom, Paul Horn, Yuezhi Mao, Dmitri Zuev, Alec White,
  David Stuck, Shaama M.S., Shane Yost, Joonho Lee, David Small,
  Daniel Levine, Susi Lehtola, Hugh Burton, Evgeny Epifanovsky
 -----------------------------------------------------------------------
 Exchange:     0.2220 Hartree-Fock + 1.0000 wB97X-D + LR-HF
 Correlation:  1.0000 wB97X-D
 Using SG-3 standard quadrature grid
 Dispersion:   Grimme D
 using 32 threads for integral computing
 -------------------------------------------------------
 OpenMP Integral computing Module                
 Release: version 1.0, May 2013, Q-Chem Inc. Pittsburgh 
 -------------------------------------------------------
 using 32 threads for integral computing
 -------------------------------------------------------
 OpenMP Integral computing Module                
 Release: version 1.0, May 2013, Q-Chem Inc. Pittsburgh 
 -------------------------------------------------------
 -------------------------------------------------------
 OpenMP BLAS3 based DFT computing Module                
 Release: version 1.0, May 2013, Q-Chem Inc. Pittsburgh 
 -------------------------------------------------------
 A restricted SCF calculation will be
 performed using DIIS, GDM
 SCF converges when RMS gradient is below 1.0e-08
 ---------------------------------------
  Cycle       Energy         DIIS error
 ---------------------------------------
    1    -784.9335667463      2.48e-06  
    2    -784.9336062584      8.79e-07  Done DIIS. Switching to GDM
 ---------------------------------------
  Cycle       Energy        RMS Gradient
 ---------------------------------------
    1    -784.9336062584      1.26e-05   Normal BFGS step
    2    -784.9336062598      1.71e-05   Normal BFGS step
    3    -784.9336062622      1.54e-06   Normal BFGS step
    4    -784.9336062623      1.21e-06   Normal BFGS step
    5    -784.9336062623      2.89e-07   Normal BFGS step
    6    -784.9336062623      2.20e-07   Normal BFGS step
    7    -784.9336062623      4.43e-08   Normal BFGS step
    8    -784.9336062623      2.54e-08   Normal BFGS step
    9    -784.9336062623      3.82e-09  Convergence criterion met
 ---------------------------------------
 SCF time:   CPU 391.44s  wall 15.00s 
(0)  E-EN(g) gas-phase elect-nuc energy                    0.000000000 a.u.
(3)  G-ENP(liq) elect-nuc-pol free energy of system     -784.933606262 a.u.
(4)  G-CDS(liq) cavity-dispersion-solvent structure 
     free energy                                               -0.3959 kcal/mol
(6)  G-S(liq) free energy of system                     -784.934237171 a.u.
(9)  DeltaG-S(liq) free energy of  solvation
     (9) = (6) - (0)                                      -492553.6679 kcal/mol
 SCF   energy in the final basis set =     -784.9336062623
 Total energy in the final basis set =     -784.9342371714
 
 --------------------------------------------------------------
 
                    Orbital Energies (a.u.)
 --------------------------------------------------------------
 
 Alpha MOs
 -- Occupied --
-89.382 -19.389 -19.389 -19.346 -19.346 -10.399 -10.399  -8.366
 -6.318  -6.317  -6.315  -2.163  -1.354  -1.228  -1.208  -1.177
 -0.927  -0.815  -0.779  -0.678  -0.672  -0.637  -0.623  -0.593
 -0.572  -0.540  -0.523  -0.510  -0.490  -0.487  -0.486  -0.441
 -0.429
 -- Virtual --
  0.008   0.017   0.017   0.019   0.042   0.062   0.066   0.068
  0.070   0.085   0.089   0.090   0.093   0.115   0.121   0.133
  0.135   0.135   0.140   0.149   0.171   0.175   0.179   0.195
  0.203   0.204   0.212   0.216   0.216   0.220   0.239   0.248
  0.265   0.272   0.276   0.278   0.293   0.306   0.320   0.342
  0.346   0.351   0.354   0.364   0.383   0.392   0.404   0.405
  0.415   0.422   0.427   0.444   0.471   0.501   0.568   0.581
  0.609   0.644   0.666   0.675   0.685   0.732   0.744   0.766
  0.770   0.783   0.828   0.849   0.865   0.903   1.014   1.019
  1.063   1.103   1.114   1.133   1.142   1.174   1.182   1.238
  1.247   1.251   1.307   1.321   1.331   1.377   1.382   1.405
  1.409   1.425   1.448   1.490   1.493   1.521   1.585   1.641
  1.656   1.667   1.695   1.756   1.797   1.838   1.847   1.862
  1.904   1.914   1.959   1.985   1.993   1.999   2.033   2.061
  2.092   2.110   2.176   2.193   2.213   2.266   2.278   2.346
  2.393   2.411   2.508   2.600   2.642   2.649   2.667   2.740
  2.757   2.810   2.835   2.916   2.935   2.941   2.972   3.116
  3.377   3.395   3.535   3.592   4.063   4.212   4.296   4.307
  4.379   4.530   4.757
 --------------------------------------------------------------
 
          Ground-State Mulliken Net Atomic Charges

     Atom                 Charge (a.u.)
  ----------------------------------------
      1 Li                    0.767519
      2 C                    -0.157843
      3 O                    -0.529299
      4 C                    -0.143459
      5 S                     1.795709
      6 O                    -0.536274
      7 O                    -0.593132
      8 O                    -0.590161
      9 H                     0.256240
     10 H                     0.237995
     11 H                     0.237820
     12 H                     0.254884
  ----------------------------------------
  Sum of atomic charges =     1.000000

 -----------------------------------------------------------------
                    Cartesian Multipole Moments
 -----------------------------------------------------------------
    Charge (ESU x 10^10)
                 4.8032
    Dipole Moment (Debye)
         X       3.4514      Y       0.1655      Z      -0.2448
       Tot       3.4640
    Quadrupole Moments (Debye-Ang)
        XX       6.3387     XY       0.4874     YY     -46.1844
        XZ      -0.6036     YZ       0.3649     ZZ     -50.3706
    Octopole Moments (Debye-Ang^2)
       XXX     111.1894    XXY       1.8391    XYY      -2.2969
       YYY       1.0817    XXZ      -2.8309    XYZ       2.9170
       YYZ      -0.7844    XZZ      -6.5305    YZZ       0.1527
       ZZZ      -2.2366
    Hexadecapole Moments (Debye-Ang^3)
      XXXX       2.0357   XXXY       4.8488   XXYY     -97.3495
      XYYY      -0.4726   YYYY    -189.1391   XXXZ      -8.3235
      XXYZ       8.4329   XYYZ      -0.3300   YYYZ      -0.0910
      XXZZ    -110.4514   XYZZ       0.2430   YYZZ     -55.4839
      XZZZ      -1.1845   YZZZ       0.9272   ZZZZ    -161.3215
 -----------------------------------------------------------------
 Calculating analytic gradient of the SCF energy
 Gradient of CDS energy
            1           2           3           4           5           6
    1   0.0000599  -0.0004847   0.0001893  -0.0004347  -0.0000234   0.0001875
    2   0.0000014   0.0010598  -0.0001511  -0.0010695   0.0000234   0.0001556
    3  -0.0000024  -0.0000318  -0.0000907   0.0000798  -0.0000377   0.0000855
            7           8           9          10          11          12
    1  -0.0001285  -0.0001332   0.0001844   0.0002447   0.0001511   0.0001876
    2  -0.0000281   0.0000239  -0.0001056  -0.0001278   0.0001235   0.0000945
    3   0.0000954  -0.0000898   0.0000374   0.0000503  -0.0000777  -0.0000183
 Gradient of SCF Energy
            1           2           3           4           5           6
    1   0.0059508   0.0414044  -0.0266199   0.0441543  -0.0055930  -0.0260908
    2   0.0001666  -0.0308658   0.0237926   0.0280135  -0.0007703  -0.0237702
    3  -0.0000656   0.0198631   0.0049416  -0.0153840   0.0006257  -0.0056121
            7           8           9          10          11          12
    1   0.0191226   0.0210825  -0.0317353  -0.0041990  -0.0073380  -0.0301384
    2   0.0147663  -0.0142057   0.0172244   0.0139393  -0.0116323  -0.0166585
    3  -0.0413824   0.0407969   0.0296956  -0.0403313   0.0382328  -0.0313803
 Max gradient component =       4.415E-02
 RMS gradient           =       2.423E-02
 Computing VTN gradient.
 Updating gradient with PCM contributions...
 -- total gradient after adding PCM contribution --
---------------------------------------------------
  Atom         X              Y              Z     
---------------------------------------------------
   1      -0.000157       0.000106       0.000099
   2      -0.000109       0.000049       0.000035
   3       0.000066      -0.000053       0.000059
   4      -0.000000      -0.000006       0.000003
   5      -0.000073      -0.000050      -0.000147
   6       0.000047       0.000069      -0.000122
   7      -0.000069       0.000071       0.000060
   8       0.000182      -0.000074      -0.000198
   9       0.000019      -0.000066       0.000143
  10       0.000086       0.000005       0.000177
  11       0.000028      -0.000099      -0.000065
  12      -0.000019       0.000048      -0.000045
---------------------------------------------------
 Number of fixed atoms: 0
 Gradient time:  CPU 77.04 s  wall 3.46 s
 ----------------------------------------------------------------
             Standard Nuclear Orientation (Angstroms)
    I     Atom           X                Y                Z
 ----------------------------------------------------------------
    1      Li      3.1287087323     0.0327017459    -0.0431680295
    2      C      -1.8520932069     0.7558007462    -0.0147544007
    3      O      -0.5108094952     1.0862325813     0.4895977353
    4      C      -1.8658586344    -0.7608088831     0.0050016498
    5      S       0.5219863072    -0.0084878203     0.0231078458
    6      O      -0.5035583450    -1.1221598262    -0.4144864310
    7      O       1.3260580034     0.4034265730    -1.1245745088
    8      O       1.3681262444    -0.4027111751     1.1442691824
    9      H      -2.5584967557     1.2004576332     0.6813199554
   10      H      -1.9465430167     1.1745010127    -1.0151483297
   11      H      -2.0300758311    -1.1660708886     0.9985613727
   12      H      -2.5390164635    -1.1937754378    -0.7303969309
 ----------------------------------------------------------------
 Nuclear Repulsion Energy =   484.3218589218 hartrees
 There are       33 alpha and       33 beta electrons
 Discretize the solute cavity surface with Lebedev spheres
	Using 302 Lebedev grid points for each H atom
	Using 302 Lebedev grid points for other atoms
	Atomic van der Waals radii will be scaled by 1.20
 Removing interior tesserae...
 Keep 1147 surface tesserae and discard 2477 interior tesserae
 Molecular Surface Area = 164.708 Angst**2

                       Distance Matrix (Angstroms)
             Li(  1)   C (  2)   O (  3)   C (  4)   S (  5)   O (  6)
   C (  2)  5.033097
   O (  3)  3.826207  1.470578
   C (  4)  5.057438  1.516801  2.341485
   S (  5)  2.607890  2.494358  1.575656  2.503621
   O (  6)  3.829484  2.346288  2.386298  1.470512  1.575911
   O (  7)  2.134579  3.384747  2.538869  3.580463  1.460609  2.485787
   O (  8)  2.167774  3.613212  2.485145  3.447437  1.458893  2.539789
   H (  9)  5.850884  1.086851  2.059813  2.187172  3.374043  3.289090
   H ( 10)  5.292129  1.088586  2.081678  2.189210  2.927640  2.778066
   H ( 11)  5.397714  2.179926  2.764070  1.085525  2.967243  2.080598
   H ( 12)  5.839490  2.187431  3.286403  1.086928  3.367850  2.061072
             O (  7)   O (  8)   H (  9)   H ( 10)   H ( 11)
   O (  8)  2.408169
   H (  9)  4.357325  4.266479
   H ( 10)  3.363993  4.258840  1.803653
   H ( 11)  4.270206  3.485933  2.445471  3.088735
   H ( 12)  4.200623  4.405215  2.779510  2.457812  1.802522
 
 Requested basis set is 6-31++G(d,p)
 There are 57 shells and 180 basis functions
 A cutoff of  1.0D-12 yielded   1574 shell pairs
 There are     16206 function pairs
 Smallest overlap matrix eigenvalue = 1.31E-04

 -----------------------------------------------------------------------
  General SCF calculation program by
  Eric Jon Sundstrom, Paul Horn, Yuezhi Mao, Dmitri Zuev, Alec White,
  David Stuck, Shaama M.S., Shane Yost, Joonho Lee, David Small,
  Daniel Levine, Susi Lehtola, Hugh Burton, Evgeny Epifanovsky
 -----------------------------------------------------------------------
 Exchange:     0.2220 Hartree-Fock + 1.0000 wB97X-D + LR-HF
 Correlation:  1.0000 wB97X-D
 Using SG-3 standard quadrature grid
 Dispersion:   Grimme D
 using 32 threads for integral computing
 -------------------------------------------------------
 OpenMP Integral computing Module                
 Release: version 1.0, May 2013, Q-Chem Inc. Pittsburgh 
 -------------------------------------------------------
 using 32 threads for integral computing
 -------------------------------------------------------
 OpenMP Integral computing Module                
 Release: version 1.0, May 2013, Q-Chem Inc. Pittsburgh 
 -------------------------------------------------------
 -------------------------------------------------------
 OpenMP BLAS3 based DFT computing Module                
 Release: version 1.0, May 2013, Q-Chem Inc. Pittsburgh 
 -------------------------------------------------------
 A restricted SCF calculation will be
 performed using DIIS, GDM
 SCF converges when RMS gradient is below 1.0e-08
 ---------------------------------------
  Cycle       Energy         DIIS error
 ---------------------------------------
    1    -784.9336076602      2.93e-06  
    2    -784.9336066426      1.28e-06  Done DIIS. Switching to GDM
 ---------------------------------------
  Cycle       Energy        RMS Gradient
 ---------------------------------------
    1    -784.9336066426      2.51e-05   Normal BFGS step
    2    -784.9336066445      2.76e-05   Normal BFGS step
    3    -784.9336066514      2.98e-06   Normal BFGS step
    4    -784.9336066515      1.05e-06   Normal BFGS step
    5    -784.9336066516      4.25e-07   Normal BFGS step
    6    -784.9336066516      3.34e-07   Normal BFGS step
    7    -784.9336066516      1.31e-08   Normal BFGS step
    8    -784.9336066516      5.79e-09  Convergence criterion met
 ---------------------------------------
 SCF time:   CPU 354.79s  wall 14.00s 
(0)  E-EN(g) gas-phase elect-nuc energy                    0.000000000 a.u.
(3)  G-ENP(liq) elect-nuc-pol free energy of system     -784.933606652 a.u.
(4)  G-CDS(liq) cavity-dispersion-solvent structure 
     free energy                                               -0.3959 kcal/mol
(6)  G-S(liq) free energy of system                     -784.934237561 a.u.
(9)  DeltaG-S(liq) free energy of  solvation
     (9) = (6) - (0)                                      -492553.6682 kcal/mol
 SCF   energy in the final basis set =     -784.9336066516
 Total energy in the final basis set =     -784.9342375607
 
 --------------------------------------------------------------
 
                    Orbital Energies (a.u.)
 --------------------------------------------------------------
 
 Alpha MOs
 -- Occupied --
-89.382 -19.389 -19.389 -19.346 -19.345 -10.399 -10.399  -8.366
 -6.318  -6.317  -6.315  -2.163  -1.354  -1.228  -1.208  -1.177
 -0.927  -0.815  -0.779  -0.678  -0.672  -0.637  -0.623  -0.593
 -0.572  -0.540  -0.523  -0.510  -0.490  -0.487  -0.486  -0.441
 -0.429
 -- Virtual --
  0.008   0.017   0.017   0.019   0.042   0.062   0.066   0.068
  0.070   0.085   0.089   0.090   0.093   0.115   0.121   0.133
  0.135   0.135   0.140   0.149   0.171   0.175   0.179   0.195
  0.203   0.204   0.212   0.216   0.216   0.220   0.239   0.248
  0.265   0.272   0.276   0.278   0.293   0.306   0.320   0.342
  0.346   0.351   0.354   0.364   0.383   0.392   0.404   0.405
  0.415   0.422   0.427   0.444   0.471   0.501   0.568   0.581
  0.609   0.644   0.666   0.675   0.685   0.732   0.744   0.766
  0.770   0.783   0.828   0.849   0.865   0.903   1.014   1.019
  1.063   1.103   1.114   1.133   1.142   1.174   1.182   1.238
  1.247   1.251   1.307   1.321   1.331   1.377   1.382   1.405
  1.409   1.425   1.448   1.490   1.493   1.521   1.585   1.641
  1.656   1.667   1.695   1.756   1.797   1.838   1.847   1.862
  1.904   1.914   1.959   1.985   1.993   1.999   2.033   2.061
  2.092   2.110   2.176   2.193   2.213   2.266   2.278   2.346
  2.393   2.411   2.508   2.600   2.642   2.649   2.667   2.740
  2.757   2.810   2.835   2.916   2.935   2.941   2.972   3.116
  3.377   3.395   3.535   3.592   4.063   4.212   4.296   4.307
  4.379   4.530   4.757
 --------------------------------------------------------------
 
          Ground-State Mulliken Net Atomic Charges

     Atom                 Charge (a.u.)
  ----------------------------------------
      1 Li                    0.767508
      2 C                    -0.157821
      3 O                    -0.529316
      4 C                    -0.143488
      5 S                     1.795722
      6 O                    -0.536259
      7 O                    -0.593138
      8 O                    -0.590149
      9 H                     0.256239
     10 H                     0.237995
     11 H                     0.237822
     12 H                     0.254885
  ----------------------------------------
  Sum of atomic charges =     1.000000

 -----------------------------------------------------------------
                    Cartesian Multipole Moments
 -----------------------------------------------------------------
    Charge (ESU x 10^10)
                 4.8032
    Dipole Moment (Debye)
         X       3.4514      Y       0.1572      Z      -0.2449
       Tot       3.4636
    Quadrupole Moments (Debye-Ang)
        XX       6.3386     XY       0.4594     YY     -46.1850
        XZ      -0.6041     YZ       0.3652     ZZ     -50.3706
    Octopole Moments (Debye-Ang^2)
       XXX     111.1892    XXY       1.7501    XYY      -2.2989
       YYY       1.0861    XXZ      -2.8319    XYZ       2.9183
       YYZ      -0.7848    XZZ      -6.5305    YZZ       0.1546
       ZZZ      -2.2363
    Hexadecapole Moments (Debye-Ang^3)
      XXXX       2.0355   XXXY       4.5713   XXYY     -97.3557
      XYYY      -0.4616   YYYY    -189.1386   XXXZ      -8.3253
      XXYZ       8.4369   XYYZ      -0.3307   YYYZ      -0.0912
      XXZZ    -110.4513   XYZZ       0.2477   YYZZ     -55.4838
      XZZZ      -1.1846   YZZZ       0.9270   ZZZZ    -161.3213
 -----------------------------------------------------------------
 Calculating analytic gradient of the SCF energy
 Gradient of CDS energy
            1           2           3           4           5           6
    1   0.0000599  -0.0004847   0.0001893  -0.0004347  -0.0000234   0.0001875
    2   0.0000014   0.0010598  -0.0001511  -0.0010695   0.0000234   0.0001556
    3  -0.0000024  -0.0000318  -0.0000907   0.0000798  -0.0000377   0.0000855
            7           8           9          10          11          12
    1  -0.0001285  -0.0001332   0.0001844   0.0002447   0.0001511   0.0001876
    2  -0.0000281   0.0000239  -0.0001056  -0.0001278   0.0001235   0.0000945
    3   0.0000954  -0.0000898   0.0000374   0.0000503  -0.0000777  -0.0000183
 Gradient of SCF Energy
            1           2           3           4           5           6
    1   0.0059507   0.0414008  -0.0266243   0.0441580  -0.0055885  -0.0260872
    2   0.0001453  -0.0308662   0.0237948   0.0280133  -0.0008055  -0.0237681
    3  -0.0000666   0.0198624   0.0049368  -0.0153852   0.0006505  -0.0056171
            7           8           9          10          11          12
    1   0.0191222   0.0210795  -0.0317352  -0.0041997  -0.0073375  -0.0301388
    2   0.0147950  -0.0141780   0.0172238   0.0139381  -0.0116334  -0.0166591
    3  -0.0413900   0.0407917   0.0296948  -0.0403302   0.0382341  -0.0313812
 Max gradient component =       4.416E-02
 RMS gradient           =       2.423E-02
 Computing VTN gradient.
 Updating gradient with PCM contributions...
 -- total gradient after adding PCM contribution --
---------------------------------------------------
  Atom         X              Y              Z     
---------------------------------------------------
   1      -0.000157       0.000103       0.000098
   2      -0.000109       0.000050       0.000035
   3       0.000063      -0.000051       0.000057
   4      -0.000000      -0.000005       0.000003
   5      -0.000071      -0.000083      -0.000126
   6       0.000050       0.000071      -0.000124
   7      -0.000068       0.000087       0.000052
   8       0.000179      -0.000061      -0.000205
   9       0.000019      -0.000066       0.000143
  10       0.000086       0.000005       0.000177
  11       0.000028      -0.000099      -0.000065
  12      -0.000019       0.000048      -0.000045
---------------------------------------------------
 Number of fixed atoms: 0
 Gradient time:  CPU 77.06 s  wall 3.47 s
 ----------------------------------------------------------------
             Standard Nuclear Orientation (Angstroms)
    I     Atom           X                Y                Z
 ----------------------------------------------------------------
    1      Li      3.1287087323     0.0337017459    -0.0421680295
    2      C      -1.8520932069     0.7558007462    -0.0147544007
    3      O      -0.5108094952     1.0862325813     0.4895977353
    4      C      -1.8658586344    -0.7608088831     0.0050016498
    5      S       0.5219863072    -0.0084878203     0.0231078458
    6      O      -0.5035583450    -1.1221598262    -0.4144864310
    7      O       1.3260580034     0.4034265730    -1.1245745088
    8      O       1.3681262444    -0.4027111751     1.1442691824
    9      H      -2.5584967557     1.2004576332     0.6813199554
   10      H      -1.9465430167     1.1745010127    -1.0151483297
   11      H      -2.0300758311    -1.1660708886     0.9985613727
   12      H      -2.5390164635    -1.1937754378    -0.7303969309
 ----------------------------------------------------------------
 Nuclear Repulsion Energy =   484.3219161202 hartrees
 There are       33 alpha and       33 beta electrons
 Discretize the solute cavity surface with Lebedev spheres
	Using 302 Lebedev grid points for each H atom
	Using 302 Lebedev grid points for other atoms
	Atomic van der Waals radii will be scaled by 1.20
 Removing interior tesserae...
 Keep 1147 surface tesserae and discard 2477 interior tesserae
 Molecular Surface Area = 164.708 Angst**2

                       Distance Matrix (Angstroms)
             Li(  1)   C (  2)   O (  3)   C (  4)   S (  5)   O (  6)
   C (  2)  5.032948
   O (  3)  3.825793  1.470578
   C (  4)  5.057586  1.516801  2.341485
   S (  5)  2.607881  2.494358  1.575656  2.503621
   O (  6)  3.829883  2.346288  2.386298  1.470512  1.575911
   O (  7)  2.134912  3.384747  2.538869  3.580463  1.460609  2.485787
   O (  8)  2.167427  3.613212  2.485145  3.447437  1.458893  2.539789
   H (  9)  5.850561  1.086851  2.059813  2.187172  3.374043  3.289090
   H ( 10)  5.292097  1.088586  2.081678  2.189210  2.927640  2.778066
   H ( 11)  5.397743  2.179926  2.764070  1.085525  2.967243  2.080598
   H ( 12)  5.839817  2.187431  3.286403  1.086928  3.367850  2.061072
             O (  7)   O (  8)   H (  9)   H ( 10)   H ( 11)
   O (  8)  2.408169
   H (  9)  4.357325  4.266479
   H ( 10)  3.363993  4.258840  1.803653
   H ( 11)  4.270206  3.485933  2.445471  3.088735
   H ( 12)  4.200623  4.405215  2.779510  2.457812  1.802522
 
 Requested basis set is 6-31++G(d,p)
 There are 57 shells and 180 basis functions
 A cutoff of  1.0D-12 yielded   1574 shell pairs
 There are     16206 function pairs
 Smallest overlap matrix eigenvalue = 1.31E-04

 -----------------------------------------------------------------------
  General SCF calculation program by
  Eric Jon Sundstrom, Paul Horn, Yuezhi Mao, Dmitri Zuev, Alec White,
  David Stuck, Shaama M.S., Shane Yost, Joonho Lee, David Small,
  Daniel Levine, Susi Lehtola, Hugh Burton, Evgeny Epifanovsky
 -----------------------------------------------------------------------
 Exchange:     0.2220 Hartree-Fock + 1.0000 wB97X-D + LR-HF
 Correlation:  1.0000 wB97X-D
 Using SG-3 standard quadrature grid
 Dispersion:   Grimme D
 using 32 threads for integral computing
 -------------------------------------------------------
 OpenMP Integral computing Module                
 Release: version 1.0, May 2013, Q-Chem Inc. Pittsburgh 
 -------------------------------------------------------
 using 32 threads for integral computing
 -------------------------------------------------------
 OpenMP Integral computing Module                
 Release: version 1.0, May 2013, Q-Chem Inc. Pittsburgh 
 -------------------------------------------------------
 -------------------------------------------------------
 OpenMP BLAS3 based DFT computing Module                
 Release: version 1.0, May 2013, Q-Chem Inc. Pittsburgh 
 -------------------------------------------------------
 A restricted SCF calculation will be
 performed using DIIS, GDM
 SCF converges when RMS gradient is below 1.0e-08
 ---------------------------------------
  Cycle       Energy         DIIS error
 ---------------------------------------
    1    -784.9336069715      2.10e-06  
    2    -784.9336062626      9.76e-07  Done DIIS. Switching to GDM
 ---------------------------------------
  Cycle       Energy        RMS Gradient
 ---------------------------------------
    1    -784.9336062626      2.00e-05   Normal BFGS step
    2    -784.9336062631      2.13e-05   Normal BFGS step
    3    -784.9336062675      1.91e-06   Normal BFGS step
    4    -784.9336062676      6.39e-07   Normal BFGS step
    5    -784.9336062676      2.08e-07   Normal BFGS step
    6    -784.9336062676      1.96e-07   Normal BFGS step
    7    -784.9336062676      1.14e-08   Normal BFGS step
    8    -784.9336062676      7.13e-09  Convergence criterion met
 ---------------------------------------
 SCF time:   CPU 354.77s  wall 13.00s 
(0)  E-EN(g) gas-phase elect-nuc energy                    0.000000000 a.u.
(3)  G-ENP(liq) elect-nuc-pol free energy of system     -784.933606268 a.u.
(4)  G-CDS(liq) cavity-dispersion-solvent structure 
     free energy                                               -0.3959 kcal/mol
(6)  G-S(liq) free energy of system                     -784.934237177 a.u.
(9)  DeltaG-S(liq) free energy of  solvation
     (9) = (6) - (0)                                      -492553.6679 kcal/mol
 SCF   energy in the final basis set =     -784.9336062676
 Total energy in the final basis set =     -784.9342371767
 
 --------------------------------------------------------------
 
                    Orbital Energies (a.u.)
 --------------------------------------------------------------
 
 Alpha MOs
 -- Occupied --
-89.382 -19.389 -19.389 -19.346 -19.345 -10.399 -10.399  -8.366
 -6.318  -6.317  -6.315  -2.163  -1.354  -1.228  -1.208  -1.177
 -0.927  -0.815  -0.779  -0.678  -0.672  -0.637  -0.623  -0.593
 -0.572  -0.540  -0.523  -0.510  -0.490  -0.487  -0.486  -0.441
 -0.429
 -- Virtual --
  0.008   0.017   0.017   0.019   0.042   0.062   0.066   0.068
  0.070   0.085   0.089   0.090   0.093   0.115   0.121   0.133
  0.135   0.135   0.140   0.149   0.171   0.175   0.179   0.195
  0.203   0.204   0.212   0.216   0.216   0.220   0.239   0.248
  0.265   0.272   0.276   0.278   0.293   0.306   0.320   0.342
  0.346   0.351   0.354   0.364   0.383   0.392   0.404   0.405
  0.415   0.422   0.427   0.444   0.471   0.501   0.568   0.581
  0.609   0.644   0.666   0.675   0.685   0.732   0.744   0.766
  0.770   0.783   0.828   0.849   0.865   0.903   1.014   1.019
  1.063   1.103   1.114   1.133   1.142   1.174   1.182   1.238
  1.247   1.251   1.307   1.321   1.331   1.377   1.382   1.405
  1.409   1.425   1.448   1.490   1.493   1.521   1.585   1.641
  1.656   1.667   1.695   1.756   1.797   1.838   1.847   1.862
  1.904   1.914   1.959   1.985   1.993   1.999   2.033   2.061
  2.092   2.110   2.176   2.193   2.213   2.266   2.278   2.346
  2.393   2.411   2.508   2.600   2.642   2.649   2.667   2.740
  2.757   2.810   2.835   2.916   2.935   2.941   2.972   3.116
  3.377   3.395   3.535   3.592   4.063   4.212   4.296   4.307
  4.379   4.530   4.757
 --------------------------------------------------------------
 
          Ground-State Mulliken Net Atomic Charges

     Atom                 Charge (a.u.)
  ----------------------------------------
      1 Li                    0.767506
      2 C                    -0.157878
      3 O                    -0.529305
      4 C                    -0.143435
      5 S                     1.795734
      6 O                    -0.536270
      7 O                    -0.593152
      8 O                    -0.590141
      9 H                     0.256238
     10 H                     0.237996
     11 H                     0.237821
     12 H                     0.254886
  ----------------------------------------
  Sum of atomic charges =     1.000000

 -----------------------------------------------------------------
                    Cartesian Multipole Moments
 -----------------------------------------------------------------
    Charge (ESU x 10^10)
                 4.8032
    Dipole Moment (Debye)
         X       3.4513      Y       0.1614      Z      -0.2407
       Tot       3.4635
    Quadrupole Moments (Debye-Ang)
        XX       6.3386     XY       0.4736     YY     -46.1847
        XZ      -0.5903     YZ       0.3652     ZZ     -50.3710
    Octopole Moments (Debye-Ang^2)
       XXX     111.1889    XXY       1.7951    XYY      -2.2979
       YYY       1.0838    XXZ      -2.7880    XYZ       2.9181
       YYZ      -0.7852    XZZ      -6.5318    YZZ       0.1537
       ZZZ      -2.2391
    Hexadecapole Moments (Debye-Ang^3)
      XXXX       2.0352   XXXY       4.7110   XXYY     -97.3526
      XYYY      -0.4671   YYYY    -189.1387   XXXZ      -8.1875
      XXYZ       8.4364   XYYZ      -0.3321   YYYZ      -0.0912
      XXZZ    -110.4554   XYZZ       0.2458   YYZZ     -55.4837
      XZZZ      -1.1913   YZZZ       0.9270   ZZZZ    -161.3210
 -----------------------------------------------------------------
 Calculating analytic gradient of the SCF energy
 Gradient of CDS energy
            1           2           3           4           5           6
    1   0.0000599  -0.0004847   0.0001893  -0.0004347  -0.0000234   0.0001875
    2   0.0000014   0.0010598  -0.0001511  -0.0010695   0.0000234   0.0001556
    3  -0.0000024  -0.0000318  -0.0000907   0.0000798  -0.0000377   0.0000855
            7           8           9          10          11          12
    1  -0.0001285  -0.0001332   0.0001844   0.0002447   0.0001511   0.0001876
    2  -0.0000281   0.0000239  -0.0001056  -0.0001278   0.0001235   0.0000945
    3   0.0000954  -0.0000898   0.0000374   0.0000503  -0.0000777  -0.0000183
 Gradient of SCF Energy
            1           2           3           4           5           6
    1   0.0059513   0.0414011  -0.0266222   0.0441574  -0.0055842  -0.0260899
    2   0.0001577  -0.0308658   0.0237968   0.0280135  -0.0008025  -0.0237660
    3  -0.0000604   0.0198618   0.0049315  -0.0153856   0.0006940  -0.0056222
            7           8           9          10          11          12
    1   0.0191215   0.0210764  -0.0317354  -0.0041999  -0.0073372  -0.0301388
    2   0.0147843  -0.0141891   0.0172242   0.0139386  -0.0116330  -0.0166587
    3  -0.0414108   0.0407717   0.0296956  -0.0403297   0.0382347  -0.0313804
 Max gradient component =       4.416E-02
 RMS gradient           =       2.423E-02
 Computing VTN gradient.
 Updating gradient with PCM contributions...
 -- total gradient after adding PCM contribution --
---------------------------------------------------
  Atom         X              Y              Z     
---------------------------------------------------
   1      -0.000156       0.000105       0.000099
   2      -0.000109       0.000050       0.000034
   3       0.000064      -0.000051       0.000053
   4      -0.000000      -0.000006       0.000003
   5      -0.000069      -0.000077      -0.000096
   6       0.000048       0.000072      -0.000128
   7      -0.000067       0.000083       0.000041
   8       0.000175      -0.000065      -0.000216
   9       0.000019      -0.000066       0.000143
  10       0.000086       0.000005       0.000177
  11       0.000028      -0.000099      -0.000065
  12      -0.000019       0.000048      -0.000045
---------------------------------------------------
 Number of fixed atoms: 0
 Gradient time:  CPU 77.10 s  wall 3.41 s
 ----------------------------------------------------------------
             Standard Nuclear Orientation (Angstroms)
    I     Atom           X                Y                Z
 ----------------------------------------------------------------
    1      Li      3.1287087323     0.0337017459    -0.0441680295
    2      C      -1.8520932069     0.7558007462    -0.0147544007
    3      O      -0.5108094952     1.0862325813     0.4895977353
    4      C      -1.8658586344    -0.7608088831     0.0050016498
    5      S       0.5219863072    -0.0084878203     0.0231078458
    6      O      -0.5035583450    -1.1221598262    -0.4144864310
    7      O       1.3260580034     0.4034265730    -1.1245745088
    8      O       1.3681262444    -0.4027111751     1.1442691824
    9      H      -2.5584967557     1.2004576332     0.6813199554
[...]
     6    1.084435510119910e-02   5.707277546814441e-03   8.113100249012968e-03
     7    6.017674437141429e-04   6.911784482189319e-04  -4.146505860294144e-04
     8    1.043661549263278e-03   5.395801852661898e-04   1.024069243675644e-03
     9   -9.755547380156352e-05   3.736161563827994e-05   1.833224378150693e-04
    10    2.908658672777767e-04  -2.008775022928195e-04   5.372214562271290e-04
    11   -1.623051035994701e-02  -1.104089710068405e-02  -1.264594333528139e-02
    12    1.276587682954152e-01   8.632621378358393e-02   1.949294934508762e-01




 # Finishing finite difference calculation for IDERIV #
 ######################################################
 ######################################################
 Requested basis set is 6-31++G(d,p)
 There are 57 shells and 180 basis functions
 **********************************************************************
 **                                                                  **
 **                       VIBRATIONAL ANALYSIS                       **
 **                       --------------------                       **
 **                                                                  **
 **        VIBRATIONAL FREQUENCIES (CM**-1) AND NORMAL MODES         **
 **     FORCE CONSTANTS (mDYN/ANGSTROM) AND REDUCED MASSES (AMU)     **
 **                  INFRARED INTENSITIES (KM/MOL)                   **
 **                                                                  **
 **********************************************************************
 

 Mode:                 1                      2                      3
 Frequency:       -16.32                  73.25                 211.10
 Force Cnst:      0.0013                 0.0232                 0.1411
 Red. Mass:       8.2976                 7.3522                 5.3742
 IR Active:          YES                    YES                    YES
 IR Intens:       73.027                100.278                 34.170
 Raman Active:       YES                    YES                    YES
               X      Y      Z        X      Y      Z        X      Y      Z
 Li        -0.042 -0.223  0.886    0.000  0.851  0.208    0.004  0.003  0.109
 C          0.001 -0.013  0.076    0.069  0.103  0.025   -0.084 -0.089  0.154
 O          0.017 -0.024  0.043    0.101 -0.022 -0.010    0.026  0.110 -0.198
 C         -0.003 -0.014  0.071   -0.071  0.104  0.017    0.079 -0.081  0.267
 S         -0.001  0.033 -0.125    0.001 -0.118 -0.027   -0.003  0.025 -0.063
 O         -0.010 -0.023  0.051   -0.099 -0.029  0.006   -0.031  0.110 -0.194
 O         -0.117  0.047 -0.176    0.000 -0.145 -0.039    0.190 -0.007  0.056
 O          0.130  0.055 -0.188   -0.001 -0.130 -0.032   -0.184 -0.101  0.027
 H          0.021 -0.006  0.091    0.124  0.157  0.047    0.019 -0.039  0.223
 H         -0.007 -0.018  0.078    0.063  0.122  0.031   -0.177 -0.275  0.116
 H          0.012 -0.020  0.068   -0.091  0.108  0.016    0.368 -0.104  0.295
 H         -0.017 -0.004  0.079   -0.115  0.170  0.019   -0.099 -0.167  0.480
 TransDip  -0.031 -0.058  0.266    0.001  0.310  0.081   -0.007 -0.076  0.171

 Mode:                 4                      5                      6
 Frequency:       298.36                 318.01                 420.14
 Force Cnst:      0.5364                 0.4224                 0.3314
 Red. Mass:      10.2276                 7.0886                 3.1868
 IR Active:          YES                    YES                    YES
 IR Intens:        1.080                264.045                 33.061
 Raman Active:       YES                    YES                    YES
               X      Y      Z        X      Y      Z        X      Y      Z
 Li        -0.037  0.010 -0.019    0.968 -0.005  0.026   -0.031 -0.001 -0.007
 C          0.035  0.006 -0.219   -0.075 -0.004  0.010   -0.139 -0.003  0.195
 O          0.014  0.115 -0.237   -0.078 -0.004 -0.005    0.005  0.053 -0.127
 C         -0.007  0.024  0.122   -0.078 -0.003 -0.001   -0.104 -0.049 -0.164
 S         -0.002 -0.006  0.016   -0.012  0.006 -0.012    0.018  0.030 -0.018
 O          0.028 -0.141  0.321   -0.077 -0.004  0.030   -0.007 -0.024  0.152
 O         -0.063  0.412  0.128   -0.053  0.020 -0.024    0.143 -0.039  0.033
 O          0.026 -0.401 -0.146   -0.056 -0.015  0.004    0.048 -0.008 -0.047
 H          0.017  0.160 -0.335   -0.074 -0.005  0.014    0.008 -0.192  0.465
 H         -0.048 -0.162 -0.312   -0.086 -0.009  0.010   -0.194  0.135  0.312
 H         -0.071  0.131  0.193   -0.104 -0.005 -0.007   -0.329 -0.146 -0.271
 H          0.035 -0.120  0.168   -0.069  0.005 -0.014    0.074  0.144 -0.441
 TransDip  -0.013  0.009 -0.029    0.520  0.007 -0.005   -0.159  0.061 -0.071

 Mode:                 7                      8                      9
 Frequency:       454.89                 458.29                 513.44
 Force Cnst:      1.1469                 1.1541                 2.1068
 Red. Mass:       9.4067                 9.3266                13.5647
 IR Active:          YES                    YES                    YES
 IR Intens:       42.699                 26.578                 64.603
 Raman Active:       YES                    YES                    YES
               X      Y      Z        X      Y      Z        X      Y      Z
 Li        -0.012 -0.032 -0.022   -0.001  0.052  0.023   -0.037  0.052 -0.090
 C         -0.086  0.037 -0.088   -0.209 -0.081 -0.203    0.051  0.001 -0.090
 O         -0.087 -0.245 -0.025   -0.201  0.072  0.089   -0.135 -0.175  0.411
 C         -0.264  0.097  0.159   -0.007 -0.034  0.031   -0.009  0.035  0.094
 S          0.018 -0.139 -0.052    0.010  0.141  0.130    0.002  0.154 -0.238
 O         -0.208 -0.010 -0.078   -0.023  0.264 -0.024    0.070 -0.065  0.317
 O          0.295  0.182  0.226    0.077 -0.291  0.016    0.407 -0.055 -0.094
 O          0.266  0.244 -0.076    0.312 -0.239 -0.197   -0.360 -0.071 -0.108
 H         -0.020  0.279 -0.171   -0.313 -0.000 -0.360   -0.133  0.079 -0.324
 H         -0.074 -0.052 -0.151   -0.148 -0.149 -0.272    0.141  0.039 -0.137
 H         -0.095  0.150  0.224    0.076  0.026  0.090   -0.066  0.116  0.144
 H         -0.337 -0.039  0.307    0.041 -0.281  0.130    0.074 -0.108  0.105
 TransDip  -0.178 -0.109 -0.000   -0.115  0.095  0.070   -0.012  0.154 -0.206

 Mode:                10                     11                     12
 Frequency:       664.74                 680.44                 804.09
 Force Cnst:      3.4926                 1.1626                 3.6250
 Red. Mass:      13.4151                 4.2619                 9.5159
 IR Active:          YES                    YES                    YES
 IR Intens:       24.322                  1.298                 12.888
 Raman Active:       YES                    YES                    YES
               X      Y      Z        X      Y      Z        X      Y      Z
 Li        -0.116 -0.004  0.006   -0.000  0.010 -0.014   -0.067 -0.002  0.002
 C         -0.168 -0.064 -0.042    0.233 -0.213 -0.023   -0.178  0.014 -0.020
 O         -0.005 -0.358 -0.134    0.164  0.081  0.048   -0.104  0.365  0.185
 C         -0.217  0.016  0.034   -0.193 -0.205  0.002   -0.190  0.001  0.031
 S          0.311  0.009  0.005   -0.009  0.078  0.014    0.197 -0.012 -0.009
 O         -0.051  0.380  0.121   -0.178  0.060  0.002   -0.059 -0.353 -0.165
 O         -0.121  0.118 -0.314    0.015  0.015  0.008    0.070  0.071 -0.203
 O         -0.087 -0.117  0.325   -0.005  0.024 -0.015    0.071 -0.069  0.199
 H          0.117  0.221  0.067    0.207  0.143 -0.291   -0.423 -0.051 -0.208
 H         -0.203 -0.094 -0.053    0.206 -0.412 -0.155   -0.121 -0.077 -0.073
 H         -0.266 -0.003  0.014   -0.365 -0.310 -0.103   -0.129 -0.005  0.034
 H          0.068 -0.198 -0.104   -0.182  0.165 -0.239   -0.390  0.129  0.125
 TransDip   0.158  0.003 -0.005    0.008  0.004 -0.035    0.112 -0.024  0.004

 Mode:                13                     14                     15
 Frequency:       841.49                 912.14                 924.81
 Force Cnst:      3.1983                 1.8633                 1.6567
 Red. Mass:       7.6661                 3.8011                 3.2877
 IR Active:          YES                    YES                    YES
 IR Intens:      294.303                 23.749                241.434
 Raman Active:       YES                    YES                    YES
               X      Y      Z        X      Y      Z        X      Y      Z
 Li        -0.001  0.013  0.009    0.001 -0.000  0.000    0.020  0.001 -0.001
 C         -0.054  0.039 -0.037    0.181  0.044  0.137   -0.161  0.145 -0.041
 O          0.123 -0.280 -0.112   -0.209 -0.050 -0.090    0.179  0.005  0.049
 C          0.035  0.045 -0.007   -0.176  0.042  0.097   -0.188 -0.150  0.028
 S          0.005  0.291  0.108   -0.003  0.036  0.020   -0.039  0.001  0.000
 O         -0.127 -0.313 -0.115    0.218 -0.040 -0.073    0.180 -0.004 -0.037
 O          0.001 -0.044 -0.014   -0.016 -0.043 -0.006   -0.017 -0.009  0.021
 O          0.006 -0.056  0.001    0.010 -0.035 -0.016   -0.020  0.009 -0.023
 H          0.322  0.096  0.301    0.147  0.493 -0.179    0.125  0.598 -0.034
 H          0.019  0.320  0.098    0.117 -0.350 -0.041   -0.046  0.153 -0.065
 H          0.080  0.171  0.093   -0.205 -0.133 -0.041   -0.040 -0.143  0.059
 H         -0.403  0.113  0.346   -0.089  0.481 -0.233    0.098 -0.617  0.035
 TransDip  -0.002  0.522  0.170    0.003  0.088  0.129   -0.498 -0.009  0.005

 Mode:                16                     17                     18
 Frequency:      1028.47                1048.07                1196.44
 Force Cnst:      2.0300                 0.9457                 2.5043
 Red. Mass:       3.2573                 1.4612                 2.9693
 IR Active:          YES                    YES                    YES
 IR Intens:      286.824                 46.530                323.445
 Raman Active:       YES                    YES                    YES
               X      Y      Z        X      Y      Z        X      Y      Z
 Li         0.014  0.000 -0.001   -0.001  0.001 -0.005   -0.018  0.001 -0.000
 C         -0.132 -0.219 -0.038   -0.115  0.024  0.029   -0.012 -0.036  0.107
 O          0.164 -0.016  0.022    0.037 -0.023  0.015   -0.015  0.015  0.002
 C         -0.101  0.223  0.035    0.135 -0.012  0.036   -0.008  0.038 -0.151
 S         -0.027 -0.001 -0.000    0.002 -0.004 -0.004    0.137  0.002 -0.010
 O          0.154  0.010 -0.010   -0.048 -0.020 -0.000   -0.021 -0.011  0.029
 O         -0.022 -0.012  0.026   -0.003  0.004  0.006   -0.103 -0.051  0.147
 O         -0.024  0.013 -0.026   -0.001  0.007 -0.002   -0.097  0.045 -0.128
 H         -0.312 -0.444 -0.080   -0.101  0.538 -0.281   -0.132  0.397 -0.286
 H         -0.103 -0.259 -0.049   -0.130 -0.340 -0.164   -0.019 -0.287 -0.029
 H         -0.088  0.196  0.011   -0.100 -0.161 -0.114    0.318  0.102 -0.049
 H         -0.273  0.561 -0.003    0.251  0.446 -0.335   -0.417 -0.293  0.407
 TransDip  -0.542  0.009 -0.019    0.063  0.152 -0.144    0.572  0.016 -0.065

 Mode:                19                     20                     21
 Frequency:      1208.46                1260.11                1277.17
 Force Cnst:      2.2736                 1.2658                 1.1374
 Red. Mass:       2.6424                 1.3530                 1.1835
 IR Active:          YES                    YES                    YES
 IR Intens:      171.938                 13.595                  7.146
 Raman Active:       YES                    YES                    YES
               X      Y      Z        X      Y      Z        X      Y      Z
 Li        -0.012 -0.001  0.001   -0.000  0.000  0.001    0.000 -0.002  0.003
 C         -0.006  0.070 -0.109    0.011 -0.087  0.020   -0.031 -0.025 -0.082
 O         -0.016  0.006  0.008   -0.008  0.018  0.014   -0.030  0.029  0.037
 C         -0.019 -0.062  0.158   -0.017  0.132  0.003    0.018 -0.011 -0.020
 S          0.115  0.006 -0.006    0.003  0.008  0.004    0.005 -0.019  0.005
 O         -0.010 -0.014 -0.045   -0.025 -0.038 -0.034    0.017  0.011  0.015
 O         -0.086 -0.046  0.122   -0.002 -0.003  0.005    0.003  0.002 -0.002
 O         -0.086  0.038 -0.110   -0.005  0.001 -0.008   -0.011  0.009 -0.013
 H          0.000 -0.485  0.256    0.296  0.127  0.159    0.688  0.181  0.499
 H         -0.020  0.313  0.029   -0.080 -0.250 -0.025   -0.208 -0.159 -0.083
 H         -0.419 -0.114  0.054   -0.192  0.203  0.024    0.113 -0.031 -0.021
 H          0.336  0.255 -0.351    0.620 -0.527 -0.175   -0.264  0.260  0.074
 TransDip   0.419 -0.001  0.028    0.106 -0.013  0.051    0.049 -0.067 -0.022

 Mode:                22                     23                     24
 Frequency:      1290.82                1405.44                1573.41
 Force Cnst:     18.0111                 1.4887                 1.6087
 Red. Mass:      18.3466                 1.2792                 1.1029
 IR Active:          YES                    YES                    YES
 IR Intens:      442.000                  1.817                  4.381
 Raman Active:       YES                    YES                    YES
               X      Y      Z        X      Y      Z        X      Y      Z
 Li        -0.000 -0.016  0.044    0.000  0.000 -0.001    0.000 -0.001  0.002
 C         -0.003  0.007  0.034   -0.038 -0.141 -0.006    0.003 -0.008 -0.014
 O          0.007 -0.005 -0.038   -0.024  0.026 -0.010    0.003  0.000 -0.002
 C          0.003 -0.002  0.001    0.020  0.012  0.020   -0.081  0.013  0.010
 S          0.030 -0.159  0.471    0.005 -0.010 -0.006    0.006  0.006  0.004
 O         -0.009  0.001 -0.026    0.005  0.004 -0.001   -0.022 -0.014  0.014
 O          0.268  0.158 -0.441   -0.004  0.000  0.006   -0.002 -0.004  0.003
 O         -0.315  0.164 -0.473   -0.002  0.003 -0.002   -0.004  0.001 -0.003
 H         -0.230 -0.008 -0.177    0.165  0.432 -0.164   -0.002 -0.030 -0.004
 H          0.081  0.070  0.037    0.343  0.711  0.300    0.017  0.061  0.016
 H         -0.056  0.030  0.019   -0.061  0.058  0.041    0.876 -0.120  0.066
 H          0.044 -0.044 -0.009    0.012  0.109 -0.024    0.252  0.115 -0.352
 TransDip   0.041 -0.215  0.637    0.002  0.042  0.009    0.021  0.058 -0.027

 Mode:                25                     26                     27
 Frequency:      1794.37                2050.47                3203.62
 Force Cnst:      2.1372                 2.6544                 6.5843
 Red. Mass:       1.1266                 1.0715                 1.0889
 IR Active:          YES                    YES                    YES
 IR Intens:       24.254                  8.276                  1.203
 Raman Active:       YES                    YES                    YES
               X      Y      Z        X      Y      Z        X      Y      Z
 Li         0.000  0.001  0.001   -0.000  0.003 -0.006    0.000  0.000  0.000
 C         -0.001  0.007  0.023   -0.063  0.009  0.039   -0.004  0.003  0.004
 O          0.000 -0.001  0.005   -0.006  0.001 -0.004    0.001  0.000  0.000
 C         -0.003 -0.088 -0.046    0.002 -0.001 -0.001   -0.053 -0.037 -0.056
 S          0.000 -0.001 -0.002    0.002 -0.001 -0.002    0.001  0.000  0.000
 O          0.005  0.008 -0.011   -0.005  0.002  0.004   -0.000  0.000  0.000
 O          0.000  0.005  0.003   -0.003  0.005 -0.000   -0.000  0.000  0.000
 O         -0.000 -0.004 -0.000    0.002 -0.002 -0.004   -0.000 -0.000  0.000
 H         -0.015  0.025  0.001    0.037 -0.086  0.232    0.047 -0.032 -0.048
 H         -0.029 -0.071 -0.006    0.818 -0.107 -0.501    0.001 -0.000 -0.003
 H         -0.013  0.747  0.592    0.010  0.001  0.002    0.005  0.018 -0.014
 H          0.006  0.164 -0.215    0.000 -0.000 -0.002    0.608  0.399  0.676
 TransDip   0.082 -0.001  0.135    0.043 -0.076  0.030   -0.009  0.005  0.034

 Mode:                28                     29                     30
 Frequency:      3207.89                4038.85                5844.70
 Force Cnst:      6.6092                10.4079                21.8112
 Red. Mass:       1.0901                 1.0829                 1.0837
 IR Active:          YES                    YES                    YES
 IR Intens:        1.595                  6.073                 11.686
 Raman Active:       YES                    YES                    YES
               X      Y      Z        X      Y      Z        X      Y      Z
 Li        -0.000 -0.000  0.000   -0.000  0.002 -0.004   -0.000 -0.001  0.000
 C          0.057 -0.037 -0.053   -0.030  0.037 -0.067   -0.000 -0.000 -0.002
 O          0.001  0.000  0.000   -0.001 -0.001  0.003    0.000  0.001 -0.003
 C         -0.004 -0.002 -0.005    0.001 -0.003  0.001    0.010  0.051 -0.064
 S         -0.000  0.000  0.000    0.000 -0.000 -0.001   -0.000  0.000 -0.000
 O         -0.000  0.000 -0.000   -0.003  0.001  0.002    0.000 -0.001  0.002
 O          0.000 -0.000  0.000   -0.002  0.003 -0.001    0.000 -0.003 -0.001
 O         -0.000  0.000  0.000    0.002 -0.001 -0.003   -0.000  0.002  0.001
 H         -0.639  0.410  0.640   -0.006 -0.000  0.028    0.001  0.002 -0.002
 H         -0.029  0.012 -0.014    0.415 -0.459  0.780    0.001 -0.003 -0.002
 H         -0.001  0.001 -0.003    0.003 -0.003 -0.002   -0.128 -0.596  0.788
 H          0.047  0.029  0.052    0.000  0.003  0.003    0.004  0.000  0.009
 TransDip   0.004  0.005  0.040   -0.047  0.022 -0.059    0.067 -0.085  0.018

 STANDARD THERMODYNAMIC QUANTITIES AT   298.15 K  AND     1.00 ATM

   This Molecule has  1 Imaginary Frequencies
   Zero point vibrational energy:       55.758 kcal/mol

   Atom    1 Element Li Has Mass    7.01600
   Atom    2 Element C  Has Mass   12.00000
   Atom    3 Element O  Has Mass   15.99491
   Atom    4 Element C  Has Mass   12.00000
   Atom    5 Element S  Has Mass   31.97207
   Atom    6 Element O  Has Mass   15.99491
   Atom    7 Element O  Has Mass   15.99491
   Atom    8 Element O  Has Mass   15.99491
   Atom    9 Element H  Has Mass    1.00783
   Atom   10 Element H  Has Mass    1.00783
   Atom   11 Element H  Has Mass    1.00783
   Atom   12 Element H  Has Mass    1.00783
   Molecular Mass:   130.999030 amu
   Principal axes and moments of inertia in amu*Bohr^2:
                             1           2           3
    Eigenvalues --      408.80028  1062.16219  1108.17814
          X               0.99999    -0.00461    -0.00027
          Y               0.00460     0.99935    -0.03564
          Z               0.00043     0.03564     0.99936
   Rotational Symmetry Number is   1
   The Molecule is an Asymmetric Top
   Translational Enthalpy:        0.889 kcal/mol
   Rotational Enthalpy:           0.889 kcal/mol
   Vibrational Enthalpy:         58.151 kcal/mol
   gas constant (RT):             0.592 kcal/mol
   Translational Entropy:        40.523  cal/mol.K
   Rotational Entropy:           27.667  cal/mol.K
   Vibrational Entropy:          13.597  cal/mol.K

   Total Enthalpy:               60.520 kcal/mol
   Total Entropy:                81.787  cal/mol.K
Archival summary:
1\1\nid01014\FREQ\ProcedureUnspecified\BasisUnspecified\142i14(1+,1)\sblau\FriDec2817:05:192018FriDec2817:05:192018\0\\#,FREQ,ProcedureUnspecified,BasisUnspecified,\\1,1\S\O,1,1.45889\O,1,1.46061,2,111.148\O,1,1.57566,2,109.9,3,-126.394,0\C,4,1.47058,1,109.889,2,-134.165,0\H,5,1.08685,4,106.334,1,153.023,0\H,5,1.08859,4,107.932,1,-86.622,0\C,5,1.5168,4,103.207,1,33.591,0\H,8,1.08553,5,112.742,4,78.4113,0\H,8,1.08693,5,113.272,4,-152.899,0\O,8,1.47051,5,103.508,4,-38.0656,0\Li,3,2.13441,1,91.0303,2,-0.14113,0\\\@

 Total job time:  1516.45s(wall), 38702.28s(cpu) 
 Fri Dec 28 17:05:19 2018

        *************************************************************
        *                                                           *
        *  Thank you very much for using Q-Chem.  Have a nice day.  *
        *                                                           *
        *************************************************************


