
Running Job 1 of 1 mol.qin
qchem mol.qin_20793.0 /tmp/chain_scratch/ 1
/global/common/cori/software/qchem/5.1/exe/qcprog.exe mol.qin_20793.0 /tmp/chain_scratch/
Check license passed

                  Welcome to Q-Chem
     A Quantum Leap Into The Future Of Chemistry


 Q-Chem 5.1, Q-Chem, Inc., Pleasanton, CA (2018)

 Yihan Shao,  Zhengting Gan,  E. Epifanovsky,  A. T. B. Gilbert,  M. Wormit,  
 J. Kussmann,  A. W. Lange,  A. Behn,  Jia Deng,  Xintian Feng,  D. Ghosh,  
 M. Goldey,  P. R. Horn,  L. D. Jacobson,  I. Kaliman,  T. Kus,  A. Landau,  
 Jie Liu,  E. I. Proynov,  R. M. Richard,  R. P. Steele,  E. J. Sundstrom,  
 H. L. Woodcock III,  P. M. Zimmerman,  D. Zuev,  B. Albrecht,  E. Alguire,  
 S. A. Baeppler,  D. Barton,  Z. Benda,  Y. A. Bernard,  E. J. Berquist,  
 K. B. Bravaya,  H. Burton,  D. Casanova,  Chun-Min Chang,  Yunqing Chen,  
 A. Chien,  K. D. Closser,  M. P. Coons,  S. Coriani,  S. Dasgupta,  
 A. L. Dempwolff,  M. Diedenhofen,  Hainam Do,  R. G. Edgar,  Po-Tung Fang,  
 S. Faraji,  S. Fatehi,  Qingguo Feng,  K. D. Fenk,  J. Fosso-Tande,  
 Qinghui Ge,  A. Ghysels,  G. Gidofalvi,  J. Gomes,  J. Gonthier,  A. Gunina,  
 D. Hait,  M. W. D. Hanson-Heine,  P. H. P. Harbach,  A. W. Hauser,  
 J. E. Herr,  E. G. Hohenstein,  Z. C. Holden,  Kerwin Hui,  B. C. Huynh,  
 T.-C. Jagau,  Hyunjun Ji,  B. Kaduk,  K. Khistyaev,  Jaehoon Kim,  
 P. Klunzinger,  K. Koh,  D. Kosenkov,  L. Koulias,  T. Kowalczyk,  
 C. M. Krauter,  A. Kunitsa,  Ka Un Lao,  A. Laurent,  K. V. Lawler,  
 Joonho Lee,  D. Lefrancois,  S. Lehtola,  D. S. Levine,  Yi-Pei Li,  
 You-Sheng Lin,  Fenglai Liu,  E. Livshits,  A. Luenser,  P. Manohar,  
 E. Mansoor,  S. F. Manzer,  Shan-Ping Mao,  Yuezhi Mao,  N. Mardirossian,  
 A. V. Marenich,  T. Markovich,  L. A. Martinez-Martinez,  S. A. Maurer,  
 N. J. Mayhall,  S. C. McKenzie,  J.-M. Mewes,  A. F. Morrison,  
 J. W. Mullinax,  K. Nanda,  T. S. Nguyen-Beck,  R. Olivares-Amaya,  
 J. A. Parkhill,  T. M. Perrine,  F. Plasser,  P. Pokhilko,  S. Prager,  
 A. Prociuk,  E. Ramos,  D. R. Rehn,  F. Rob,  M. Schneider,  N. Sergueev,  
 S. M. Sharada,  S. Sharma,  D. W. Small,  T. Stauch,  T. Stein,  
 Yu-Chuan Su,  A. J. W. Thom,  A. Tkatchenko,  T. Tsuchimochi,  N. M. Tubman,  
 L. Vogt,  M. L. Vidal,  O. Vydrov,  M. A. Watson,  J. Wenzel,  
 M. de Wergifosse,  T. A. Wesolowski,  A. White,  J. Witte,  A. Yamada,  
 Jun Yang,  K. Yao,  S. Yeganeh,  S. R. Yost,  Zhi-Qiang You,  A. Zech,  
 Igor Ying Zhang,  Xing Zhang,  Yan Zhao,  Ying Zhu,  B. R. Brooks,  
 G. K. L. Chan,  C. J. Cramer,  M. S. Gordon,  W. J. Hehre,  A. Klamt,  
 M. W. Schmidt,  C. D. Sherrill,  D. G. Truhlar,  A. Aspuru-Guzik,  R. Baer,  
 A. T. Bell,  N. A. Besley,  Jeng-Da Chai,  R. A. DiStasio Jr.,  A. Dreuw,  
 B. D. Dunietz,  T. R. Furlani,  Chao-Ping Hsu,  Yousung Jung,  Jing Kong,  
 D. S. Lambrecht,  WanZhen Liang,  C. Ochsenfeld,  V. A. Rassolov,  
 L. V. Slipchenko,  J. E. Subotnik,  T. Van Voorhis,  J. M. Herbert,  
 A. I. Krylov,  P. M. W. Gill,  M. Head-Gordon

 Contributors to earlier versions of Q-Chem not listed above: 
 R. D. Adamson,  B. Austin,  J. Baker,  G. J. O. Beran,  K. Brandhorst,  
 S. T. Brown,  E. F. C. Byrd,  A. K. Chakraborty,  C.-L. Cheng,  
 Siu Hung Chien,  D. M. Chipman,  D. L. Crittenden,  H. Dachsel,  
 R. J. Doerksen,  A. D. Dutoi,  L. Fusti-Molnar,  W. A. Goddard III,  
 A. Golubeva-Zadorozhnaya,  S. R. Gwaltney,  G. Hawkins,  A. Heyden,  
 S. Hirata,  G. Kedziora,  F. J. Keil,  C. Kelley,  Jihan Kim,  R. A. King,  
 R. Z. Khaliullin,  P. P. Korambath,  W. Kurlancheek,  A. M. Lee,  M. S. Lee,  
 S. V. Levchenko,  Ching Yeh Lin,  D. Liotard,  R. C. Lochan,  I. Lotan,  
 P. E. Maslen,  N. Nair,  D. P. O'Neill,  D. Neuhauser,  E. Neuscamman,  
 C. M. Oana,  R. Olson,  B. Peters,  R. Peverati,  P. A. Pieniazek,  
 Y. M. Rhee,  J. Ritchie,  M. A. Rohrdanz,  E. Rosta,  N. J. Russ,  
 H. F. Schaefer III,  N. E. Schultz,  N. Shenvi,  A. C. Simmonett,  A. Sodt,  
 D. Stuck,  K. S. Thanthiriwatte,  V. Vanovschi,  Tao Wang,  A. Warshel,  
 C. F. Williams,  Q. Wu,  X. Xu,  W. Zhang

 Please cite Q-Chem as follows:
 Y. Shao et al., Mol. Phys. 113, 184-215 (2015)
 DOI: 10.1080/00268976.2014.952696

 Q-Chem 5.1.0 for Intel X86 EM64T Linux

 Parts of Q-Chem use Armadillo 8.300.2 (Tropical Shenanigans).
 http://arma.sourceforge.net/

 Q-Chem begins on Fri Dec 28 14:55:19 2018  

Host: cori08
0

     Scratch files written to /tmp/chain_scratch//
 Jun2518 |scratch|qcdevops|jenkins|workspace|build_RNUM -1
Processing $rem in /global/common/cori/software/qchem/5.1/config/preferences.
 MEM_TOTAL  96000 
Symmetry turned off for PCM/SM12/SMD calculation

Checking the input file for inconsistencies... 	...done.

--------------------------------------------------------------
User input:
--------------------------------------------------------------
$molecule
1 1
Li      3.1203755191     -0.0654620597      0.1309288714
C     -1.8690128951      0.7580298858     -0.0069609776
O     -0.5071900168      1.1257319180      0.4093124826
C     -1.8469507834     -0.7585898548      0.0118808414
S      0.5227336572      0.0223401369     -0.0435209308
O     -0.5058252930     -1.0817980583     -0.4969830896
O      1.3572717615      0.4207627784     -1.1692541929
O      1.3382203748     -0.3846747293      1.1009671249
H     -2.5426908864      1.1864654442      0.7308976770
H     -2.0372200619      1.1634118960     -0.9997619598
H     -1.9382008671     -1.1782793954      1.0131613565
H     -2.5530829701     -1.2078317001     -0.6813380921
$end

$rem
job_type = opt
basis = 6-31++g**
max_scf_cycles = 200
gen_scfman = true
xc_grid = 3
scf_algorithm = diis_gdm
method = wb97xd
geom_opt_max_cycles = 200
solvent_method = smd
ideriv = 1
scf_guess = read
geom_opt_hessian = read
$end

$smx
solvent acetonitrile
$end
--------------------------------------------------------------
 ----------------------------------------------------------------
             Standard Nuclear Orientation (Angstroms)
    I     Atom           X                Y                Z
 ----------------------------------------------------------------
    1      Li      3.1203755191    -0.0654620597     0.1309288714
    2      C      -1.8690128951     0.7580298858    -0.0069609776
    3      O      -0.5071900168     1.1257319180     0.4093124826
    4      C      -1.8469507834    -0.7585898548     0.0118808414
    5      S       0.5227336572     0.0223401369    -0.0435209308
    6      O      -0.5058252930    -1.0817980583    -0.4969830896
    7      O       1.3572717615     0.4207627784    -1.1692541929
    8      O       1.3382203748    -0.3846747293     1.1009671249
    9      H      -2.5426908864     1.1864654442     0.7308976770
   10      H      -2.0372200619     1.1634118960    -0.9997619598
   11      H      -1.9382008671    -1.1782793954     1.0131613565
   12      H      -2.5530829701    -1.2078317001    -0.6813380921
 ----------------------------------------------------------------
 Nuclear Repulsion Energy =   484.3550519192 hartrees
 There are       33 alpha and       33 beta electrons
 Requested basis set is 6-31++G(d,p)
 There are 57 shells and 180 basis functions

 Total QAlloc Memory Limit  96000 MB
 Mega-Array Size       188 MB
 MEM_STATIC part       192 MB
 A cutoff of  1.0D-12 yielded   1574 shell pairs
 There are     16206 function pairs
 
 -------------------------------------------------------
 OpenMP Integral Computing Module                       
 Release: version 1.0, May 2013, Q-Chem Inc. Pittsburgh 
 -------------------------------------------------------
 Integral Job Info:
 Integral job number is                      11
 Integral operator is                         1
 short-range coefficients              22203600
 long-range coefficients              100000000
 Omega coefficients                         200
 if combine SR and LR in K                    1
 Integral screening is                        0
 Integral computing path is                   2
 max size of driver memory is            800000
 size of driver memory is                593474
 size of scratch memory is             15604072
 max col of scratch BK array               1296
 max len of scratch array in speh3          155
 max len of scratch index in speh4           18
 max int batch size is                      520
 min int batch size is                       52
 fixed nKL is                                52
 max L of basis functions is                  2
 order of int derivative is                   0
 number of shells is                         57
 number of basis is                         180
 number of cartesian basis is               180
 number of contracted shell pairs          1574
 number of primitive shell pairs           5390
 maxK2 (contraction) of shell pair           36
 max number of K2 of shell pair               1
 max number of CS2 of shell pair            176
 max number of PS2 of shell pair           1056
 mem total for path MDJ                  537180
 -------------------------------------------------------
 Smallest overlap matrix eigenvalue = 1.31E-04

 Scale SEOQF with 1.000000e-02/1.000000e-02/1.000000e-02

 Standard Electronic Orientation quadrupole field applied
 Nucleus-field energy     =     0.0000000004 hartrees

 -----------------------------------------------------------------------
  General SCF calculation program by
  Eric Jon Sundstrom, Paul Horn, Yuezhi Mao, Dmitri Zuev, Alec White,
  David Stuck, Shaama M.S., Shane Yost, Joonho Lee, David Small,
  Daniel Levine, Susi Lehtola, Hugh Burton, Evgeny Epifanovsky
 -----------------------------------------------------------------------
 Exchange:     0.2220 Hartree-Fock + 1.0000 wB97X-D + LR-HF
 Correlation:  1.0000 wB97X-D
 Using SG-3 standard quadrature grid
 Dispersion:   Grimme D
 
 Citation of the SMD model:
 Marenich, A.V.; Cramer, C.J.; Truhlar, D.G.
 J. Phys. Chem. B 2009, 113, 6378-6396.
 iSolventCode=          53
 Solvent: acetonitrile                                                    
 
 vradii
            1           2           3           4           5           6
    1   2.1476001   1.8500000   2.1680000   1.8500000   2.4900000   2.1680000
            7           8           9          10          11          12
    1   2.1680000   2.1680000   1.2000000   1.2000000   1.2000000   1.2000000
Changing PCM_TESSEL_METHOD to VTN
Changing PCM_VDW_RADII to SMD_RADIUS
 Discretize the solute cavity surface with Lebedev spheres
	Using 302 Lebedev grid points for each H atom
	Using 302 Lebedev grid points for other atoms
	Atomic van der Waals radii will be scaled by 1.20
 Removing interior tesserae...
 Keep 1139 surface tesserae and discard 2485 interior tesserae
 Molecular Surface Area = 163.578 Angst**2
 
 Citation of the SMD model:
 Marenich, A.V.; Cramer, C.J.; Truhlar, D.G.
 J. Phys. Chem. B 2009, 113, 6378-6396.
 iSolventCode=          53
 Solvent: acetonitrile                                                    
 
 vradii
            1           2           3           4           5           6
    1   2.1476001   1.8500000   2.1680000   1.8500000   2.4900000   2.1680000
            7           8           9          10          11          12
    1   2.1680000   2.1680000   1.2000000   1.2000000   1.2000000   1.2000000
 
 Citation of the SMD model:
 Marenich, A.V.; Cramer, C.J.; Truhlar, D.G.
 J. Phys. Chem. B 2009, 113, 6378-6396.
 iSolventCode=          53
 Solvent: acetonitrile                                                    
 
 vradii
            1           2           3           4           5           6
    1   2.1476001   1.8500000   2.1680000   1.8500000   2.4900000   2.1680000
            7           8           9          10          11          12
    1   2.1680000   2.1680000   1.2000000   1.2000000   1.2000000   1.2000000
 using 32 threads for integral computing
 -------------------------------------------------------
 OpenMP Integral computing Module                
 Release: version 1.0, May 2013, Q-Chem Inc. Pittsburgh 
 -------------------------------------------------------
 using 32 threads for integral computing
 -------------------------------------------------------
 OpenMP Integral computing Module                
 Release: version 1.0, May 2013, Q-Chem Inc. Pittsburgh 
 -------------------------------------------------------
 -------------------------------------------------------
 OpenMP BLAS3 based DFT computing Module                
 Release: version 1.0, May 2013, Q-Chem Inc. Pittsburgh 
 -------------------------------------------------------
 A restricted SCF calculation will be
 performed using DIIS, GDM
 SCF converges when RMS gradient is below 1.0e-08
 ---------------------------------------
  Cycle       Energy         DIIS error
 ---------------------------------------
    1    -784.8385215069      4.04e-04  
    2    -784.9322098529      4.44e-04  Done DIIS. Switching to GDM
 ---------------------------------------
  Cycle       Energy        RMS Gradient
 ---------------------------------------
    1    -784.9322098529      6.51e-03   Normal BFGS step
    2    -784.9331774889      2.89e-03   Normal BFGS step
    3    -784.9334244161      1.12e-03   Normal BFGS step
    4    -784.9334657599      6.34e-04   Normal BFGS step
    5    -784.9334707967      2.93e-04   Normal BFGS step
    6    -784.9334725358      1.15e-04   Normal BFGS step
    7    -784.9334727307      5.67e-05   Normal BFGS step
    8    -784.9334727860      9.24e-06   Normal BFGS step
    9    -784.9334727883      8.03e-06   Normal BFGS step
   10    -784.9334727889      2.91e-06   Normal BFGS step
   11    -784.9334727891      8.66e-07   Normal BFGS step
   12    -784.9334727891      1.43e-07   Normal BFGS step
   13    -784.9334727891      3.33e-08   Normal BFGS step
   14    -784.9334727891      1.58e-08   Normal BFGS step
   15    -784.9334727891      1.41e-08   Normal BFGS step
   16    -784.9334727891      1.96e-09  Convergence criterion met
 ---------------------------------------
 SCF time:   CPU 657.52s  wall 25.00s 
(0)  E-EN(g) gas-phase elect-nuc energy                    0.000000000 a.u.
(3)  G-ENP(liq) elect-nuc-pol free energy of system     -784.933472789 a.u.
(4)  G-CDS(liq) cavity-dispersion-solvent structure 
     free energy                                               -0.3967 kcal/mol
(6)  G-S(liq) free energy of system                     -784.934104960 a.u.
(9)  DeltaG-S(liq) free energy of  solvation
     (9) = (6) - (0)                                      -492553.5850 kcal/mol
 SCF   energy in the final basis set =     -784.9334727891
 Total energy in the final basis set =     -784.9341049603
 
 --------------------------------------------------------------
 
                    Orbital Energies (a.u.)
 --------------------------------------------------------------
 
 Alpha MOs
 -- Occupied --
-89.382 -19.390 -19.389 -19.346 -19.345 -10.399 -10.399  -8.366
 -6.318  -6.317  -6.316  -2.163  -1.354  -1.228  -1.208  -1.178
 -0.927  -0.815  -0.779  -0.679  -0.672  -0.638  -0.623  -0.593
 -0.572  -0.540  -0.523  -0.511  -0.490  -0.488  -0.485  -0.441
 -0.429
 -- Virtual --
  0.008   0.017   0.017   0.019   0.042   0.062   0.066   0.068
  0.070   0.085   0.089   0.090   0.093   0.115   0.121   0.133
  0.135   0.135   0.140   0.148   0.172   0.175   0.179   0.195
  0.203   0.204   0.212   0.216   0.216   0.220   0.238   0.247
  0.264   0.274   0.275   0.279   0.292   0.308   0.320   0.343
  0.346   0.350   0.354   0.365   0.383   0.392   0.404   0.406
  0.415   0.421   0.428   0.445   0.471   0.501   0.567   0.581
  0.611   0.643   0.664   0.675   0.687   0.731   0.744   0.765
  0.770   0.789   0.827   0.850   0.865   0.903   1.013   1.019
  1.062   1.104   1.114   1.140   1.143   1.170   1.187   1.238
  1.248   1.251   1.307   1.321   1.333   1.374   1.381   1.404
  1.409   1.423   1.447   1.489   1.492   1.523   1.583   1.643
  1.655   1.666   1.694   1.755   1.799   1.830   1.846   1.861
  1.906   1.913   1.959   1.982   1.985   2.001   2.033   2.063
  2.107   2.129   2.176   2.193   2.213   2.266   2.279   2.345
  2.393   2.411   2.508   2.600   2.642   2.648   2.667   2.740
  2.757   2.810   2.834   2.915   2.935   2.940   2.972   3.116
  3.376   3.394   3.534   3.592   4.063   4.211   4.294   4.307
  4.378   4.530   4.756
 --------------------------------------------------------------
 
          Ground-State Mulliken Net Atomic Charges

     Atom                 Charge (a.u.)
  ----------------------------------------
      1 Li                    0.764500
      2 C                    -0.148499
      3 O                    -0.535622
      4 C                    -0.150615
      5 S                     1.791778
      6 O                    -0.529793
      7 O                    -0.586607
      8 O                    -0.592401
      9 H                     0.255277
     10 H                     0.237753
     11 H                     0.237766
     12 H                     0.256463
  ----------------------------------------
  Sum of atomic charges =     1.000000

 -----------------------------------------------------------------
                    Cartesian Multipole Moments
 -----------------------------------------------------------------
    Charge (ESU x 10^10)
                 4.8032
    Dipole Moment (Debye)
         X       3.4052      Y      -0.3227      Z       0.5959
       Tot       3.4720
    Quadrupole Moments (Debye-Ang)
        XX       6.0898     XY      -0.9025     YY     -46.1547
        XZ       1.7487     YZ       0.3322     ZZ     -50.3061
    Octopole Moments (Debye-Ang^2)
       XXX     109.9272    XXY      -3.5788    XYY      -2.2911
       YYY      -2.2345    XXZ       7.0863    XYZ       2.8089
       YYZ       1.3812    XZZ      -6.3462    YZZ      -0.6430
       ZZZ       4.1339
    Hexadecapole Moments (Debye-Ang^3)
      XXXX      -2.5163   XXXY      -9.9144   XXYY     -97.1336
      XYYY       0.0343   YYYY    -189.1047   XXXZ      20.6524
      XXYZ       8.1225   XYYZ       0.5554   YYYZ      -0.0654
      XXZZ    -109.7710   XYZZ      -0.6721   YYZZ     -55.5496
      XZZZ       1.7732   YZZZ       0.9583   ZZZZ    -161.7413
 -----------------------------------------------------------------
 Calculating analytic gradient of the SCF energy
 Gradient of CDS energy
            1           2           3           4           5           6
    1   0.0000591  -0.0004580   0.0001885  -0.0004697  -0.0000278   0.0001885
    2  -0.0000045   0.0010642  -0.0001531  -0.0010636  -0.0000187   0.0001537
    3   0.0000093  -0.0000574  -0.0000901   0.0000391   0.0000280   0.0000859
            7           8           9          10          11          12
    1  -0.0001353  -0.0001256   0.0001876   0.0001774   0.0002309   0.0001843
    2  -0.0000220   0.0000296  -0.0000950  -0.0001244   0.0001292   0.0001047
    3   0.0000872  -0.0000987   0.0000190   0.0000670  -0.0000527  -0.0000366
 Gradient of SCF Energy
            1           2           3           4           5           6
    1   0.0048798   0.0440372  -0.0262962   0.0420536  -0.0062502  -0.0265410
    2  -0.0004766  -0.0276574   0.0236024   0.0314246   0.0002922  -0.0238709
    3   0.0005476   0.0150097   0.0056971  -0.0207423   0.0010942  -0.0051341
            7           8           9          10          11          12
    1   0.0212284   0.0207556  -0.0303374  -0.0072813  -0.0045782  -0.0316703
    2   0.0146769  -0.0140518   0.0163997   0.0115712  -0.0142779  -0.0176324
    3  -0.0420649   0.0401602   0.0317103  -0.0379842   0.0410208  -0.0293145
 Max gradient component =       4.404E-02
 RMS gradient           =       2.435E-02
 Computing VTN gradient.
 Updating gradient with PCM contributions...
 -- total gradient after adding PCM contribution --
---------------------------------------------------
  Atom         X              Y              Z     
---------------------------------------------------
   1      -0.001063      -0.000276       0.000163
   2       0.000169      -0.000120       0.000086
   3       0.000002      -0.000031       0.000049
   4      -0.000215      -0.000128      -0.000246
   5      -0.000181      -0.000113       0.000390
   6       0.000058       0.000139      -0.000254
   7       0.000431       0.000180      -0.000109
   8       0.000763       0.000164      -0.000259
   9      -0.000140      -0.000058       0.000168
  10       0.000015       0.000244      -0.000046
  11       0.000087       0.000028       0.000029
  12       0.000075      -0.000029       0.000030
---------------------------------------------------
 Number of fixed atoms: 0
 Gradient time:  CPU 76.74 s  wall 3.46 s
 Geometry Optimization Parameters
   NAtoms,    NIC,     NZ,  NCons,   NDum,   NFix, NCnnct, MaxDiis
       12     104       0       0       0       0       0       0

 Cartesian Hessian read from HESS file


** GEOMETRY OPTIMIZATION IN DELOCALIZED INTERNAL COORDINATES **
   Searching for a Minimum

   Optimization Cycle:   1

                       Coordinates (Angstroms)
     ATOM                X               Y               Z
      1  Li        3.1203755191   -0.0654620597    0.1309288714
      2  C        -1.8690128951    0.7580298858   -0.0069609776
      3  O        -0.5071900168    1.1257319180    0.4093124826
      4  C        -1.8469507834   -0.7585898548    0.0118808414
      5  S         0.5227336572    0.0223401369   -0.0435209308
      6  O        -0.5058252930   -1.0817980583   -0.4969830896
      7  O         1.3572717615    0.4207627784   -1.1692541929
      8  O         1.3382203748   -0.3846747293    1.1009671249
      9  H        -2.5426908864    1.1864654442    0.7308976770
     10  H        -2.0372200619    1.1634118960   -0.9997619598
     11  H        -1.9382008671   -1.1782793954    1.0131613565
     12  H        -2.5530829701   -1.2078317001   -0.6813380921
   Point Group: c1    Number of degrees of freedom:    30


   Energy is   -784.934104960


 Attempting to Generate Delocalized Internal Coordinates

Intel MKL ERROR: Parameter 5 was incorrect on entry to DSYEVD.

Intel MKL ERROR: Parameter 5 was incorrect on entry to DSYEVD.
 Info = -5

 Q-Chem warning in module liblas/diagon.C, line 97:

 Call to dsyevd failed in Diagonalize


Intel MKL ERROR: Parameter 5 was incorrect on entry to DSYEV.

  ***ERROR*** Unable to Diagonalize B*B(t) in <MakeNIC>
**WARNING** Problems with Internal Coordinates
  Switching to Cartesian Coordinates

 Translations and Rotations Projected Out of Hessian

 30 Hessian modes will be used to form the next step
  Hessian Eigenvalues:
    -0.000481    0.001675    0.002357    0.006366    0.026823    0.042048
     0.047726    0.054877    0.070539    0.080039    0.085983    0.099531
     0.131534    0.140732    0.171302    0.189302    0.206607    0.251036
     0.290865    0.314221    0.453915    0.479577    0.577314    0.694229
     0.778819    0.922301    0.990120    1.249761    1.461005    2.207944
**WARNING** Hessian does not have the Desired Local Structure

 Minimum Search - Taking Simple RFO Step
 Searching for Lamda that Minimizes Along All modes
 Value Taken    Lamda =  -0.00055951
 Calculated Step too Large.  Step scaled by  0.129283
 Step Taken.  Stepsize is  0.300000

                             Maximum     Tolerance    Cnvgd?
         Gradient           0.001063      0.000300      NO
         Displacement       0.191771      0.001200      NO
         Energy change     *********      0.000001      NO

 ----------------------------------------------------------------
             Standard Nuclear Orientation (Angstroms)
    I     Atom           X                Y                Z
 ----------------------------------------------------------------
    1      Li      3.1257637470    -0.0381785208     0.0294481701
    2      C      -1.8642592083     0.7570644748    -0.0127012164
    3      O      -0.5167171153     1.1090132384     0.4587532690
    4      C      -1.8536956145    -0.7577576711     0.0112413661
    5      S       0.5189821155     0.0147701519    -0.0060595316
    6      O      -0.5060111441    -1.0886733782    -0.4727558387
    7      O       1.3431659084     0.4312512632    -1.1354003232
    8      O       1.3401632585    -0.4007335571     1.1279519184
    9      H      -2.5629199856     1.1981233007     0.6921181524
   10      H      -1.9759748358     1.1566373463    -1.0137445062
   11      H      -1.9603038128    -1.1749282314     1.0120075461
   12      H      -2.5497657741    -1.2064821550    -0.6915298950
 ----------------------------------------------------------------
 Nuclear Repulsion Energy =   484.5190908685 hartrees
 There are       33 alpha and       33 beta electrons
 Discretize the solute cavity surface with Lebedev spheres
	Using 302 Lebedev grid points for each H atom
	Using 302 Lebedev grid points for other atoms
	Atomic van der Waals radii will be scaled by 1.20
 Removing interior tesserae...
 Keep 1146 surface tesserae and discard 2478 interior tesserae
 Molecular Surface Area = 164.885 Angst**2
 Nucleus-field energy     =     0.0000000004 hartrees
 Requested basis set is 6-31++G(d,p)
 There are 57 shells and 180 basis functions
 A cutoff of  1.0D-12 yielded   1574 shell pairs
 There are     16206 function pairs
 Smallest overlap matrix eigenvalue = 1.30E-04

 -----------------------------------------------------------------------
  General SCF calculation program by
  Eric Jon Sundstrom, Paul Horn, Yuezhi Mao, Dmitri Zuev, Alec White,
  David Stuck, Shaama M.S., Shane Yost, Joonho Lee, David Small,
  Daniel Levine, Susi Lehtola, Hugh Burton, Evgeny Epifanovsky
 -----------------------------------------------------------------------
 Exchange:     0.2220 Hartree-Fock + 1.0000 wB97X-D + LR-HF
 Correlation:  1.0000 wB97X-D
 Using SG-3 standard quadrature grid
 Dispersion:   Grimme D
 using 32 threads for integral computing
 -------------------------------------------------------
 OpenMP Integral computing Module                
 Release: version 1.0, May 2013, Q-Chem Inc. Pittsburgh 
 -------------------------------------------------------
 using 32 threads for integral computing
 -------------------------------------------------------
 OpenMP Integral computing Module                
 Release: version 1.0, May 2013, Q-Chem Inc. Pittsburgh 
 -------------------------------------------------------
 -------------------------------------------------------
 OpenMP BLAS3 based DFT computing Module                
 Release: version 1.0, May 2013, Q-Chem Inc. Pittsburgh 
 -------------------------------------------------------
 A restricted SCF calculation will be
 performed using DIIS, GDM
 SCF converges when RMS gradient is below 1.0e-08
 ---------------------------------------
  Cycle       Energy         DIIS error
 ---------------------------------------
    1    -784.9294665873      5.03e-04  
    2    -784.9334451889      1.71e-04  Done DIIS. Switching to GDM
 ---------------------------------------
  Cycle       Energy        RMS Gradient
 ---------------------------------------
    1    -784.9334451889      2.49e-03   Normal BFGS step
    2    -784.9334855058      3.67e-03   Normal BFGS step
    3    -784.9336105377      1.52e-04   Normal BFGS step
    4    -784.9336120142      8.98e-05   Normal BFGS step
    5    -784.9336122589      4.10e-05   Normal BFGS step
    6    -784.9336122935      1.36e-05   Normal BFGS step
    7    -784.9336123023      3.14e-06   Normal BFGS step
    8    -784.9336123025      2.17e-06   Normal BFGS step
    9    -784.9336123027      6.30e-07   Normal BFGS step
   10    -784.9336123027      4.37e-07   Normal BFGS step
   11    -784.9336123027      6.77e-08   Normal BFGS step
   12    -784.9336123027      2.27e-08   Normal BFGS step
   13    -784.9336123027      1.10e-08   Normal BFGS step
   14    -784.9336123027      5.03e-09  Convergence criterion met
 ---------------------------------------
 SCF time:   CPU 570.77s  wall 22.00s 
(0)  E-EN(g) gas-phase elect-nuc energy                    0.000000000 a.u.
(3)  G-ENP(liq) elect-nuc-pol free energy of system     -784.933612303 a.u.
(4)  G-CDS(liq) cavity-dispersion-solvent structure 
     free energy                                               -0.3967 kcal/mol
(6)  G-S(liq) free energy of system                     -784.934244474 a.u.
(9)  DeltaG-S(liq) free energy of  solvation
     (9) = (6) - (0)                                      -492553.6725 kcal/mol
 SCF   energy in the final basis set =     -784.9336123027
 Total energy in the final basis set =     -784.9342444739
 
 --------------------------------------------------------------
 
                    Orbital Energies (a.u.)
 --------------------------------------------------------------
 
 Alpha MOs
 -- Occupied --
-89.382 -19.389 -19.389 -19.346 -19.346 -10.399 -10.398  -8.366
 -6.318  -6.316  -6.315  -2.164  -1.354  -1.228  -1.207  -1.178
 -0.926  -0.814  -0.778  -0.679  -0.672  -0.637  -0.623  -0.592
 -0.572  -0.540  -0.523  -0.510  -0.490  -0.487  -0.486  -0.441
 -0.429
 -- Virtual --
  0.008   0.017   0.017   0.019   0.043   0.062   0.066   0.068
  0.070   0.085   0.089   0.089   0.093   0.115   0.121   0.133
  0.135   0.136   0.140   0.149   0.172   0.175   0.179   0.195
  0.203   0.204   0.212   0.216   0.216   0.220   0.239   0.248
  0.264   0.272   0.277   0.278   0.293   0.307   0.321   0.342
  0.346   0.350   0.354   0.365   0.383   0.392   0.404   0.404
  0.415   0.421   0.427   0.444   0.472   0.501   0.567   0.581
  0.609   0.643   0.666   0.674   0.685   0.731   0.744   0.766
  0.769   0.783   0.827   0.849   0.865   0.903   1.013   1.021
  1.064   1.104   1.115   1.137   1.141   1.176   1.182   1.237
  1.248   1.249   1.307   1.321   1.330   1.377   1.382   1.405
  1.409   1.426   1.448   1.488   1.495   1.521   1.583   1.642
  1.653   1.667   1.694   1.756   1.796   1.839   1.847   1.861
  1.903   1.916   1.960   1.989   1.993   2.002   2.032   2.064
  2.091   2.113   2.175   2.191   2.218   2.266   2.276   2.346
  2.392   2.412   2.506   2.598   2.645   2.650   2.668   2.739
  2.763   2.816   2.835   2.917   2.935   2.944   2.971   3.117
  3.380   3.394   3.540   3.592   4.064   4.212   4.299   4.305
  4.382   4.532   4.760
 --------------------------------------------------------------
 
          Ground-State Mulliken Net Atomic Charges

     Atom                 Charge (a.u.)
  ----------------------------------------
      1 Li                    0.767323
      2 C                    -0.148561
      3 O                    -0.532735
      4 C                    -0.150074
      5 S                     1.791051
      6 O                    -0.532149
      7 O                    -0.590107
      8 O                    -0.591992
      9 H                     0.256282
     10 H                     0.238065
     11 H                     0.236668
     12 H                     0.256230
  ----------------------------------------
  Sum of atomic charges =     1.000000

 -----------------------------------------------------------------
                    Cartesian Multipole Moments
 -----------------------------------------------------------------
    Charge (ESU x 10^10)
                 4.8032
    Dipole Moment (Debye)
         X       3.4925      Y      -0.1972      Z       0.1101
       Tot       3.4998
    Quadrupole Moments (Debye-Ang)
        XX       6.2813     XY      -0.5596     YY     -46.1825
        XZ       0.3811     YZ       0.3706     ZZ     -50.3937
    Octopole Moments (Debye-Ang^2)
       XXX     111.4245    XXY      -2.2063    XYY      -2.2510
       YYY      -1.3909    XXZ       1.4588    XYZ       2.9895
       YYZ       0.2416    XZZ      -6.2082    YZZ      -0.4666
       ZZZ       0.5232
    Hexadecapole Moments (Debye-Ang^3)
      XXXX       2.1815   XXXY      -6.3095   XXYY     -97.0798
      XYYY      -0.1795   YYYY    -188.9439   XXXZ       4.1090
      XXYZ       8.7530   XYYZ       0.0597   YYYZ       0.0693
      XXZZ    -110.4350   XYZZ      -0.2414   YYZZ     -55.5969
      XZZZ       0.1153   YZZZ       0.9871   ZZZZ    -161.4666
 -----------------------------------------------------------------
 Calculating analytic gradient of the SCF energy
 Gradient of CDS energy
            1           2           3           4           5           6
    1   0.0000591  -0.0004580   0.0001885  -0.0004697  -0.0000278   0.0001885
    2  -0.0000045   0.0010642  -0.0001531  -0.0010636  -0.0000187   0.0001537
    3   0.0000093  -0.0000574  -0.0000901   0.0000391   0.0000280   0.0000859
            7           8           9          10          11          12
    1  -0.0001353  -0.0001256   0.0001876   0.0001774   0.0002309   0.0001843
    2  -0.0000220   0.0000296  -0.0000950  -0.0001244   0.0001292   0.0001047
    3   0.0000872  -0.0000987   0.0000190   0.0000670  -0.0000527  -0.0000366
 Gradient of SCF Energy
            1           2           3           4           5           6
    1   0.0059051   0.0412795  -0.0276874   0.0427140  -0.0048134  -0.0271493
    2  -0.0004814  -0.0270924   0.0235588   0.0315475   0.0001613  -0.0239478
    3   0.0000395   0.0180283   0.0048203  -0.0208799   0.0003589  -0.0053445
            7           8           9          10          11          12
    1   0.0196521   0.0195679  -0.0310101  -0.0032453  -0.0044624  -0.0307507
    2   0.0154975  -0.0148386   0.0168035   0.0106704  -0.0143389  -0.0175399
    3  -0.0418742   0.0414235   0.0299205  -0.0376067   0.0405102  -0.0293958
 Max gradient component =       4.271E-02
 RMS gradient           =       2.422E-02
 Computing VTN gradient.
 Updating gradient with PCM contributions...
 -- total gradient after adding PCM contribution --
---------------------------------------------------
  Atom         X              Y              Z     
---------------------------------------------------
   1       0.000782       0.000385       0.000097
   2      -0.001378       0.002568      -0.002525
   3      -0.001227       0.000162      -0.000437
   4      -0.000149       0.000296      -0.000391
   5       0.001026      -0.000096       0.000232
   6      -0.000648       0.000062      -0.000059
   7      -0.001400      -0.000420      -0.000565
   8      -0.000347      -0.000100       0.000261
   9       0.000304      -0.000327      -0.000117
  10       0.001848      -0.002439       0.003363
  11       0.000800      -0.000133      -0.000193
  12       0.000388       0.000041       0.000334
---------------------------------------------------
 Number of fixed atoms: 0
 Gradient time:  CPU 76.42 s  wall 3.46 s
 Geometry Optimization Parameters
   NAtoms,    NIC,     NZ,  NCons,   NDum,   NFix, NCnnct, MaxDiis
       12     104       0       0       0       0       0       0

 Cartesian Hessian Update
 Hessian Updated using BFGS Update


** GEOMETRY OPTIMIZATION IN CARTESIAN COORDINATES **
   Searching for a Minimum

   Optimization Cycle:   2

                       Coordinates (Angstroms)
     ATOM                X               Y               Z
      1  Li        3.1257637470   -0.0381785208    0.0294481701
      2  C        -1.8642592083    0.7570644748   -0.0127012164
      3  O        -0.5167171153    1.1090132384    0.4587532690
      4  C        -1.8536956145   -0.7577576711    0.0112413661
      5  S         0.5189821155    0.0147701519   -0.0060595316
      6  O        -0.5060111441   -1.0886733782   -0.4727558387
      7  O         1.3431659084    0.4312512632   -1.1354003232
      8  O         1.3401632585   -0.4007335571    1.1279519184
      9  H        -2.5629199856    1.1981233007    0.6921181524
     10  H        -1.9759748358    1.1566373463   -1.0137445062
     11  H        -1.9603038128   -1.1749282314    1.0120075461
     12  H        -2.5497657741   -1.2064821550   -0.6915298950
   Point Group: c1    Number of degrees of freedom:    30


   Energy is   -784.934244474


 Translations and Rotations Projected Out of Hessian

 30 Hessian modes will be used to form the next step
  Hessian Eigenvalues:
     0.000488    0.002354    0.002909    0.006743    0.033269    0.045239
     0.047866    0.056917    0.070923    0.082931    0.097628    0.106692
     0.134538    0.143113    0.181014    0.190016    0.208144    0.251330
     0.294092    0.326876    0.459866    0.486981    0.577333    0.696896
     0.866729    0.935050    1.044887    1.280384    1.461652    2.207965

 Minimum Search - Taking Simple RFO Step
 Searching for Lamda that Minimizes Along All modes
 Value Taken    Lamda =  -0.00017372
 Step Taken.  Stepsize is  0.201470

                             Maximum     Tolerance    Cnvgd?
         Gradient           0.003363      0.000300      NO
         Displacement       0.111897      0.001200      NO
         Energy change     -0.000140      0.000001      NO

 ----------------------------------------------------------------
             Standard Nuclear Orientation (Angstroms)
    I     Atom           X                Y                Z
 ----------------------------------------------------------------
    1      Li      3.1415966534    -0.0421289058     0.0253823136
    2      C      -1.8690824753     0.7585903437    -0.0121642241
    3      O      -0.5108765788     1.1275557143     0.4137150738
    4      C      -1.8488546203    -0.7581271769     0.0072274816
    5      S       0.5225266415     0.0142282845    -0.0068658431
    6      O      -0.5033422980    -1.0831915152    -0.4855578720
    7      O       1.3792639842     0.4094313537    -1.1211298270
    8      O       1.3102120144    -0.3963636714     1.1519541909
    9      H      -2.5474890890     1.1875601348     0.7209050132
   10      H      -2.0351883481     1.1661935609    -1.0069189908
   11      H      -1.9529108238    -1.1775106530     1.0069641888
   12      H      -2.5474275215    -1.2061312080    -0.6941823939
 ----------------------------------------------------------------
 Nuclear Repulsion Energy =   484.0750662324 hartrees
 There are       33 alpha and       33 beta electrons
 Discretize the solute cavity surface with Lebedev spheres
	Using 302 Lebedev grid points for each H atom
	Using 302 Lebedev grid points for other atoms
	Atomic van der Waals radii will be scaled by 1.20
 Removing interior tesserae...
 Keep 1149 surface tesserae and discard 2475 interior tesserae
 Molecular Surface Area = 165.031 Angst**2
 Nucleus-field energy     =     0.0000000004 hartrees
 Requested basis set is 6-31++G(d,p)
 There are 57 shells and 180 basis functions
 A cutoff of  1.0D-12 yielded   1574 shell pairs
 There are     16206 function pairs
 Smallest overlap matrix eigenvalue = 1.31E-04

 -----------------------------------------------------------------------
  General SCF calculation program by
  Eric Jon Sundstrom, Paul Horn, Yuezhi Mao, Dmitri Zuev, Alec White,
  David Stuck, Shaama M.S., Shane Yost, Joonho Lee, David Small,
  Daniel Levine, Susi Lehtola, Hugh Burton, Evgeny Epifanovsky
 -----------------------------------------------------------------------
 Exchange:     0.2220 Hartree-Fock + 1.0000 wB97X-D + LR-HF
 Correlation:  1.0000 wB97X-D
 Using SG-3 standard quadrature grid
 Dispersion:   Grimme D
 using 32 threads for integral computing
 -------------------------------------------------------
 OpenMP Integral computing Module                
 Release: version 1.0, May 2013, Q-Chem Inc. Pittsburgh 
 -------------------------------------------------------
 using 32 threads for integral computing
 -------------------------------------------------------
 OpenMP Integral computing Module                
 Release: version 1.0, May 2013, Q-Chem Inc. Pittsburgh 
 -------------------------------------------------------
 -------------------------------------------------------
 OpenMP BLAS3 based DFT computing Module                
 Release: version 1.0, May 2013, Q-Chem Inc. Pittsburgh 
 -------------------------------------------------------
 A restricted SCF calculation will be
 performed using DIIS, GDM
 SCF converges when RMS gradient is below 1.0e-08
 ---------------------------------------
  Cycle       Energy         DIIS error
 ---------------------------------------
    1    -784.9301627003      6.06e-04  
    2    -784.9334712588      1.56e-04  Done DIIS. Switching to GDM
 ---------------------------------------
  Cycle       Energy        RMS Gradient
 ---------------------------------------
    1    -784.9334712588      2.83e-03   Normal BFGS step
    2    -784.9335762488      2.41e-03   Normal BFGS step
    3    -784.9336283611      5.47e-04   Normal BFGS step
    4    -784.9336349885      8.25e-05   Normal BFGS step
    5    -784.9336352500      3.60e-05   Normal BFGS step
    6    -784.9336352938      1.63e-05   Normal BFGS step
    7    -784.9336352972      1.20e-05   Normal BFGS step
    8    -784.9336352995      1.84e-06   Normal BFGS step
    9    -784.9336352996      5.65e-07   Normal BFGS step
   10    -784.9336352996      1.56e-07   Normal BFGS step
   11    -784.9336352996      7.32e-08   Normal BFGS step
   12    -784.9336352996      4.27e-08   Normal BFGS step
   13    -784.9336352996      1.43e-08   Normal BFGS step
   14    -784.9336352996      1.85e-09  Convergence criterion met
 ---------------------------------------
 SCF time:   CPU 570.13s  wall 22.00s 
(0)  E-EN(g) gas-phase elect-nuc energy                    0.000000000 a.u.
(3)  G-ENP(liq) elect-nuc-pol free energy of system     -784.933635300 a.u.
(4)  G-CDS(liq) cavity-dispersion-solvent structure 
     free energy                                               -0.3967 kcal/mol
(6)  G-S(liq) free energy of system                     -784.934267471 a.u.
(9)  DeltaG-S(liq) free energy of  solvation
     (9) = (6) - (0)                                      -492553.6870 kcal/mol
 SCF   energy in the final basis set =     -784.9336352996
 Total energy in the final basis set =     -784.9342674709
 
 --------------------------------------------------------------
 
                    Orbital Energies (a.u.)
 --------------------------------------------------------------
 
 Alpha MOs
 -- Occupied --
-89.382 -19.389 -19.389 -19.346 -19.345 -10.399 -10.399  -8.366
 -6.318  -6.316  -6.315  -2.164  -1.353  -1.227  -1.207  -1.177
 -0.926  -0.814  -0.778  -0.678  -0.671  -0.637  -0.622  -0.592
 -0.571  -0.540  -0.523  -0.510  -0.489  -0.486  -0.485  -0.440
 -0.428
 -- Virtual --
  0.008   0.017   0.017   0.019   0.042   0.061   0.066   0.068
  0.070   0.085   0.089   0.089   0.093   0.115   0.122   0.133
  0.135   0.135   0.140   0.149   0.171   0.175   0.179   0.195
  0.203   0.204   0.212   0.215   0.216   0.220   0.239   0.248
  0.265   0.271   0.276   0.278   0.293   0.306   0.320   0.341
  0.346   0.351   0.354   0.364   0.383   0.392   0.404   0.405
  0.415   0.422   0.426   0.443   0.471   0.501   0.567   0.581
  0.609   0.644   0.665   0.674   0.683   0.732   0.744   0.765
  0.769   0.779   0.828   0.848   0.865   0.901   1.015   1.017
  1.063   1.102   1.112   1.127   1.143   1.176   1.180   1.238
  1.246   1.251   1.307   1.321   1.330   1.378   1.383   1.405
  1.409   1.425   1.448   1.489   1.492   1.520   1.585   1.640
  1.657   1.667   1.690   1.756   1.796   1.839   1.847   1.861
  1.903   1.915   1.958   1.984   1.992   1.997   2.034   2.059
  2.081   2.109   2.175   2.194   2.213   2.268   2.279   2.345
  2.391   2.411   2.509   2.601   2.641   2.648   2.667   2.741
  2.756   2.808   2.835   2.916   2.935   2.940   2.973   3.115
  3.374   3.395   3.532   3.593   4.063   4.212   4.295   4.309
  4.379   4.530   4.757
 --------------------------------------------------------------
 
          Ground-State Mulliken Net Atomic Charges

     Atom                 Charge (a.u.)
  ----------------------------------------
      1 Li                    0.773203
      2 C                    -0.140106
      3 O                    -0.537174
      4 C                    -0.163198
      5 S                     1.793987
      6 O                    -0.528878
      7 O                    -0.590431
      8 O                    -0.593010
      9 H                     0.254507
     10 H                     0.237408
     11 H                     0.237910
     12 H                     0.255783
  ----------------------------------------
  Sum of atomic charges =     1.000000

 -----------------------------------------------------------------
                    Cartesian Multipole Moments
 -----------------------------------------------------------------
    Charge (ESU x 10^10)
                 4.8032
    Dipole Moment (Debye)
         X       3.5695      Y      -0.2310      Z       0.1145
       Tot       3.5788
    Quadrupole Moments (Debye-Ang)
        XX       6.7509     XY      -0.6291     YY     -46.2059
        XZ       0.4125     YZ       0.3709     ZZ     -50.4001
    Octopole Moments (Debye-Ang^2)
       XXX     113.2899    XXY      -2.5121    XYY      -2.2341
       YYY      -1.6447    XXZ       1.6185    XYZ       2.9367
       YYZ       0.3480    XZZ      -6.5094    YZZ      -0.2688
       ZZZ       0.6723
    Hexadecapole Moments (Debye-Ang^3)
      XXXX       9.4344   XXXY      -6.8106   XXYY     -97.3698
      XYYY       0.2969   YYYY    -189.4457   XXXZ       4.8496
      XXYZ       8.3930   XYYZ       0.1148   YYYZ      -0.0147
      XXZZ    -110.5047   XYZZ      -0.2213   YYZZ     -55.5578
      XZZZ      -0.2807   YZZZ       1.0225   ZZZZ    -161.5546
 -----------------------------------------------------------------
 Calculating analytic gradient of the SCF energy
 Gradient of CDS energy
            1           2           3           4           5           6
    1   0.0000591  -0.0004580   0.0001885  -0.0004697  -0.0000278   0.0001885
    2  -0.0000045   0.0010642  -0.0001531  -0.0010636  -0.0000187   0.0001537
    3   0.0000093  -0.0000574  -0.0000901   0.0000391   0.0000280   0.0000859
            7           8           9          10          11          12
    1  -0.0001353  -0.0001256   0.0001876   0.0001774   0.0002309   0.0001843
    2  -0.0000220   0.0000296  -0.0000950  -0.0001244   0.0001292   0.0001047
    3   0.0000872  -0.0000987   0.0000190   0.0000670  -0.0000527  -0.0000366
 Gradient of SCF Energy
            1           2           3           4           5           6
    1   0.0067731   0.0450850  -0.0259375   0.0415014  -0.0055295  -0.0267934
    2  -0.0005095  -0.0288067   0.0236681   0.0310846   0.0011728  -0.0238941
    3  -0.0000775   0.0160514   0.0057436  -0.0197022  -0.0020186  -0.0048997
            7           8           9          10          11          12
    1   0.0213174   0.0180521  -0.0302367  -0.0081547  -0.0049592  -0.0311181
    2   0.0149361  -0.0150372   0.0165071   0.0124170  -0.0141374  -0.0174008
    3  -0.0412251   0.0435599   0.0310654  -0.0392296   0.0403071  -0.0295748
 Max gradient component =       4.508E-02
 RMS gradient           =       2.449E-02
 Computing VTN gradient.
 Updating gradient with PCM contributions...
 -- total gradient after adding PCM contribution --
---------------------------------------------------
  Atom         X              Y              Z     
---------------------------------------------------
   1       0.000426      -0.000430      -0.000169
   2       0.005362      -0.023622       0.023501
   3       0.000160      -0.000056       0.000100
   4       0.000040      -0.000051       0.000286
   5      -0.000245       0.000394      -0.000289
   6      -0.000305      -0.000030       0.000037
   7       0.000172       0.000650      -0.000658
   8      -0.000335      -0.000377       0.001130
   9      -0.000013       0.000052       0.000027
  10      -0.005373       0.023533      -0.023639
  11      -0.000058      -0.000101      -0.000390
  12       0.000170       0.000039       0.000065
---------------------------------------------------
 Number of fixed atoms: 0
 Gradient time:  CPU 76.88 s  wall 3.48 s
 Geometry Optimization Parameters
   NAtoms,    NIC,     NZ,  NCons,   NDum,   NFix, NCnnct, MaxDiis
       12     104       0       0       0       0       0       0

 Cartesian Hessian Update
 Hessian Updated using BFGS Update


** GEOMETRY OPTIMIZATION IN CARTESIAN COORDINATES **
   Searching for a Minimum

   Optimization Cycle:   3

                       Coordinates (Angstroms)
     ATOM                X               Y               Z
      1  Li        3.1415966534   -0.0421289058    0.0253823136
      2  C        -1.8690824753    0.7585903437   -0.0121642241
      3  O        -0.5108765788    1.1275557143    0.4137150738
      4  C        -1.8488546203   -0.7581271769    0.0072274816
      5  S         0.5225266415    0.0142282845   -0.0068658431
      6  O        -0.5033422980   -1.0831915152   -0.4855578720
      7  O         1.3792639842    0.4094313537   -1.1211298270
      8  O         1.3102120144   -0.3963636714    1.1519541909
      9  H        -2.5474890890    1.1875601348    0.7209050132
     10  H        -2.0351883481    1.1661935609   -1.0069189908
     11  H        -1.9529108238   -1.1775106530    1.0069641888
     12  H        -2.5474275215   -1.2061312080   -0.6941823939
   Point Group: c1    Number of degrees of freedom:    30


   Energy is   -784.934267471


 Translations and Rotations Projected Out of Hessian

 30 Hessian modes will be used to form the next step
  Hessian Eigenvalues:
     0.000518    0.002090    0.003072    0.006874    0.034709    0.043268
     0.052371    0.056422    0.071116    0.085769    0.096767    0.106607
     0.133570    0.143630    0.187944    0.195531    0.213439    0.257285
     0.299594    0.317181    0.464609    0.478269    0.577211    0.698974
     0.895604    0.952700    1.252122    1.461561    2.204005    4.141453

 Minimum Search - Taking Simple RFO Step
 Searching for Lamda that Minimizes Along All modes
 Value Taken    Lamda =  -0.00066624
 Step Taken.  Stepsize is  0.090698

                             Maximum     Tolerance    Cnvgd?
         Gradient           0.023639      0.000300      NO
         Displacement       0.049923      0.001200      NO
         Energy change     -0.000023      0.000001      NO

 ----------------------------------------------------------------
             Standard Nuclear Orientation (Angstroms)
    I     Atom           X                Y                Z
 ----------------------------------------------------------------
    1      Li      3.1336512147    -0.0631279495    -0.0010358705
    2      C      -1.8704016987     0.7590836241    -0.0132127598
    3      O      -0.5138084398     1.1320664305     0.4186091071
    4      C      -1.8469535790    -0.7584583686     0.0079797817
    5      S       0.5230285819     0.0216850124     0.0016701382
    6      O      -0.4980504315    -1.0776185037    -0.4829238518
    7      O       1.3858397120     0.4231867140    -1.1069911248
    8      O       1.3090326868    -0.3928877355     1.1596957773
    9      H      -2.5533295241     1.1896292996     0.7148727186
   10      H      -2.0334667954     1.1515653612    -1.0080031328
   11      H      -1.9549882839    -1.1790117501     1.0064444137
   12      H      -2.5421259042    -1.2060058726    -0.6977760858
 ----------------------------------------------------------------
 Nuclear Repulsion Energy =   484.1347584595 hartrees
 There are       33 alpha and       33 beta electrons
 Discretize the solute cavity surface with Lebedev spheres
	Using 302 Lebedev grid points for each H atom
	Using 302 Lebedev grid points for other atoms
	Atomic van der Waals radii will be scaled by 1.20
 Removing interior tesserae...
 Keep 1147 surface tesserae and discard 2477 interior tesserae
 Molecular Surface Area = 165.043 Angst**2
 Nucleus-field energy     =     0.0000000004 hartrees
 Requested basis set is 6-31++G(d,p)
 There are 57 shells and 180 basis functions
 A cutoff of  1.0D-12 yielded   1574 shell pairs
 There are     16206 function pairs
 Smallest overlap matrix eigenvalue = 1.31E-04

 -----------------------------------------------------------------------
  General SCF calculation program by
  Eric Jon Sundstrom, Paul Horn, Yuezhi Mao, Dmitri Zuev, Alec White,
  David Stuck, Shaama M.S., Shane Yost, Joonho Lee, David Small,
  Daniel Levine, Susi Lehtola, Hugh Burton, Evgeny Epifanovsky
 -----------------------------------------------------------------------
 Exchange:     0.2220 Hartree-Fock + 1.0000 wB97X-D + LR-HF
 Correlation:  1.0000 wB97X-D
 Using SG-3 standard quadrature grid
 Dispersion:   Grimme D
 using 32 threads for integral computing
 -------------------------------------------------------
 OpenMP Integral computing Module                
 Release: version 1.0, May 2013, Q-Chem Inc. Pittsburgh 
 -------------------------------------------------------
 using 32 threads for integral computing
 -------------------------------------------------------
 OpenMP Integral computing Module                
 Release: version 1.0, May 2013, Q-Chem Inc. Pittsburgh 
 -------------------------------------------------------
 -------------------------------------------------------
 OpenMP BLAS3 based DFT computing Module                
 Release: version 1.0, May 2013, Q-Chem Inc. Pittsburgh 
 -------------------------------------------------------
 A restricted SCF calculation will be
 performed using DIIS, GDM
 SCF converges when RMS gradient is below 1.0e-08
 ---------------------------------------
  Cycle       Energy         DIIS error
 ---------------------------------------
    1    -784.9332462738      1.44e-04  
    2    -784.9335060310      4.74e-05  Done DIIS. Switching to GDM
 ---------------------------------------
  Cycle       Energy        RMS Gradient
 ---------------------------------------
    1    -784.9335060310      6.84e-04   Normal BFGS step
    2    -784.9335117233      9.50e-04   Normal BFGS step
    3    -784.9335189355      8.19e-05   Normal BFGS step
    4    -784.9335192044      2.77e-05   Normal BFGS step
    5    -784.9335192417      9.83e-06   Normal BFGS step
    6    -784.9335192440      8.16e-06   Normal BFGS step
    7    -784.9335192453      2.27e-06   Normal BFGS step
    8    -784.9335192453      9.65e-07   Normal BFGS step
    9    -784.9335192454      1.85e-07   Normal BFGS step
   10    -784.9335192454      1.59e-07   Normal BFGS step
   11    -784.9335192454      2.96e-08   Normal BFGS step
   12    -784.9335192454      1.05e-08   Normal BFGS step
   13    -784.9335192454      2.75e-09  Convergence criterion met
 ---------------------------------------
 SCF time:   CPU 534.18s  wall 20.00s 
(0)  E-EN(g) gas-phase elect-nuc energy                    0.000000000 a.u.
(3)  G-ENP(liq) elect-nuc-pol free energy of system     -784.933519245 a.u.
(4)  G-CDS(liq) cavity-dispersion-solvent structure 
     free energy                                               -0.3967 kcal/mol
(6)  G-S(liq) free energy of system                     -784.934151417 a.u.
(9)  DeltaG-S(liq) free energy of  solvation
     (9) = (6) - (0)                                      -492553.6141 kcal/mol
 SCF   energy in the final basis set =     -784.9335192454
 Total energy in the final basis set =     -784.9341514166
 
 --------------------------------------------------------------
 
                    Orbital Energies (a.u.)
 --------------------------------------------------------------
 
 Alpha MOs
 -- Occupied --
-89.382 -19.389 -19.389 -19.347 -19.345 -10.399 -10.399  -8.366
 -6.318  -6.316  -6.315  -2.164  -1.354  -1.227  -1.207  -1.177
 -0.926  -0.814  -0.779  -0.678  -0.671  -0.637  -0.622  -0.593
 -0.571  -0.540  -0.523  -0.510  -0.490  -0.487  -0.485  -0.440
 -0.429
 -- Virtual --
  0.008   0.017   0.017   0.019   0.042   0.062   0.066   0.068
  0.070   0.085   0.089   0.089   0.093   0.115   0.121   0.133
  0.135   0.135   0.140   0.149   0.171   0.175   0.179   0.195
  0.203   0.204   0.212   0.216   0.216   0.220   0.239   0.248
  0.265   0.272   0.276   0.278   0.293   0.306   0.320   0.342
  0.346   0.350   0.354   0.364   0.383   0.392   0.404   0.405
  0.416   0.421   0.427   0.444   0.470   0.501   0.568   0.581
  0.609   0.644   0.666   0.674   0.684   0.732   0.744   0.765
  0.770   0.781   0.828   0.848   0.865   0.903   1.015   1.018
  1.063   1.103   1.114   1.130   1.143   1.177   1.180   1.239
  1.246   1.251   1.307   1.321   1.330   1.377   1.382   1.405
  1.409   1.425   1.448   1.488   1.493   1.521   1.587   1.640
  1.657   1.668   1.693   1.756   1.796   1.837   1.848   1.861
  1.904   1.913   1.958   1.983   1.992   1.997   2.032   2.061
  2.090   2.111   2.176   2.194   2.213   2.267   2.278   2.348
  2.392   2.409   2.510   2.601   2.641   2.648   2.668   2.738
  2.757   2.810   2.835   2.916   2.936   2.944   2.972   3.114
  3.377   3.396   3.538   3.592   4.064   4.211   4.295   4.308
  4.379   4.530   4.757
 --------------------------------------------------------------
 
          Ground-State Mulliken Net Atomic Charges

     Atom                 Charge (a.u.)
  ----------------------------------------
      1 Li                    0.769399
      2 C                    -0.137300
      3 O                    -0.537029
      4 C                    -0.164887
      5 S                     1.795194
      6 O                    -0.528062
      7 O                    -0.590827
      8 O                    -0.593230
      9 H                     0.254709
     10 H                     0.238325
     11 H                     0.237996
     12 H                     0.255713
  ----------------------------------------
  Sum of atomic charges =     1.000000

 -----------------------------------------------------------------
                    Cartesian Multipole Moments
 -----------------------------------------------------------------
    Charge (ESU x 10^10)
                 4.8032
    Dipole Moment (Debye)
         X       3.4811      Y      -0.3450      Z      -0.0187
       Tot       3.4982
    Quadrupole Moments (Debye-Ang)
        XX       6.4984     XY      -0.9599     YY     -46.2252
        XZ       0.0657     YZ       0.4080     ZZ     -50.3673
    Octopole Moments (Debye-Ang^2)
       XXX     111.7230    XXY      -3.7700    XYY      -2.2647
       YYY      -2.3626    XXZ       0.1589    XYZ       2.9686
       YYZ       0.1487    XZZ      -6.5900    YZZ      -0.5152
       ZZZ      -0.2130
    Hexadecapole Moments (Debye-Ang^3)
      XXXX       4.6228   XXXY     -10.4958   XXYY     -97.4361
      XYYY       0.0982   YYYY    -189.6877   XXXZ       0.7739
      XXYZ       8.5619   XYYZ       0.0063   YYYZ       0.1653
      XXZZ    -110.4347   XYZZ      -0.2491   YYZZ     -55.5555
      XZZZ      -0.6074   YZZZ       1.1408   ZZZZ    -161.0511
 -----------------------------------------------------------------
 Calculating analytic gradient of the SCF energy
 Gradient of CDS energy
            1           2           3           4           5           6
    1   0.0000591  -0.0004580   0.0001885  -0.0004697  -0.0000278   0.0001885
    2  -0.0000045   0.0010642  -0.0001531  -0.0010636  -0.0000187   0.0001537
    3   0.0000093  -0.0000574  -0.0000901   0.0000391   0.0000280   0.0000859
            7           8           9          10          11          12
    1  -0.0001353  -0.0001256   0.0001876   0.0001774   0.0002309   0.0001843
    2  -0.0000220   0.0000296  -0.0000950  -0.0001244   0.0001292   0.0001047
    3   0.0000872  -0.0000987   0.0000190   0.0000670  -0.0000527  -0.0000366
 Gradient of SCF Energy
            1           2           3           4           5           6
    1   0.0061397   0.0446554  -0.0253385   0.0415726  -0.0061584  -0.0263083
    2  -0.0009170  -0.0251721   0.0233932   0.0303984   0.0014780  -0.0240337
    3  -0.0003251   0.0132263   0.0062300  -0.0190282  -0.0026518  -0.0052538
            7           8           9          10          11          12
    1   0.0225647   0.0184438  -0.0306425  -0.0079730  -0.0056394  -0.0313162
    2   0.0157606  -0.0150339   0.0166146   0.0088612  -0.0139902  -0.0173592
    3  -0.0402713   0.0433551   0.0310137  -0.0363354   0.0401990  -0.0301584
 Max gradient component =       4.466E-02
 RMS gradient           =       2.411E-02
 Computing VTN gradient.
 Updating gradient with PCM contributions...
 -- total gradient after adding PCM contribution --
---------------------------------------------------
  Atom         X              Y              Z     
---------------------------------------------------
   1      -0.000161      -0.000675      -0.000181
   2      -0.000281       0.003682      -0.004691
   3       0.000789      -0.000165       0.000418
   4      -0.000358      -0.000927       0.000749
   5      -0.000769       0.000394      -0.000300
   6       0.000059      -0.000017      -0.000023
   7       0.001179       0.001249      -0.000410
   8      -0.000072      -0.000333       0.000719
   9      -0.000128       0.000090       0.000143
  10      -0.000049      -0.003598       0.004344
  11      -0.000138       0.000272      -0.000599
  12      -0.000071       0.000029      -0.000170
---------------------------------------------------
 Number of fixed atoms: 0
 Gradient time:  CPU 75.93 s  wall 3.42 s
 Geometry Optimization Parameters
   NAtoms,    NIC,     NZ,  NCons,   NDum,   NFix, NCnnct, MaxDiis
       12     104       0       0       0       0       0       0

 Cartesian Hessian Update
 Hessian Updated using BFGS Update


** GEOMETRY OPTIMIZATION IN CARTESIAN COORDINATES **
   Searching for a Minimum

   Optimization Cycle:   4

                       Coordinates (Angstroms)
     ATOM                X               Y               Z
      1  Li        3.1336512147   -0.0631279495   -0.0010358705
      2  C        -1.8704016987    0.7590836241   -0.0132127598
      3  O        -0.5138084398    1.1320664305    0.4186091071
      4  C        -1.8469535790   -0.7584583686    0.0079797817
      5  S         0.5230285819    0.0216850124    0.0016701382
      6  O        -0.4980504315   -1.0776185037   -0.4829238518
      7  O         1.3858397120    0.4231867140   -1.1069911248
      8  O         1.3090326868   -0.3928877355    1.1596957773
      9  H        -2.5533295241    1.1896292996    0.7148727186
     10  H        -2.0334667954    1.1515653612   -1.0080031328
     11  H        -1.9549882839   -1.1790117501    1.0064444137
     12  H        -2.5421259042   -1.2060058726   -0.6977760858
   Point Group: c1    Number of degrees of freedom:    30


   Energy is   -784.934151417


 Translations and Rotations Projected Out of Hessian

 30 Hessian modes will be used to form the next step
  Hessian Eigenvalues:
     0.000542    0.002215    0.003218    0.006888    0.034445    0.044276
     0.054189    0.056416    0.071040    0.085700    0.097196    0.108231
     0.133629    0.142971    0.188538    0.195549    0.212244    0.258800
     0.297592    0.317612    0.463734    0.477167    0.577248    0.699200
     0.893870    0.952041    1.258980    1.461503    2.198579    4.353181

 Minimum Search - Taking Simple RFO Step
 Searching for Lamda that Minimizes Along All modes
 Value Taken    Lamda =  -0.00033453
 Calculated Step too Large.  Step scaled by  0.850538
 Step Taken.  Stepsize is  0.300000

                             Maximum     Tolerance    Cnvgd?
         Gradient           0.004691      0.000300      NO
         Displacement       0.149385      0.001200      NO
         Energy change      0.000116      0.000001      NO

 ----------------------------------------------------------------
             Standard Nuclear Orientation (Angstroms)
    I     Atom           X                Y                Z
 ----------------------------------------------------------------
    1      Li      3.1140022363     0.0159230196     0.0727607067
    2      C      -1.8582858391     0.7597879882    -0.0085872395
    3      O      -0.5002627127     1.1057115497     0.4367587470
    4      C      -1.8577277138    -0.7562040087     0.0113733722
    5      S       0.5222749994    -0.0026633351    -0.0216591007
    6      O      -0.5124753237    -1.0993404232    -0.4756811326
    7      O       1.3529209638     0.4009755977    -1.1501264720
    8      O       1.3453541235    -0.4132069465     1.1131536598
    9      H      -2.5410804215     1.2015858754     0.7124465429
   10      H      -1.9966872728     1.1559013215    -1.0065838977
   11      H      -1.9705628268    -1.1753340414     1.0103290707
   12      H      -2.5590426738    -1.1930303356    -0.6948551459
 ----------------------------------------------------------------
 Nuclear Repulsion Energy =   484.5983519453 hartrees
 There are       33 alpha and       33 beta electrons
 Discretize the solute cavity surface with Lebedev spheres
	Using 302 Lebedev grid points for each H atom
	Using 302 Lebedev grid points for other atoms
	Atomic van der Waals radii will be scaled by 1.20
 Removing interior tesserae...
 Keep 1146 surface tesserae and discard 2478 interior tesserae
 Molecular Surface Area = 164.225 Angst**2
 Nucleus-field energy     =     0.0000000004 hartrees
 Requested basis set is 6-31++G(d,p)
 There are 57 shells and 180 basis functions
 A cutoff of  1.0D-12 yielded   1574 shell pairs
 There are     16206 function pairs
 Smallest overlap matrix eigenvalue = 1.31E-04

 -----------------------------------------------------------------------
  General SCF calculation program by
  Eric Jon Sundstrom, Paul Horn, Yuezhi Mao, Dmitri Zuev, Alec White,
  David Stuck, Shaama M.S., Shane Yost, Joonho Lee, David Small,
  Daniel Levine, Susi Lehtola, Hugh Burton, Evgeny Epifanovsky
 -----------------------------------------------------------------------
 Exchange:     0.2220 Hartree-Fock + 1.0000 wB97X-D + LR-HF
 Correlation:  1.0000 wB97X-D
 Using SG-3 standard quadrature grid
 Dispersion:   Grimme D
 using 32 threads for integral computing
 -------------------------------------------------------
 OpenMP Integral computing Module                
 Release: version 1.0, May 2013, Q-Chem Inc. Pittsburgh 
 -------------------------------------------------------
 using 32 threads for integral computing
 -------------------------------------------------------
 OpenMP Integral computing Module                
 Release: version 1.0, May 2013, Q-Chem Inc. Pittsburgh 
 -------------------------------------------------------
 -------------------------------------------------------
 OpenMP BLAS3 based DFT computing Module                
 Release: version 1.0, May 2013, Q-Chem Inc. Pittsburgh 
 -------------------------------------------------------
 A restricted SCF calculation will be
 performed using DIIS, GDM
 SCF converges when RMS gradient is below 1.0e-08
 ---------------------------------------
  Cycle       Energy         DIIS error
 ---------------------------------------
    1    -784.9304592130      6.14e-04  
    2    -784.9333843561      1.91e-04  Done DIIS. Switching to GDM
 ---------------------------------------
  Cycle       Energy        RMS Gradient
 ---------------------------------------
    1    -784.9333843561      3.65e-03   Normal BFGS step
    2    -784.9334552669      3.52e-03   Normal BFGS step
    3    -784.9335853570      2.43e-04   Normal BFGS step
    4    -784.9335873917      9.52e-05   Normal BFGS step
    5    -784.9335876728      3.74e-05   Normal BFGS step
    6    -784.9335876878      1.72e-05   Normal BFGS step
    7    -784.9335876974      4.97e-06   Normal BFGS step
    8    -784.9335876978      3.75e-06   Normal BFGS step
    9    -784.9335876981      5.32e-07   Normal BFGS step
   10    -784.9335876981      4.01e-07   Normal BFGS step
   11    -784.9335876981      4.90e-08   Normal BFGS step
   12    -784.9335876981      1.31e-08   Normal BFGS step
   13    -784.9335876981      3.98e-09  Convergence criterion met
 ---------------------------------------
 SCF time:   CPU 532.85s  wall 20.00s 
(0)  E-EN(g) gas-phase elect-nuc energy                    0.000000000 a.u.
(3)  G-ENP(liq) elect-nuc-pol free energy of system     -784.933587698 a.u.
(4)  G-CDS(liq) cavity-dispersion-solvent structure 
     free energy                                               -0.3967 kcal/mol
(6)  G-S(liq) free energy of system                     -784.934219869 a.u.
(9)  DeltaG-S(liq) free energy of  solvation
     (9) = (6) - (0)                                      -492553.6571 kcal/mol
 SCF   energy in the final basis set =     -784.9335876981
 Total energy in the final basis set =     -784.9342198693
 
 --------------------------------------------------------------
 
                    Orbital Energies (a.u.)
 --------------------------------------------------------------
 
 Alpha MOs
 -- Occupied --
-89.382 -19.390 -19.389 -19.346 -19.346 -10.399 -10.399  -8.366
 -6.318  -6.317  -6.316  -2.162  -1.355  -1.229  -1.208  -1.178
 -0.927  -0.815  -0.779  -0.679  -0.672  -0.638  -0.623  -0.593
 -0.572  -0.541  -0.524  -0.511  -0.490  -0.487  -0.486  -0.441
 -0.429
 -- Virtual --
  0.008   0.017   0.017   0.019   0.042   0.062   0.066   0.068
  0.070   0.085   0.089   0.090   0.093   0.115   0.121   0.133
  0.135   0.135   0.140   0.148   0.172   0.175   0.179   0.195
  0.203   0.204   0.212   0.216   0.217   0.221   0.239   0.249
  0.265   0.272   0.277   0.278   0.292   0.307   0.320   0.343
  0.346   0.351   0.354   0.365   0.384   0.392   0.404   0.405
  0.415   0.421   0.428   0.445   0.471   0.501   0.568   0.581
  0.609   0.644   0.666   0.675   0.687   0.732   0.744   0.766
  0.771   0.787   0.827   0.850   0.865   0.906   1.014   1.020
  1.063   1.104   1.115   1.140   1.143   1.175   1.184   1.238
  1.248   1.250   1.307   1.321   1.331   1.377   1.379   1.405
  1.409   1.426   1.448   1.489   1.495   1.522   1.585   1.644
  1.654   1.667   1.700   1.756   1.797   1.836   1.848   1.861
  1.906   1.914   1.959   1.985   1.993   2.000   2.032   2.063
  2.107   2.115   2.177   2.192   2.215   2.265   2.278   2.348
  2.395   2.410   2.509   2.600   2.643   2.649   2.667   2.738
  2.759   2.813   2.834   2.916   2.935   2.945   2.972   3.116
  3.378   3.395   3.539   3.591   4.064   4.212   4.297   4.307
  4.378   4.530   4.758
 --------------------------------------------------------------
 
          Ground-State Mulliken Net Atomic Charges

     Atom                 Charge (a.u.)
  ----------------------------------------
      1 Li                    0.760960
      2 C                    -0.151858
      3 O                    -0.533213
      4 C                    -0.149628
      5 S                     1.798782
      6 O                    -0.531767
      7 O                    -0.589746
      8 O                    -0.592552
      9 H                     0.255743
     10 H                     0.238896
     11 H                     0.238160
     12 H                     0.256224
  ----------------------------------------
  Sum of atomic charges =     1.000000

 -----------------------------------------------------------------
                    Cartesian Multipole Moments
 -----------------------------------------------------------------
    Charge (ESU x 10^10)
                 4.8032
    Dipole Moment (Debye)
         X       3.3470      Y       0.0713      Z       0.3226
       Tot       3.3633
    Quadrupole Moments (Debye-Ang)
        XX       5.8554     XY       0.2635     YY     -46.1882
        XZ       0.9921     YZ       0.3915     ZZ     -50.3222
    Octopole Moments (Debye-Ang^2)
       XXX     108.9016    XXY       0.8689    XYY      -2.3653
       YYY       0.0607    XXZ       3.8683    XYZ       2.9679
       YYZ       0.7040    XZZ      -6.5233    YZZ       0.0846
       ZZZ       1.9989
    Hexadecapole Moments (Debye-Ang^3)
      XXXX      -6.3509   XXXY       2.6354   XXYY     -97.4169
      XYYY       0.1447   YYYY    -188.9465   XXXZ      11.3446
      XXYZ       8.6676   XYYZ      -0.0033   YYYZ      -0.0879
      XXZZ    -110.1841   XYZZ      -0.1179   YYZZ     -55.4373
      XZZZ       0.8822   YZZZ       0.8775   ZZZZ    -160.9949
 -----------------------------------------------------------------
 Calculating analytic gradient of the SCF energy
 Gradient of CDS energy
            1           2           3           4           5           6
    1   0.0000591  -0.0004580   0.0001885  -0.0004697  -0.0000278   0.0001885
    2  -0.0000045   0.0010642  -0.0001531  -0.0010636  -0.0000187   0.0001537
    3   0.0000093  -0.0000574  -0.0000901   0.0000391   0.0000280   0.0000859
            7           8           9          10          11          12
    1  -0.0001353  -0.0001256   0.0001876   0.0001774   0.0002309   0.0001843
    2  -0.0000220   0.0000296  -0.0000950  -0.0001244   0.0001292   0.0001047
    3   0.0000872  -0.0000987   0.0000190   0.0000670  -0.0000527  -0.0000366
 Gradient of SCF Energy
            1           2           3           4           5           6
    1   0.0047563   0.0421133  -0.0259341   0.0432398  -0.0053704  -0.0266504
    2   0.0004881  -0.0265465   0.0239169   0.0314002  -0.0006882  -0.0237574
    3   0.0003667   0.0158871   0.0056212  -0.0203475   0.0007659  -0.0053244
            7           8           9          10          11          12
    1   0.0207077   0.0204868  -0.0307256  -0.0057129  -0.0053789  -0.0315316
    2   0.0142191  -0.0147118   0.0170797   0.0093740  -0.0140505  -0.0167235
    3  -0.0410751   0.0395437   0.0311700  -0.0373143   0.0408109  -0.0301043
 Max gradient component =       4.324E-02
 RMS gradient           =       2.412E-02
 Computing VTN gradient.
 Updating gradient with PCM contributions...
 -- total gradient after adding PCM contribution --
---------------------------------------------------
  Atom         X              Y              Z     
---------------------------------------------------
   1      -0.001001       0.000379       0.000163
   2      -0.001146       0.003257      -0.003416
   3       0.000118      -0.000069      -0.000015
   4       0.000108       0.000333      -0.000035
   5       0.000196      -0.000473       0.000200
   6       0.000209       0.000072       0.000013
   7       0.000202      -0.000326       0.000771
   8       0.000274      -0.000000      -0.001139
   9      -0.000005      -0.000115       0.000242
  10       0.000931      -0.003382       0.003731
  11       0.000170       0.000179      -0.000391
  12      -0.000056       0.000144      -0.000123
---------------------------------------------------
 Number of fixed atoms: 0
 Gradient time:  CPU 76.35 s  wall 3.52 s
 Geometry Optimization Parameters
   NAtoms,    NIC,     NZ,  NCons,   NDum,   NFix, NCnnct, MaxDiis
       12     104       0       0       0       0       0       0

 Cartesian Hessian Update
 Hessian Updated using BFGS Update


** GEOMETRY OPTIMIZATION IN CARTESIAN COORDINATES **
   Searching for a Minimum

   Optimization Cycle:   5

                       Coordinates (Angstroms)
     ATOM                X               Y               Z
      1  Li        3.1140022363    0.0159230196    0.0727607067
      2  C        -1.8582858391    0.7597879882   -0.0085872395
      3  O        -0.5002627127    1.1057115497    0.4367587470
      4  C        -1.8577277138   -0.7562040087    0.0113733722
      5  S         0.5222749994   -0.0026633351   -0.0216591007
      6  O        -0.5124753237   -1.0993404232   -0.4756811326
      7  O         1.3529209638    0.4009755977   -1.1501264720
      8  O         1.3453541235   -0.4132069465    1.1131536598
      9  H        -2.5410804215    1.2015858754    0.7124465429
     10  H        -1.9966872728    1.1559013215   -1.0065838977
     11  H        -1.9705628268   -1.1753340414    1.0103290707
     12  H        -2.5590426738   -1.1930303356   -0.6948551459
   Point Group: c1    Number of degrees of freedom:    30


   Energy is   -784.934219869


 Translations and Rotations Projected Out of Hessian

 30 Hessian modes will be used to form the next step
  Hessian Eigenvalues:
     0.000616    0.002549    0.005261    0.006888    0.036635    0.043164
     0.053131    0.056748    0.071150    0.085715    0.096866    0.107236
     0.133230    0.145329    0.188142    0.195346    0.212949    0.258077
     0.301217    0.317708    0.463564    0.478529    0.577823    0.699565
     0.895097    0.951847    1.259066    1.462083    2.198622    4.128048

 Minimum Search - Taking Simple RFO Step
 Searching for Lamda that Minimizes Along All modes
 Value Taken    Lamda =  -0.00011598
 Step Taken.  Stepsize is  0.185170

                             Maximum     Tolerance    Cnvgd?
         Gradient           0.003731      0.000300      NO
         Displacement       0.121625      0.001200      NO
         Energy change     -0.000068      0.000001      NO

 ----------------------------------------------------------------
             Standard Nuclear Orientation (Angstroms)
    I     Atom           X                Y                Z
 ----------------------------------------------------------------
    1      Li      3.1271876426    -0.0162508786     0.0083993008
    2      C      -1.8613019149     0.7582067456    -0.0116117551
    3      O      -0.5125863806     1.1072776382     0.4580182266
    4      C      -1.8566204322    -0.7578702002     0.0093369156
    5      S       0.5206888492     0.0077281962     0.0018160116
    6      O      -0.5053350678    -1.0951608800    -0.4614225795
    7      O       1.3483800304     0.4175731471    -1.1278628127
    8      O       1.3419454982    -0.4016463110     1.1367697439
    9      H      -2.5578968903     1.1996720143     0.6956732550
   10      H      -1.9806087170     1.1562381054    -1.0134652662
   11      H      -1.9778968938    -1.1766250886     1.0075495896
   12      H      -2.5475281851    -1.1990362269    -0.7038715185
 ----------------------------------------------------------------
 Nuclear Repulsion Energy =   484.4630691821 hartrees
 There are       33 alpha and       33 beta electrons
 Discretize the solute cavity surface with Lebedev spheres
	Using 302 Lebedev grid points for each H atom
	Using 302 Lebedev grid points for other atoms
	Atomic van der Waals radii will be scaled by 1.20
 Removing interior tesserae...
 Keep 1146 surface tesserae and discard 2478 interior tesserae
 Molecular Surface Area = 164.449 Angst**2
 Nucleus-field energy     =     0.0000000004 hartrees
 Requested basis set is 6-31++G(d,p)
 There are 57 shells and 180 basis functions
 A cutoff of  1.0D-12 yielded   1573 shell pairs
 There are     16202 function pairs
 Smallest overlap matrix eigenvalue = 1.31E-04

 -----------------------------------------------------------------------
  General SCF calculation program by
  Eric Jon Sundstrom, Paul Horn, Yuezhi Mao, Dmitri Zuev, Alec White,
  David Stuck, Shaama M.S., Shane Yost, Joonho Lee, David Small,
  Daniel Levine, Susi Lehtola, Hugh Burton, Evgeny Epifanovsky
 -----------------------------------------------------------------------
 Exchange:     0.2220 Hartree-Fock + 1.0000 wB97X-D + LR-HF
 Correlation:  1.0000 wB97X-D
 Using SG-3 standard quadrature grid
 Dispersion:   Grimme D
 using 32 threads for integral computing
 -------------------------------------------------------
 OpenMP Integral computing Module                
 Release: version 1.0, May 2013, Q-Chem Inc. Pittsburgh 
 -------------------------------------------------------
 using 32 threads for integral computing
 -------------------------------------------------------
 OpenMP Integral computing Module                
 Release: version 1.0, May 2013, Q-Chem Inc. Pittsburgh 
 -------------------------------------------------------
 -------------------------------------------------------
 OpenMP BLAS3 based DFT computing Module                
 Release: version 1.0, May 2013, Q-Chem Inc. Pittsburgh 
 -------------------------------------------------------
 A restricted SCF calculation will be
 performed using DIIS, GDM
 SCF converges when RMS gradient is below 1.0e-08
 ---------------------------------------
  Cycle       Energy         DIIS error
 ---------------------------------------
    1    -784.9323614598      2.68e-04  
[...]
    1      Li      3.1357477530     0.0359551915    -0.0901930134
    2      C      -1.8531646202     0.7561512685    -0.0173473504
    3      O      -0.5136837173     1.0895878468     0.4894923796
    4      C      -1.8652472671    -0.7605344597     0.0032027763
    5      S       0.5220386713    -0.0095032771     0.0391863365
    6      O      -0.5016991777    -1.1200983752    -0.4120139294
    7      O       1.3377261947     0.3985260854    -1.1033446746
    8      O       1.3539207455    -0.4042100746     1.1688239557
    9      H      -2.5618876308     1.1997503530     0.6770927759
   10      H      -1.9471410549     1.1747744909    -1.0181605671
   11      H      -2.0324818310    -1.1654770112     0.9964760521
   12      H      -2.5357005267    -1.1948157770    -0.7338856301
 ----------------------------------------------------------------
 Nuclear Repulsion Energy =   484.1970101150 hartrees
 There are       33 alpha and       33 beta electrons
 Discretize the solute cavity surface with Lebedev spheres
	Using 302 Lebedev grid points for each H atom
	Using 302 Lebedev grid points for other atoms
	Atomic van der Waals radii will be scaled by 1.20
 Removing interior tesserae...
 Keep 1145 surface tesserae and discard 2479 interior tesserae
 Molecular Surface Area = 164.340 Angst**2
 Nucleus-field energy     =     0.0000000004 hartrees
 Requested basis set is 6-31++G(d,p)
 There are 57 shells and 180 basis functions
 A cutoff of  1.0D-12 yielded   1574 shell pairs
 There are     16206 function pairs
 Smallest overlap matrix eigenvalue = 1.31E-04

 -----------------------------------------------------------------------
  General SCF calculation program by
  Eric Jon Sundstrom, Paul Horn, Yuezhi Mao, Dmitri Zuev, Alec White,
  David Stuck, Shaama M.S., Shane Yost, Joonho Lee, David Small,
  Daniel Levine, Susi Lehtola, Hugh Burton, Evgeny Epifanovsky
 -----------------------------------------------------------------------
 Exchange:     0.2220 Hartree-Fock + 1.0000 wB97X-D + LR-HF
 Correlation:  1.0000 wB97X-D
 Using SG-3 standard quadrature grid
 Dispersion:   Grimme D
 using 32 threads for integral computing
 -------------------------------------------------------
 OpenMP Integral computing Module                
 Release: version 1.0, May 2013, Q-Chem Inc. Pittsburgh 
 -------------------------------------------------------
 using 32 threads for integral computing
 -------------------------------------------------------
 OpenMP Integral computing Module                
 Release: version 1.0, May 2013, Q-Chem Inc. Pittsburgh 
 -------------------------------------------------------
 -------------------------------------------------------
 OpenMP BLAS3 based DFT computing Module                
 Release: version 1.0, May 2013, Q-Chem Inc. Pittsburgh 
 -------------------------------------------------------
 A restricted SCF calculation will be
 performed using DIIS, GDM
 SCF converges when RMS gradient is below 1.0e-08
 ---------------------------------------
  Cycle       Energy         DIIS error
 ---------------------------------------
    1    -784.9335546079      2.15e-05  
    2    -784.9335817990      5.65e-06  Done DIIS. Switching to GDM
 ---------------------------------------
  Cycle       Energy        RMS Gradient
 ---------------------------------------
    1    -784.9335817990      1.17e-04   Normal BFGS step
    2    -784.9335819784      7.02e-05   Normal BFGS step
    3    -784.9335820390      2.44e-05   Normal BFGS step
    4    -784.9335820534      4.38e-06   Normal BFGS step
    5    -784.9335820538      3.02e-06   Normal BFGS step
    6    -784.9335820539      1.25e-06   Normal BFGS step
    7    -784.9335820539      4.61e-07   Normal BFGS step
    8    -784.9335820539      1.04e-07   Normal BFGS step
    9    -784.9335820539      3.94e-08   Normal BFGS step
   10    -784.9335820539      1.81e-08   Normal BFGS step
   11    -784.9335820539      8.98e-09  Convergence criterion met
 ---------------------------------------
 SCF time:   CPU 461.20s  wall 18.00s 
(0)  E-EN(g) gas-phase elect-nuc energy                    0.000000000 a.u.
(3)  G-ENP(liq) elect-nuc-pol free energy of system     -784.933582054 a.u.
(4)  G-CDS(liq) cavity-dispersion-solvent structure 
     free energy                                               -0.3967 kcal/mol
(6)  G-S(liq) free energy of system                     -784.934214225 a.u.
(9)  DeltaG-S(liq) free energy of  solvation
     (9) = (6) - (0)                                      -492553.6535 kcal/mol
 SCF   energy in the final basis set =     -784.9335820539
 Total energy in the final basis set =     -784.9342142252
 
 --------------------------------------------------------------
 
                    Orbital Energies (a.u.)
 --------------------------------------------------------------
 
 Alpha MOs
 -- Occupied --
-89.382 -19.389 -19.389 -19.346 -19.345 -10.399 -10.399  -8.366
 -6.318  -6.316  -6.315  -2.164  -1.354  -1.228  -1.208  -1.177
 -0.926  -0.814  -0.778  -0.678  -0.671  -0.637  -0.622  -0.593
 -0.571  -0.540  -0.523  -0.510  -0.490  -0.487  -0.485  -0.440
 -0.429
 -- Virtual --
  0.008   0.017   0.017   0.019   0.042   0.062   0.066   0.068
  0.070   0.085   0.089   0.089   0.093   0.115   0.122   0.133
  0.135   0.135   0.140   0.149   0.171   0.175   0.179   0.195
  0.203   0.204   0.212   0.216   0.216   0.220   0.239   0.247
  0.264   0.273   0.276   0.278   0.292   0.307   0.321   0.342
  0.346   0.351   0.354   0.365   0.383   0.393   0.404   0.405
  0.415   0.422   0.427   0.444   0.471   0.501   0.567   0.581
  0.610   0.644   0.665   0.675   0.684   0.732   0.744   0.764
  0.769   0.783   0.828   0.849   0.865   0.901   1.014   1.018
  1.062   1.103   1.114   1.133   1.142   1.172   1.184   1.238
  1.248   1.251   1.307   1.321   1.332   1.377   1.382   1.405
  1.409   1.424   1.448   1.489   1.493   1.522   1.583   1.642
  1.655   1.667   1.691   1.755   1.798   1.835   1.846   1.861
  1.904   1.914   1.959   1.984   1.986   2.000   2.033   2.062
  2.097   2.112   2.176   2.193   2.213   2.267   2.279   2.346
  2.391   2.411   2.508   2.601   2.642   2.648   2.667   2.740
  2.757   2.810   2.835   2.916   2.935   2.941   2.973   3.116
  3.377   3.395   3.534   3.592   4.063   4.212   4.295   4.308
  4.378   4.530   4.757
 --------------------------------------------------------------
 
          Ground-State Mulliken Net Atomic Charges

     Atom                 Charge (a.u.)
  ----------------------------------------
      1 Li                    0.770909
      2 C                    -0.151728
      3 O                    -0.530367
      4 C                    -0.148293
      5 S                     1.791032
      6 O                    -0.535440
      7 O                    -0.593667
      8 O                    -0.588639
      9 H                     0.256041
     10 H                     0.237709
     11 H                     0.237506
     12 H                     0.254937
  ----------------------------------------
  Sum of atomic charges =     1.000000

 -----------------------------------------------------------------
                    Cartesian Multipole Moments
 -----------------------------------------------------------------
    Charge (ESU x 10^10)
                 4.8032
    Dipole Moment (Debye)
         X       3.5138      Y       0.1610      Z      -0.4598
       Tot       3.5474
    Quadrupole Moments (Debye-Ang)
        XX       6.5765     XY       0.4829     YY     -46.1931
        XZ      -1.2014     YZ       0.3522     ZZ     -50.3582
    Octopole Moments (Debye-Ang^2)
       XXX     112.3618    XXY       1.8216    XYY      -2.2421
       YYY       1.0878    XXZ      -5.2787    XYZ       2.8831
       YYZ      -1.2270    XZZ      -6.4141    YZZ       0.2486
       ZZZ      -3.7384
    Hexadecapole Moments (Debye-Ang^3)
      XXXX       6.2621   XXXY       4.9505   XXYY     -97.3419
      XYYY      -0.3144   YYYY    -189.1895   XXXZ     -15.4782
      XXYZ       8.3206   XYYZ      -0.4850   YYYZ      -0.0805
      XXZZ    -110.2256   XYZZ       0.4156   YYZZ     -55.5503
      XZZZ      -2.0794   YZZZ       0.9455   ZZZZ    -161.7267
 -----------------------------------------------------------------
 Calculating analytic gradient of the SCF energy
 Gradient of CDS energy
            1           2           3           4           5           6
    1   0.0000591  -0.0004580   0.0001885  -0.0004697  -0.0000278   0.0001885
    2  -0.0000045   0.0010642  -0.0001531  -0.0010636  -0.0000187   0.0001537
    3   0.0000093  -0.0000574  -0.0000901   0.0000391   0.0000280   0.0000859
            7           8           9          10          11          12
    1  -0.0001353  -0.0001256   0.0001876   0.0001774   0.0002309   0.0001843
    2  -0.0000220   0.0000296  -0.0000950  -0.0001244   0.0001292   0.0001047
    3   0.0000872  -0.0000987   0.0000190   0.0000670  -0.0000527  -0.0000366
 Gradient of SCF Energy
            1           2           3           4           5           6
    1   0.0063187   0.0418962  -0.0266485   0.0438459  -0.0058812  -0.0260672
    2   0.0000196  -0.0309090   0.0237669   0.0280037  -0.0003633  -0.0237149
    3  -0.0003030   0.0200714   0.0048306  -0.0151031  -0.0003723  -0.0056989
            7           8           9          10          11          12
    1   0.0196506   0.0204198  -0.0317503  -0.0044157  -0.0073552  -0.0300131
    2   0.0145671  -0.0142609   0.0171315   0.0140735  -0.0116047  -0.0167095
    3  -0.0407159   0.0418129   0.0294655  -0.0404899   0.0380024  -0.0314998
 Max gradient component =       4.385E-02
 RMS gradient           =       2.424E-02
 Computing VTN gradient.
 Updating gradient with PCM contributions...
 -- total gradient after adding PCM contribution --
---------------------------------------------------
  Atom         X              Y              Z     
---------------------------------------------------
   1      -0.000017       0.000116       0.000015
   2      -0.000056       0.000018       0.000049
   3      -0.000016      -0.000034       0.000083
   4       0.000040      -0.000009      -0.000061
   5       0.000089      -0.000055      -0.000033
   6      -0.000016       0.000025      -0.000092
   7      -0.000029       0.000088      -0.000020
   8      -0.000010      -0.000101      -0.000054
   9       0.000011      -0.000061       0.000106
  10       0.000027       0.000044       0.000143
  11       0.000009      -0.000088      -0.000063
  12      -0.000034       0.000056      -0.000073
---------------------------------------------------
 Number of fixed atoms: 0
 Gradient time:  CPU 76.65 s  wall 3.42 s
 Geometry Optimization Parameters
   NAtoms,    NIC,     NZ,  NCons,   NDum,   NFix, NCnnct, MaxDiis
       12     104       0       0       0       0       0       0

 Cartesian Hessian Update
 Hessian Updated using BFGS Update


** GEOMETRY OPTIMIZATION IN CARTESIAN COORDINATES **
   Searching for a Minimum

   Optimization Cycle:  77

                       Coordinates (Angstroms)
     ATOM                X               Y               Z
      1  Li        3.1357477530    0.0359551915   -0.0901930134
      2  C        -1.8531646202    0.7561512685   -0.0173473504
      3  O        -0.5136837173    1.0895878468    0.4894923796
      4  C        -1.8652472671   -0.7605344597    0.0032027763
      5  S         0.5220386713   -0.0095032771    0.0391863365
      6  O        -0.5016991777   -1.1200983752   -0.4120139294
      7  O         1.3377261947    0.3985260854   -1.1033446746
      8  O         1.3539207455   -0.4042100746    1.1688239557
      9  H        -2.5618876308    1.1997503530    0.6770927759
     10  H        -1.9471410549    1.1747744909   -1.0181605671
     11  H        -2.0324818310   -1.1654770112    0.9964760521
     12  H        -2.5357005267   -1.1948157770   -0.7338856301
   Point Group: c1    Number of degrees of freedom:    30


   Energy is   -784.934214225


 Translations and Rotations Projected Out of Hessian

 30 Hessian modes will be used to form the next step
  Hessian Eigenvalues:
     0.001698    0.013761    0.028546    0.037347    0.053367    0.062763
     0.069070    0.078805    0.094969    0.112752    0.123931    0.131428
     0.157138    0.197532    0.207516    0.217059    0.295464    0.309576
     0.348730    0.384870    0.519778    0.539681    0.689818    0.771697
     0.991766    1.087473    1.385379    1.628700    2.715482    6.982021

 Minimum Search - Taking Simple RFO Step
 Searching for Lamda that Minimizes Along All modes
 Value Taken    Lamda =  -0.00000655
 Step Taken.  Stepsize is  0.061455

                             Maximum     Tolerance    Cnvgd?
         Gradient           0.000143      0.000300     YES
         Displacement       0.047208      0.001200      NO
         Energy change      0.000000      0.000001     YES


                       Distance Matrix (Angstroms)
             Li(  1)   C (  2)   O (  3)   C (  4)   S (  5)   O (  6)
   C (  2)  5.041154
   O (  3)  3.842464  1.470468
   C (  4)  5.064886  1.516873  2.342254
   S (  5)  2.617304  2.496200  1.575912  2.502894
   O (  6)  3.830281  2.345748  2.386539  1.470019  1.576402
   O (  7)  2.095427  3.389553  2.538191  3.581467  1.461920  2.483474
   O (  8)  2.225708  3.610933  2.486136  3.442192  1.457361  2.540644
   H (  9)  5.865679  1.086883  2.059725  2.186813  3.373399  3.288195
   H ( 10)  5.290916  1.088900  2.082084  2.189820  2.935531  2.779057
   H ( 11)  5.416169  2.180057  2.765700  1.085605  2.962812  2.080673
   H ( 12)  5.839046  2.187591  3.286899  1.086926  3.369329  2.060666
             O (  7)   O (  8)   H (  9)   H ( 10)   H ( 11)
   O (  8)  2.409854
   H (  9)  4.361067  4.260052
   H ( 10)  3.376414  4.262992  1.803447
   H ( 11)  4.267746  3.475191  2.444704  3.089146
   H ( 12)  4.204601  4.401649  2.779477  2.458083  1.802288
 
 Final energy is   -784.934214225156     


 ******************************
 **  OPTIMIZATION CONVERGED  **
 ******************************

                       Coordinates (Angstroms)
     ATOM                X               Y               Z
      1  Li        3.1357477530    0.0359551915   -0.0901930134
      2  C        -1.8531646202    0.7561512685   -0.0173473504
      3  O        -0.5136837173    1.0895878468    0.4894923796
      4  C        -1.8652472671   -0.7605344597    0.0032027763
      5  S         0.5220386713   -0.0095032771    0.0391863365
      6  O        -0.5016991777   -1.1200983752   -0.4120139294
      7  O         1.3377261947    0.3985260854   -1.1033446746
      8  O         1.3539207455   -0.4042100746    1.1688239557
      9  H        -2.5618876308    1.1997503530    0.6770927759
     10  H        -1.9471410549    1.1747744909   -1.0181605671
     11  H        -2.0324818310   -1.1654770112    0.9964760521
     12  H        -2.5357005267   -1.1948157770   -0.7338856301

Z-matrix Print:
$molecule
1 1
S 
O  1 1.457361
O  1 1.461920 2 111.277446
O  1 1.575912 2 110.032567 3 -126.412621 0
C  4 1.470468 1 110.001251 2 -133.576402 0
H  5 1.086883 4 106.332491 1 152.460223 0
H  5 1.088900 4 107.953028 1 -87.229289 0
C  5 1.516873 4 103.256674 1 33.047314 0
H  8 1.085605 5 112.742328 4 78.490981 0
H  8 1.086926 5 113.280133 4 -152.851355 0
O  8 1.470019 5 103.494546 4 -38.019784 0
Li 3 2.095427 1 93.015054 2 0.365642 0
$end

 
 --------------------------------------------------------------
 
                    Orbital Energies (a.u.)
 --------------------------------------------------------------
 
 Alpha MOs
 -- Occupied --
-89.382 -19.389 -19.389 -19.346 -19.345 -10.399 -10.399  -8.366
 -6.318  -6.316  -6.315  -2.164  -1.354  -1.228  -1.208  -1.177
 -0.926  -0.814  -0.778  -0.678  -0.671  -0.637  -0.622  -0.593
 -0.571  -0.540  -0.523  -0.510  -0.490  -0.487  -0.485  -0.440
 -0.429
 -- Virtual --
  0.008   0.017   0.017   0.019   0.042   0.062   0.066   0.068
  0.070   0.085   0.089   0.089   0.093   0.115   0.122   0.133
  0.135   0.135   0.140   0.149   0.171   0.175   0.179   0.195
  0.203   0.204   0.212   0.216   0.216   0.220   0.239   0.247
  0.264   0.273   0.276   0.278   0.292   0.307   0.321   0.342
  0.346   0.351   0.354   0.365   0.383   0.393   0.404   0.405
  0.415   0.422   0.427   0.444   0.471   0.501   0.567   0.581
  0.610   0.644   0.665   0.675   0.684   0.732   0.744   0.764
  0.769   0.783   0.828   0.849   0.865   0.901   1.014   1.018
  1.062   1.103   1.114   1.133   1.142   1.172   1.184   1.238
  1.248   1.251   1.307   1.321   1.332   1.377   1.382   1.405
  1.409   1.424   1.448   1.489   1.493   1.522   1.583   1.642
  1.655   1.667   1.691   1.755   1.798   1.835   1.846   1.861
  1.904   1.914   1.959   1.984   1.986   2.000   2.033   2.062
  2.097   2.112   2.176   2.193   2.213   2.267   2.279   2.346
  2.391   2.411   2.508   2.601   2.642   2.648   2.667   2.740
  2.757   2.810   2.835   2.916   2.935   2.941   2.973   3.116
  3.377   3.395   3.534   3.592   4.063   4.212   4.295   4.308
  4.378   4.530   4.757
 --------------------------------------------------------------
 
          Ground-State Mulliken Net Atomic Charges

     Atom                 Charge (a.u.)
  ----------------------------------------
      1 Li                    0.770909
      2 C                    -0.151728
      3 O                    -0.530367
      4 C                    -0.148293
      5 S                     1.791032
      6 O                    -0.535440
      7 O                    -0.593667
      8 O                    -0.588639
      9 H                     0.256041
     10 H                     0.237709
     11 H                     0.237506
     12 H                     0.254937
  ----------------------------------------
  Sum of atomic charges =     1.000000

 -----------------------------------------------------------------
                    Cartesian Multipole Moments
 -----------------------------------------------------------------
    Charge (ESU x 10^10)
                 4.8032
    Dipole Moment (Debye)
         X       3.5138      Y       0.1610      Z      -0.4598
       Tot       3.5474
    Quadrupole Moments (Debye-Ang)
        XX       6.5765     XY       0.4829     YY     -46.1931
        XZ      -1.2014     YZ       0.3522     ZZ     -50.3582
    Octopole Moments (Debye-Ang^2)
       XXX     112.3618    XXY       1.8216    XYY      -2.2421
       YYY       1.0878    XXZ      -5.2787    XYZ       2.8831
       YYZ      -1.2270    XZZ      -6.4141    YZZ       0.2486
       ZZZ      -3.7384
    Hexadecapole Moments (Debye-Ang^3)
      XXXX       6.2621   XXXY       4.9505   XXYY     -97.3419
      XYYY      -0.3144   YYYY    -189.1895   XXXZ     -15.4782
      XXYZ       8.3206   XYYZ      -0.4850   YYYZ      -0.0805
      XXZZ    -110.2256   XYZZ       0.4156   YYZZ     -55.5503
      XZZZ      -2.0794   YZZZ       0.9455   ZZZZ    -161.7267
 -----------------------------------------------------------------
Archival summary:
1\1\nid01014\OPT\ProcedureUnspecified\BasisUnspecified\142i14(1+,1)\sblau\FriDec2815:26:022018FriDec2815:26:022018\0\\#,OPT,ProcedureUnspecified,BasisUnspecified,\\1,1\S\O,1,1.45736\O,1,1.46192,2,111.277\O,1,1.57591,2,110.033,3,-126.413,0\C,4,1.47047,1,110.001,2,-133.576,0\H,5,1.08688,4,106.332,1,152.46,0\H,5,1.0889,4,107.953,1,-87.2293,0\C,5,1.51687,4,103.257,1,33.0473,0\H,8,1.0856,5,112.742,4,78.491,0\H,8,1.08693,5,113.28,4,-152.851,0\O,8,1.47002,5,103.495,4,-38.0198,0\Li,3,2.09543,1,93.0151,2,0.365642,0\\\@

 Total job time:  1843.35s(wall), 46750.19s(cpu) 
 Fri Dec 28 15:26:02 2018

        *************************************************************
        *                                                           *
        *  Thank you very much for using Q-Chem.  Have a nice day.  *
        *                                                           *
        *************************************************************


