
Running Job 1 of 1 mol.qin
qchem mol.qin_25122.0 /tmp/chain_scratch/ 1
/global/common/cori/software/qchem/5.1/exe/qcprog.exe mol.qin_25122.0 /tmp/chain_scratch/
Check license passed

                  Welcome to Q-Chem
     A Quantum Leap Into The Future Of Chemistry


 Q-Chem 5.1, Q-Chem, Inc., Pleasanton, CA (2018)

 Yihan Shao,  Zhengting Gan,  E. Epifanovsky,  A. T. B. Gilbert,  M. Wormit,  
 J. Kussmann,  A. W. Lange,  A. Behn,  Jia Deng,  Xintian Feng,  D. Ghosh,  
 M. Goldey,  P. R. Horn,  L. D. Jacobson,  I. Kaliman,  T. Kus,  A. Landau,  
 Jie Liu,  E. I. Proynov,  R. M. Richard,  R. P. Steele,  E. J. Sundstrom,  
 H. L. Woodcock III,  P. M. Zimmerman,  D. Zuev,  B. Albrecht,  E. Alguire,  
 S. A. Baeppler,  D. Barton,  Z. Benda,  Y. A. Bernard,  E. J. Berquist,  
 K. B. Bravaya,  H. Burton,  D. Casanova,  Chun-Min Chang,  Yunqing Chen,  
 A. Chien,  K. D. Closser,  M. P. Coons,  S. Coriani,  S. Dasgupta,  
 A. L. Dempwolff,  M. Diedenhofen,  Hainam Do,  R. G. Edgar,  Po-Tung Fang,  
 S. Faraji,  S. Fatehi,  Qingguo Feng,  K. D. Fenk,  J. Fosso-Tande,  
 Qinghui Ge,  A. Ghysels,  G. Gidofalvi,  J. Gomes,  J. Gonthier,  A. Gunina,  
 D. Hait,  M. W. D. Hanson-Heine,  P. H. P. Harbach,  A. W. Hauser,  
 J. E. Herr,  E. G. Hohenstein,  Z. C. Holden,  Kerwin Hui,  B. C. Huynh,  
 T.-C. Jagau,  Hyunjun Ji,  B. Kaduk,  K. Khistyaev,  Jaehoon Kim,  
 P. Klunzinger,  K. Koh,  D. Kosenkov,  L. Koulias,  T. Kowalczyk,  
 C. M. Krauter,  A. Kunitsa,  Ka Un Lao,  A. Laurent,  K. V. Lawler,  
 Joonho Lee,  D. Lefrancois,  S. Lehtola,  D. S. Levine,  Yi-Pei Li,  
 You-Sheng Lin,  Fenglai Liu,  E. Livshits,  A. Luenser,  P. Manohar,  
 E. Mansoor,  S. F. Manzer,  Shan-Ping Mao,  Yuezhi Mao,  N. Mardirossian,  
 A. V. Marenich,  T. Markovich,  L. A. Martinez-Martinez,  S. A. Maurer,  
 N. J. Mayhall,  S. C. McKenzie,  J.-M. Mewes,  A. F. Morrison,  
 J. W. Mullinax,  K. Nanda,  T. S. Nguyen-Beck,  R. Olivares-Amaya,  
 J. A. Parkhill,  T. M. Perrine,  F. Plasser,  P. Pokhilko,  S. Prager,  
 A. Prociuk,  E. Ramos,  D. R. Rehn,  F. Rob,  M. Schneider,  N. Sergueev,  
 S. M. Sharada,  S. Sharma,  D. W. Small,  T. Stauch,  T. Stein,  
 Yu-Chuan Su,  A. J. W. Thom,  A. Tkatchenko,  T. Tsuchimochi,  N. M. Tubman,  
 L. Vogt,  M. L. Vidal,  O. Vydrov,  M. A. Watson,  J. Wenzel,  
 M. de Wergifosse,  T. A. Wesolowski,  A. White,  J. Witte,  A. Yamada,  
 Jun Yang,  K. Yao,  S. Yeganeh,  S. R. Yost,  Zhi-Qiang You,  A. Zech,  
 Igor Ying Zhang,  Xing Zhang,  Yan Zhao,  Ying Zhu,  B. R. Brooks,  
 G. K. L. Chan,  C. J. Cramer,  M. S. Gordon,  W. J. Hehre,  A. Klamt,  
 M. W. Schmidt,  C. D. Sherrill,  D. G. Truhlar,  A. Aspuru-Guzik,  R. Baer,  
 A. T. Bell,  N. A. Besley,  Jeng-Da Chai,  R. A. DiStasio Jr.,  A. Dreuw,  
 B. D. Dunietz,  T. R. Furlani,  Chao-Ping Hsu,  Yousung Jung,  Jing Kong,  
 D. S. Lambrecht,  WanZhen Liang,  C. Ochsenfeld,  V. A. Rassolov,  
 L. V. Slipchenko,  J. E. Subotnik,  T. Van Voorhis,  J. M. Herbert,  
 A. I. Krylov,  P. M. W. Gill,  M. Head-Gordon

 Contributors to earlier versions of Q-Chem not listed above: 
 R. D. Adamson,  B. Austin,  J. Baker,  G. J. O. Beran,  K. Brandhorst,  
 S. T. Brown,  E. F. C. Byrd,  A. K. Chakraborty,  C.-L. Cheng,  
 Siu Hung Chien,  D. M. Chipman,  D. L. Crittenden,  H. Dachsel,  
 R. J. Doerksen,  A. D. Dutoi,  L. Fusti-Molnar,  W. A. Goddard III,  
 A. Golubeva-Zadorozhnaya,  S. R. Gwaltney,  G. Hawkins,  A. Heyden,  
 S. Hirata,  G. Kedziora,  F. J. Keil,  C. Kelley,  Jihan Kim,  R. A. King,  
 R. Z. Khaliullin,  P. P. Korambath,  W. Kurlancheek,  A. M. Lee,  M. S. Lee,  
 S. V. Levchenko,  Ching Yeh Lin,  D. Liotard,  R. C. Lochan,  I. Lotan,  
 P. E. Maslen,  N. Nair,  D. P. O'Neill,  D. Neuhauser,  E. Neuscamman,  
 C. M. Oana,  R. Olson,  B. Peters,  R. Peverati,  P. A. Pieniazek,  
 Y. M. Rhee,  J. Ritchie,  M. A. Rohrdanz,  E. Rosta,  N. J. Russ,  
 H. F. Schaefer III,  N. E. Schultz,  N. Shenvi,  A. C. Simmonett,  A. Sodt,  
 D. Stuck,  K. S. Thanthiriwatte,  V. Vanovschi,  Tao Wang,  A. Warshel,  
 C. F. Williams,  Q. Wu,  X. Xu,  W. Zhang

 Please cite Q-Chem as follows:
 Y. Shao et al., Mol. Phys. 113, 184-215 (2015)
 DOI: 10.1080/00268976.2014.952696

 Q-Chem 5.1.0 for Intel X86 EM64T Linux

 Parts of Q-Chem use Armadillo 8.300.2 (Tropical Shenanigans).
 http://arma.sourceforge.net/

 Q-Chem begins on Fri Dec 28 17:06:18 2018  

Host: cori08
0

     Scratch files written to /tmp/chain_scratch//
 Jun2518 |scratch|qcdevops|jenkins|workspace|build_RNUM -1
Processing $rem in /global/common/cori/software/qchem/5.1/config/preferences.
 MEM_TOTAL  96000 
The previous job contains 0 fragments, simply inherited here
Symmetry turned off for PCM/SM12/SMD calculation

Checking the input file for inconsistencies... 	...done.

--------------------------------------------------------------
User input:
--------------------------------------------------------------
$molecule
read
$end

$rem
job_type = opt
basis = 6-31++g**
max_scf_cycles = 200
gen_scfman = true
xc_grid = 3
scf_algorithm = diis_gdm
method = wb97xd
geom_opt_max_cycles = 200
solvent_method = smd
ideriv = 1
scf_guess = read
geom_opt_hessian = read
$end

$smx
solvent acetonitrile
$end
--------------------------------------------------------------
 ----------------------------------------------------------------
             Standard Nuclear Orientation (Angstroms)
    I     Atom           X                Y                Z
 ----------------------------------------------------------------
    1      Li      3.1287087323     0.0337017459    -0.0431680295
    2      C      -1.8520932069     0.7558007462    -0.0147544007
    3      O      -0.5108094952     1.0862325813     0.4895977353
    4      C      -1.8658586344    -0.7608088831     0.0050016498
    5      S       0.5219863072    -0.0084878203     0.0231078458
    6      O      -0.5035583450    -1.1221598262    -0.4144864310
    7      O       1.3260580034     0.4034265730    -1.1245745088
    8      O       1.3681262444    -0.4027111751     1.1442691824
    9      H      -2.5584967557     1.2004576332     0.6813199554
   10      H      -1.9465430167     1.1745010127    -1.0151483297
   11      H      -2.0300758311    -1.1660708886     0.9985613727
   12      H      -2.5390164635    -1.1937754378    -0.7303969309
 ----------------------------------------------------------------
 Nuclear Repulsion Energy =   484.3217119276 hartrees
 There are       33 alpha and       33 beta electrons
 Requested basis set is 6-31++G(d,p)
 There are 57 shells and 180 basis functions

 Total QAlloc Memory Limit  96000 MB
 Mega-Array Size       188 MB
 MEM_STATIC part       192 MB
 A cutoff of  1.0D-12 yielded   1574 shell pairs
 There are     16206 function pairs
 
 -------------------------------------------------------
 OpenMP Integral Computing Module                       
 Release: version 1.0, May 2013, Q-Chem Inc. Pittsburgh 
 -------------------------------------------------------
 Integral Job Info:
 Integral job number is                      11
 Integral operator is                         1
 short-range coefficients              22203600
 long-range coefficients              100000000
 Omega coefficients                         200
 if combine SR and LR in K                    1
 Integral screening is                        0
 Integral computing path is                   2
 max size of driver memory is            800000
 size of driver memory is                593474
 size of scratch memory is             15604072
 max col of scratch BK array               1296
 max len of scratch array in speh3          155
 max len of scratch index in speh4           18
 max int batch size is                      520
 min int batch size is                       52
 fixed nKL is                                52
 max L of basis functions is                  2
 order of int derivative is                   0
 number of shells is                         57
 number of basis is                         180
 number of cartesian basis is               180
 number of contracted shell pairs          1574
 number of primitive shell pairs           5388
 maxK2 (contraction) of shell pair           36
 max number of K2 of shell pair               1
 max number of CS2 of shell pair            176
 max number of PS2 of shell pair           1056
 mem total for path MDJ                  537180
 -------------------------------------------------------
 Smallest overlap matrix eigenvalue = 1.31E-04

 Scale SEOQF with 1.000000e-02/1.000000e-02/1.000000e-02

 Standard Electronic Orientation quadrupole field applied
 Nucleus-field energy     =     0.0000000004 hartrees

 -----------------------------------------------------------------------
  General SCF calculation program by
  Eric Jon Sundstrom, Paul Horn, Yuezhi Mao, Dmitri Zuev, Alec White,
  David Stuck, Shaama M.S., Shane Yost, Joonho Lee, David Small,
  Daniel Levine, Susi Lehtola, Hugh Burton, Evgeny Epifanovsky
 -----------------------------------------------------------------------
 Exchange:     0.2220 Hartree-Fock + 1.0000 wB97X-D + LR-HF
 Correlation:  1.0000 wB97X-D
 Using SG-3 standard quadrature grid
 Dispersion:   Grimme D
 
 Citation of the SMD model:
 Marenich, A.V.; Cramer, C.J.; Truhlar, D.G.
 J. Phys. Chem. B 2009, 113, 6378-6396.
 iSolventCode=          53
 Solvent: acetonitrile                                                    
 
 vradii
            1           2           3           4           5           6
    1   2.1476001   1.8500000   2.1680000   1.8500000   2.4900000   2.1680000
            7           8           9          10          11          12
    1   2.1680000   2.1680000   1.2000000   1.2000000   1.2000000   1.2000000
Changing PCM_TESSEL_METHOD to VTN
Changing PCM_VDW_RADII to SMD_RADIUS
 Discretize the solute cavity surface with Lebedev spheres
	Using 302 Lebedev grid points for each H atom
	Using 302 Lebedev grid points for other atoms
	Atomic van der Waals radii will be scaled by 1.20
 Removing interior tesserae...
 Keep 1147 surface tesserae and discard 2477 interior tesserae
 Molecular Surface Area = 164.708 Angst**2
 
 Citation of the SMD model:
 Marenich, A.V.; Cramer, C.J.; Truhlar, D.G.
 J. Phys. Chem. B 2009, 113, 6378-6396.
 iSolventCode=          53
 Solvent: acetonitrile                                                    
 
 vradii
            1           2           3           4           5           6
    1   2.1476001   1.8500000   2.1680000   1.8500000   2.4900000   2.1680000
            7           8           9          10          11          12
    1   2.1680000   2.1680000   1.2000000   1.2000000   1.2000000   1.2000000
 
 Citation of the SMD model:
 Marenich, A.V.; Cramer, C.J.; Truhlar, D.G.
 J. Phys. Chem. B 2009, 113, 6378-6396.
 iSolventCode=          53
 Solvent: acetonitrile                                                    
 
 vradii
            1           2           3           4           5           6
    1   2.1476001   1.8500000   2.1680000   1.8500000   2.4900000   2.1680000
            7           8           9          10          11          12
    1   2.1680000   2.1680000   1.2000000   1.2000000   1.2000000   1.2000000
 using 32 threads for integral computing
 -------------------------------------------------------
 OpenMP Integral computing Module                
 Release: version 1.0, May 2013, Q-Chem Inc. Pittsburgh 
 -------------------------------------------------------
 using 32 threads for integral computing
 -------------------------------------------------------
 OpenMP Integral computing Module                
 Release: version 1.0, May 2013, Q-Chem Inc. Pittsburgh 
 -------------------------------------------------------
 -------------------------------------------------------
 OpenMP BLAS3 based DFT computing Module                
 Release: version 1.0, May 2013, Q-Chem Inc. Pittsburgh 
 -------------------------------------------------------
 A restricted SCF calculation will be
 performed using DIIS, GDM
 SCF converges when RMS gradient is below 1.0e-08
 ---------------------------------------
  Cycle       Energy         DIIS error
 ---------------------------------------
    1    -784.8385345149      4.03e-04  
    2    -784.9323596101      4.40e-04  Done DIIS. Switching to GDM
 ---------------------------------------
  Cycle       Energy        RMS Gradient
 ---------------------------------------
    1    -784.9323596101      6.45e-03   Normal BFGS step
    2    -784.9333348722      2.97e-03   Normal BFGS step
    3    -784.9335641012      1.22e-03   Normal BFGS step
    4    -784.9336018172      4.37e-04   Normal BFGS step
    5    -784.9336053519      2.26e-04   Normal BFGS step
    6    -784.9336062875      9.06e-05   Normal BFGS step
    7    -784.9336064080      5.15e-05   Normal BFGS step
    8    -784.9336064558      7.39e-06   Normal BFGS step
    9    -784.9336064578      6.18e-06   Normal BFGS step
   10    -784.9336064582      3.15e-06   Normal BFGS step
   11    -784.9336064584      8.10e-07   Normal BFGS step
   12    -784.9336064584      1.56e-07   Normal BFGS step
   13    -784.9336064584      3.26e-08   Normal BFGS step
   14    -784.9336064584      9.61e-09  Convergence criterion met
 ---------------------------------------
 SCF time:   CPU 586.10s  wall 23.00s 
(0)  E-EN(g) gas-phase elect-nuc energy                    0.000000000 a.u.
(3)  G-ENP(liq) elect-nuc-pol free energy of system     -784.933606458 a.u.
(4)  G-CDS(liq) cavity-dispersion-solvent structure 
     free energy                                               -0.3959 kcal/mol
(6)  G-S(liq) free energy of system                     -784.934237367 a.u.
(9)  DeltaG-S(liq) free energy of  solvation
     (9) = (6) - (0)                                      -492553.6681 kcal/mol
 SCF   energy in the final basis set =     -784.9336064584
 Total energy in the final basis set =     -784.9342373675
 
 --------------------------------------------------------------
 
                    Orbital Energies (a.u.)
 --------------------------------------------------------------
 
 Alpha MOs
 -- Occupied --
-89.382 -19.389 -19.389 -19.346 -19.346 -10.399 -10.399  -8.366
 -6.318  -6.317  -6.315  -2.163  -1.354  -1.228  -1.208  -1.177
 -0.927  -0.815  -0.779  -0.678  -0.672  -0.637  -0.623  -0.593
 -0.572  -0.540  -0.523  -0.510  -0.490  -0.487  -0.486  -0.441
 -0.429
 -- Virtual --
  0.008   0.017   0.017   0.019   0.042   0.062   0.066   0.068
  0.070   0.085   0.089   0.090   0.093   0.115   0.121   0.133
  0.135   0.135   0.140   0.149   0.171   0.175   0.179   0.195
  0.203   0.204   0.212   0.216   0.216   0.220   0.239   0.248
  0.265   0.272   0.276   0.278   0.293   0.306   0.320   0.342
  0.346   0.351   0.354   0.364   0.383   0.392   0.404   0.405
  0.415   0.422   0.427   0.444   0.471   0.501   0.568   0.581
  0.609   0.644   0.666   0.675   0.685   0.732   0.744   0.766
  0.770   0.783   0.828   0.849   0.865   0.903   1.014   1.019
  1.063   1.103   1.114   1.133   1.142   1.174   1.182   1.238
  1.247   1.251   1.307   1.321   1.331   1.377   1.382   1.405
  1.409   1.425   1.448   1.490   1.493   1.521   1.585   1.641
  1.656   1.667   1.695   1.756   1.797   1.838   1.847   1.862
  1.904   1.914   1.959   1.985   1.993   1.999   2.033   2.061
  2.092   2.110   2.176   2.193   2.213   2.266   2.278   2.346
  2.393   2.411   2.508   2.600   2.642   2.649   2.667   2.740
  2.757   2.810   2.835   2.916   2.935   2.941   2.972   3.116
  3.377   3.395   3.535   3.592   4.063   4.212   4.296   4.307
  4.379   4.530   4.757
 --------------------------------------------------------------
 
          Ground-State Mulliken Net Atomic Charges

     Atom                 Charge (a.u.)
  ----------------------------------------
      1 Li                    0.767513
      2 C                    -0.157832
      3 O                    -0.529307
      4 C                    -0.143474
      5 S                     1.795716
      6 O                    -0.536266
      7 O                    -0.593135
      8 O                    -0.590155
      9 H                     0.256239
     10 H                     0.237995
     11 H                     0.237821
     12 H                     0.254885
  ----------------------------------------
  Sum of atomic charges =     1.000000

 -----------------------------------------------------------------
                    Cartesian Multipole Moments
 -----------------------------------------------------------------
    Charge (ESU x 10^10)
                 4.8032
    Dipole Moment (Debye)
         X       3.4514      Y       0.1614      Z      -0.2448
       Tot       3.4638
    Quadrupole Moments (Debye-Ang)
        XX       6.3386     XY       0.4734     YY     -46.1847
        XZ      -0.6038     YZ       0.3650     ZZ     -50.3706
    Octopole Moments (Debye-Ang^2)
       XXX     111.1893    XXY       1.7946    XYY      -2.2979
       YYY       1.0839    XXZ      -2.8314    XYZ       2.9177
       YYZ      -0.7846    XZZ      -6.5305    YZZ       0.1536
       ZZZ      -2.2365
    Hexadecapole Moments (Debye-Ang^3)
      XXXX       2.0356   XXXY       4.7101   XXYY     -97.3527
      XYYY      -0.4671   YYYY    -189.1388   XXXZ      -8.3244
      XXYZ       8.4349   XYYZ      -0.3304   YYYZ      -0.0911
      XXZZ    -110.4513   XYZZ       0.2454   YYZZ     -55.4838
      XZZZ      -1.1845   YZZZ       0.9271   ZZZZ    -161.3214
 -----------------------------------------------------------------
 Calculating analytic gradient of the SCF energy
 Gradient of CDS energy
            1           2           3           4           5           6
    1   0.0000599  -0.0004847   0.0001893  -0.0004347  -0.0000234   0.0001875
    2   0.0000014   0.0010598  -0.0001511  -0.0010695   0.0000234   0.0001556
    3  -0.0000024  -0.0000318  -0.0000907   0.0000798  -0.0000377   0.0000855
            7           8           9          10          11          12
    1  -0.0001285  -0.0001332   0.0001844   0.0002447   0.0001511   0.0001876
    2  -0.0000281   0.0000239  -0.0001056  -0.0001278   0.0001235   0.0000945
    3   0.0000954  -0.0000898   0.0000374   0.0000503  -0.0000777  -0.0000183
 Gradient of SCF Energy
            1           2           3           4           5           6
    1   0.0059507   0.0414026  -0.0266221   0.0441562  -0.0055907  -0.0260890
    2   0.0001560  -0.0308660   0.0237937   0.0280134  -0.0007879  -0.0237692
    3  -0.0000661   0.0198628   0.0049392  -0.0153846   0.0006381  -0.0056146
            7           8           9          10          11          12
    1   0.0191224   0.0210810  -0.0317353  -0.0041994  -0.0073377  -0.0301386
    2   0.0147806  -0.0141918   0.0172241   0.0139387  -0.0116328  -0.0166588
    3  -0.0413862   0.0407943   0.0296952  -0.0403308   0.0382335  -0.0313808
 Max gradient component =       4.416E-02
 RMS gradient           =       2.423E-02
 Computing VTN gradient.
 Updating gradient with PCM contributions...
 -- total gradient after adding PCM contribution --
---------------------------------------------------
  Atom         X              Y              Z     
---------------------------------------------------
   1      -0.000157       0.000104       0.000098
   2      -0.000109       0.000049       0.000035
   3       0.000064      -0.000052       0.000058
   4      -0.000000      -0.000006       0.000003
   5      -0.000072      -0.000067      -0.000136
   6       0.000048       0.000070      -0.000123
   7      -0.000069       0.000079       0.000056
   8       0.000180      -0.000067      -0.000201
   9       0.000019      -0.000066       0.000143
  10       0.000086       0.000005       0.000177
  11       0.000028      -0.000099      -0.000065
  12      -0.000019       0.000048      -0.000045
---------------------------------------------------
 Number of fixed atoms: 0
 Gradient time:  CPU 77.53 s  wall 3.46 s
 Geometry Optimization Parameters
   NAtoms,    NIC,     NZ,  NCons,   NDum,   NFix, NCnnct, MaxDiis
       12     104       0       0       0       0       0       0

 Cartesian Hessian read from HESS file


** GEOMETRY OPTIMIZATION IN DELOCALIZED INTERNAL COORDINATES **
   Searching for a Minimum

   Optimization Cycle:   1

                       Coordinates (Angstroms)
     ATOM                X               Y               Z
      1  Li        3.1287087323    0.0337017459   -0.0431680295
      2  C        -1.8520932069    0.7558007462   -0.0147544007
      3  O        -0.5108094952    1.0862325813    0.4895977353
      4  C        -1.8658586344   -0.7608088831    0.0050016498
      5  S         0.5219863072   -0.0084878203    0.0231078458
      6  O        -0.5035583450   -1.1221598262   -0.4144864310
      7  O         1.3260580034    0.4034265730   -1.1245745088
      8  O         1.3681262444   -0.4027111751    1.1442691824
      9  H        -2.5584967557    1.2004576332    0.6813199554
     10  H        -1.9465430167    1.1745010127   -1.0151483297
     11  H        -2.0300758311   -1.1660708886    0.9985613727
     12  H        -2.5390164635   -1.1937754378   -0.7303969309
   Point Group: c1    Number of degrees of freedom:    30


   Energy is   -784.934237367


 Attempting to Generate Delocalized Internal Coordinates

Intel MKL ERROR: Parameter 5 was incorrect on entry to DSYEVD.

Intel MKL ERROR: Parameter 5 was incorrect on entry to DSYEVD.
 Info = -5

 Q-Chem warning in module liblas/diagon.C, line 97:

 Call to dsyevd failed in Diagonalize


Intel MKL ERROR: Parameter 5 was incorrect on entry to DSYEV.

  ***ERROR*** Unable to Diagonalize B*B(t) in <MakeNIC>
**WARNING** Problems with Internal Coordinates
  Switching to Cartesian Coordinates

 Translations and Rotations Projected Out of Hessian

 30 Hessian modes will be used to form the next step
  Hessian Eigenvalues:
     0.000448    0.001788    0.008856    0.015502    0.026968    0.039030
     0.045295    0.053900    0.069892    0.085530    0.096895    0.105583
     0.130739    0.171850    0.187367    0.188342    0.206173    0.249631
     0.294180    0.325837    0.447164    0.484330    0.570149    0.696214
     0.893247    0.946050    1.244427    1.317527    1.458128    2.536496

 Minimum Search - Taking Simple RFO Step
 Searching for Lamda that Minimizes Along All modes
 Value Taken    Lamda =  -0.00009237
 Calculated Step too Large.  Step scaled by  0.754982
 Step Taken.  Stepsize is  0.300000

                             Maximum     Tolerance    Cnvgd?
         Gradient           0.000201      0.000300     YES
         Displacement       0.222054      0.001200      NO
         Energy change     *********      0.000001      NO

 ----------------------------------------------------------------
             Standard Nuclear Orientation (Angstroms)
    I     Atom           X                Y                Z
 ----------------------------------------------------------------
    1      Li      3.1386406629     0.0394930865    -0.1606740433
    2      C      -1.8542960391     0.7564559039    -0.0209299079
    3      O      -0.5185517813     1.0916950359     0.4949513701
    4      C      -1.8639193890    -0.7599850287    -0.0007899518
    5      S       0.5217570439    -0.0116966103     0.0643079504
    6      O      -0.4986502595    -1.1154353205    -0.4140559320
    7      O       1.3554655554     0.3980892284    -1.0673760378
    8      O       1.3352472808    -0.4128293791     1.2030044159
    9      H      -2.5683424088     1.1982718588     0.6692633217
   10      H      -1.9455220093     1.1765404029    -1.0221697730
   11      H      -2.0321342607    -1.1640055480     0.9932087336
   12      H      -2.5312668568    -1.1964873685    -0.7394110351
 ----------------------------------------------------------------
 Nuclear Repulsion Energy =   484.0392520835 hartrees
 There are       33 alpha and       33 beta electrons
 Discretize the solute cavity surface with Lebedev spheres
	Using 302 Lebedev grid points for each H atom
	Using 302 Lebedev grid points for other atoms
	Atomic van der Waals radii will be scaled by 1.20
 Removing interior tesserae...
 Keep 1148 surface tesserae and discard 2476 interior tesserae
 Molecular Surface Area = 164.825 Angst**2
 Nucleus-field energy     =     0.0000000004 hartrees
 Requested basis set is 6-31++G(d,p)
 There are 57 shells and 180 basis functions
 A cutoff of  1.0D-12 yielded   1574 shell pairs
 There are     16206 function pairs
 Smallest overlap matrix eigenvalue = 1.31E-04

 -----------------------------------------------------------------------
  General SCF calculation program by
  Eric Jon Sundstrom, Paul Horn, Yuezhi Mao, Dmitri Zuev, Alec White,
  David Stuck, Shaama M.S., Shane Yost, Joonho Lee, David Small,
  Daniel Levine, Susi Lehtola, Hugh Burton, Evgeny Epifanovsky
 -----------------------------------------------------------------------
 Exchange:     0.2220 Hartree-Fock + 1.0000 wB97X-D + LR-HF
 Correlation:  1.0000 wB97X-D
 Using SG-3 standard quadrature grid
 Dispersion:   Grimme D
 using 32 threads for integral computing
 -------------------------------------------------------
 OpenMP Integral computing Module                
 Release: version 1.0, May 2013, Q-Chem Inc. Pittsburgh 
 -------------------------------------------------------
 using 32 threads for integral computing
 -------------------------------------------------------
 OpenMP Integral computing Module                
 Release: version 1.0, May 2013, Q-Chem Inc. Pittsburgh 
 -------------------------------------------------------
 -------------------------------------------------------
 OpenMP BLAS3 based DFT computing Module                
 Release: version 1.0, May 2013, Q-Chem Inc. Pittsburgh 
 -------------------------------------------------------
 A restricted SCF calculation will be
 performed using DIIS, GDM
 SCF converges when RMS gradient is below 1.0e-08
 ---------------------------------------
  Cycle       Energy         DIIS error
 ---------------------------------------
    1    -784.9323465540      5.80e-04  
    2    -784.9333051273      2.57e-04  Done DIIS. Switching to GDM
 ---------------------------------------
  Cycle       Energy        RMS Gradient
 ---------------------------------------
    1    -784.9333051273      5.19e-03   Normal BFGS step
    2    -784.9332410924      5.81e-03  Line search: overstep
    3    -784.9335252784      1.10e-03   Normal BFGS step
    4    -784.9335767877      3.52e-04   Normal BFGS step
    5    -784.9335784895      6.77e-05   Normal BFGS step
    6    -784.9335785832      4.73e-05   Normal BFGS step
    7    -784.9335786169      1.51e-05   Normal BFGS step
    8    -784.9335786221      5.25e-06   Normal BFGS step
    9    -784.9335786231      1.15e-06   Normal BFGS step
   10    -784.9335786231      5.15e-07   Normal BFGS step
   11    -784.9335786231      2.52e-07   Normal BFGS step
   12    -784.9335786231      8.57e-08   Normal BFGS step
   13    -784.9335786231      2.94e-08   Normal BFGS step
   14    -784.9335786231      1.54e-08   Normal BFGS step
   15    -784.9335786231      6.57e-09  Convergence criterion met
 ---------------------------------------
 SCF time:   CPU 607.08s  wall 23.00s 
(0)  E-EN(g) gas-phase elect-nuc energy                    0.000000000 a.u.
(3)  G-ENP(liq) elect-nuc-pol free energy of system     -784.933578623 a.u.
(4)  G-CDS(liq) cavity-dispersion-solvent structure 
     free energy                                               -0.3959 kcal/mol
(6)  G-S(liq) free energy of system                     -784.934209532 a.u.
(9)  DeltaG-S(liq) free energy of  solvation
     (9) = (6) - (0)                                      -492553.6506 kcal/mol
 SCF   energy in the final basis set =     -784.9335786231
 Total energy in the final basis set =     -784.9342095322
 
 --------------------------------------------------------------
 
                    Orbital Energies (a.u.)
 --------------------------------------------------------------
 
 Alpha MOs
 -- Occupied --
-89.382 -19.389 -19.388 -19.346 -19.344 -10.399 -10.399  -8.366
 -6.318  -6.316  -6.315  -2.163  -1.353  -1.227  -1.207  -1.177
 -0.926  -0.814  -0.778  -0.678  -0.671  -0.637  -0.622  -0.592
 -0.571  -0.540  -0.523  -0.510  -0.489  -0.487  -0.485  -0.440
 -0.428
 -- Virtual --
  0.008   0.017   0.017   0.019   0.042   0.062   0.066   0.068
  0.070   0.085   0.089   0.090   0.092   0.115   0.122   0.133
  0.134   0.136   0.141   0.149   0.172   0.174   0.179   0.195
  0.203   0.204   0.212   0.215   0.217   0.220   0.238   0.246
  0.262   0.274   0.274   0.279   0.291   0.309   0.321   0.342
  0.346   0.351   0.354   0.365   0.382   0.393   0.404   0.405
  0.414   0.421   0.428   0.444   0.471   0.503   0.566   0.582
  0.611   0.643   0.663   0.675   0.687   0.730   0.743   0.762
  0.770   0.788   0.827   0.849   0.865   0.900   1.012   1.019
  1.059   1.104   1.115   1.139   1.144   1.169   1.189   1.238
  1.250   1.251   1.307   1.321   1.336   1.374   1.380   1.403
  1.409   1.422   1.446   1.488   1.495   1.523   1.583   1.644
  1.654   1.667   1.688   1.754   1.802   1.824   1.846   1.860
  1.906   1.913   1.959   1.975   1.985   2.001   2.033   2.064
  2.107   2.141   2.175   2.194   2.214   2.267   2.279   2.346
  2.389   2.411   2.508   2.600   2.641   2.648   2.667   2.739
  2.757   2.810   2.834   2.914   2.935   2.941   2.973   3.116
  3.376   3.394   3.534   3.592   4.064   4.212   4.292   4.307
  4.377   4.530   4.757
 --------------------------------------------------------------
 
          Ground-State Mulliken Net Atomic Charges

     Atom                 Charge (a.u.)
  ----------------------------------------
      1 Li                    0.772118
      2 C                    -0.142482
      3 O                    -0.531538
      4 C                    -0.154241
      5 S                     1.782154
      6 O                    -0.533346
      7 O                    -0.594116
      8 O                    -0.584591
      9 H                     0.255950
     10 H                     0.237270
     11 H                     0.237637
     12 H                     0.255184
  ----------------------------------------
  Sum of atomic charges =     1.000000

 -----------------------------------------------------------------
                    Cartesian Multipole Moments
 -----------------------------------------------------------------
    Charge (ESU x 10^10)
                 4.8032
    Dipole Moment (Debye)
         X       3.5447      Y       0.1583      Z      -0.7738
       Tot       3.6317
    Quadrupole Moments (Debye-Ang)
        XX       6.6817     XY       0.4918     YY     -46.2057
        XZ      -2.0933     YZ       0.3468     ZZ     -50.2893
    Octopole Moments (Debye-Ang^2)
       XXX     112.8822    XXY       1.8892    XYY      -2.2271
       YYY       1.1406    XXZ      -8.9716    XYZ       2.8702
       YYZ      -1.9038    XZZ      -6.0874    YZZ       0.4010
       ZZZ      -6.0362
    Hexadecapole Moments (Debye-Ang^3)
      XXXX       8.1201   XXXY       5.2644   XXYY     -97.3647
      XYYY      -0.0873   YYYY    -189.2723   XXXZ     -26.2763
      XXYZ       8.2172   XYYZ      -0.7395   YYYZ      -0.0211
      XXZZ    -109.4517   XYZZ       0.7042   YYZZ     -55.6869
      XZZZ      -3.5770   YZZZ       1.0332   ZZZZ    -162.3952
 -----------------------------------------------------------------
 Calculating analytic gradient of the SCF energy
 Gradient of CDS energy
            1           2           3           4           5           6
    1   0.0000599  -0.0004847   0.0001893  -0.0004347  -0.0000234   0.0001875
    2   0.0000014   0.0010598  -0.0001511  -0.0010695   0.0000234   0.0001556
    3  -0.0000024  -0.0000318  -0.0000907   0.0000798  -0.0000377   0.0000855
            7           8           9          10          11          12
    1  -0.0001285  -0.0001332   0.0001844   0.0002447   0.0001511   0.0001876
    2  -0.0000281   0.0000239  -0.0001056  -0.0001278   0.0001235   0.0000945
    3   0.0000954  -0.0000898   0.0000374   0.0000503  -0.0000777  -0.0000183
 Gradient of SCF Energy
            1           2           3           4           5           6
    1   0.0056777   0.0429399  -0.0269508   0.0433788  -0.0078141  -0.0262747
    2  -0.0001846  -0.0310637   0.0238270   0.0280127   0.0002544  -0.0238389
    3  -0.0007012   0.0205516   0.0047593  -0.0149732  -0.0017144  -0.0064831
            7           8           9          10          11          12
    1   0.0217906   0.0213505  -0.0319981  -0.0048373  -0.0073974  -0.0298651
    2   0.0144920  -0.0146557   0.0170803   0.0143900  -0.0114464  -0.0168672
    3  -0.0391509   0.0431480   0.0290331  -0.0409229   0.0381855  -0.0317317
 Max gradient component =       4.338E-02
 RMS gradient           =       2.443E-02
 Computing VTN gradient.
 Updating gradient with PCM contributions...
 -- total gradient after adding PCM contribution --
---------------------------------------------------
  Atom         X              Y              Z     
---------------------------------------------------
   1      -0.000703      -0.000162      -0.000324
   2       0.000218      -0.000111       0.000324
   3      -0.000267       0.000070       0.000032
   4      -0.000088       0.000120      -0.000209
   5      -0.000550       0.000183       0.000024
   6      -0.000232      -0.000183      -0.000531
   7       0.000904       0.000150       0.000334
   8       0.001038      -0.000116       0.000312
   9      -0.000060      -0.000028      -0.000082
  10      -0.000256       0.000210      -0.000146
  11      -0.000100      -0.000142       0.000406
  12       0.000096       0.000009      -0.000140
---------------------------------------------------
 Number of fixed atoms: 0
 Gradient time:  CPU 77.61 s  wall 3.46 s
 Geometry Optimization Parameters
   NAtoms,    NIC,     NZ,  NCons,   NDum,   NFix, NCnnct, MaxDiis
       12     104       0       0       0       0       0       0

 Cartesian Hessian Update
 Hessian Updated using BFGS Update


** GEOMETRY OPTIMIZATION IN CARTESIAN COORDINATES **
   Searching for a Minimum

   Optimization Cycle:   2

                       Coordinates (Angstroms)
     ATOM                X               Y               Z
      1  Li        3.1386406629    0.0394930865   -0.1606740433
      2  C        -1.8542960391    0.7564559039   -0.0209299079
      3  O        -0.5185517813    1.0916950359    0.4949513701
      4  C        -1.8639193890   -0.7599850287   -0.0007899518
      5  S         0.5217570439   -0.0116966103    0.0643079504
      6  O        -0.4986502595   -1.1154353205   -0.4140559320
      7  O         1.3554655554    0.3980892284   -1.0673760378
      8  O         1.3352472808   -0.4128293791    1.2030044159
      9  H        -2.5683424088    1.1982718588    0.6692633217
     10  H        -1.9455220093    1.1765404029   -1.0221697730
     11  H        -2.0321342607   -1.1640055480    0.9932087336
     12  H        -2.5312668568   -1.1964873685   -0.7394110351
   Point Group: c1    Number of degrees of freedom:    30


   Energy is   -784.934209532


 Translations and Rotations Projected Out of Hessian

 30 Hessian modes will be used to form the next step
  Hessian Eigenvalues:
     0.001117    0.002769    0.008910    0.015509    0.028313    0.039081
     0.045297    0.053975    0.069866    0.088077    0.097637    0.106354
     0.131340    0.172547    0.187367    0.188737    0.206129    0.249764
     0.294501    0.326753    0.447274    0.485546    0.571323    0.696695
     0.893304    0.946048    1.245908    1.321547    1.458342    2.537733

 Minimum Search - Taking Simple RFO Step
 Searching for Lamda that Minimizes Along All modes
 Value Taken    Lamda =  -0.00008063
 Step Taken.  Stepsize is  0.151843

                             Maximum     Tolerance    Cnvgd?
         Gradient           0.001038      0.000300      NO
         Displacement       0.111028      0.001200      NO
         Energy change      0.000028      0.000001      NO

 ----------------------------------------------------------------
             Standard Nuclear Orientation (Angstroms)
    I     Atom           X                Y                Z
 ----------------------------------------------------------------
    1      Li      3.1409974491     0.0453973755    -0.1019207215
    2      C      -1.8525131825     0.7564143525    -0.0177161497
    3      O      -0.5137345356     1.0878367758     0.4917212246
    4      C      -1.8661836163    -0.7602175348     0.0018651576
    5      S       0.5216821134    -0.0127322135     0.0435903345
    6      O      -0.5025830277    -1.1210579507    -0.4122078973
    7      O       1.3389454524     0.3963780259    -1.0976889114
    8      O       1.3499946983    -0.4095775792     1.1743615591
    9      H      -2.5618518149     1.1999297110     0.6762068690
   10      H      -1.9457453640     1.1762959522    -1.0182619300
   11      H      -2.0340377281    -1.1649421461     0.9952289531
   12      H      -2.5365429052    -1.1936185074    -0.7358493772
 ----------------------------------------------------------------
 Nuclear Repulsion Energy =   484.1453721608 hartrees
 There are       33 alpha and       33 beta electrons
 Discretize the solute cavity surface with Lebedev spheres
	Using 302 Lebedev grid points for each H atom
	Using 302 Lebedev grid points for other atoms
	Atomic van der Waals radii will be scaled by 1.20
 Removing interior tesserae...
 Keep 1144 surface tesserae and discard 2480 interior tesserae
 Molecular Surface Area = 164.097 Angst**2
 Nucleus-field energy     =     0.0000000004 hartrees
 Requested basis set is 6-31++G(d,p)
 There are 57 shells and 180 basis functions
 A cutoff of  1.0D-12 yielded   1574 shell pairs
 There are     16206 function pairs
 Smallest overlap matrix eigenvalue = 1.31E-04

 -----------------------------------------------------------------------
  General SCF calculation program by
  Eric Jon Sundstrom, Paul Horn, Yuezhi Mao, Dmitri Zuev, Alec White,
  David Stuck, Shaama M.S., Shane Yost, Joonho Lee, David Small,
  Daniel Levine, Susi Lehtola, Hugh Burton, Evgeny Epifanovsky
 -----------------------------------------------------------------------
 Exchange:     0.2220 Hartree-Fock + 1.0000 wB97X-D + LR-HF
 Correlation:  1.0000 wB97X-D
 Using SG-3 standard quadrature grid
 Dispersion:   Grimme D
 using 32 threads for integral computing
 -------------------------------------------------------
 OpenMP Integral computing Module                
 Release: version 1.0, May 2013, Q-Chem Inc. Pittsburgh 
 -------------------------------------------------------
 using 32 threads for integral computing
 -------------------------------------------------------
 OpenMP Integral computing Module                
 Release: version 1.0, May 2013, Q-Chem Inc. Pittsburgh 
 -------------------------------------------------------
 -------------------------------------------------------
 OpenMP BLAS3 based DFT computing Module                
 Release: version 1.0, May 2013, Q-Chem Inc. Pittsburgh 
 -------------------------------------------------------
 A restricted SCF calculation will be
 performed using DIIS, GDM
 SCF converges when RMS gradient is below 1.0e-08
 ---------------------------------------
  Cycle       Energy         DIIS error
 ---------------------------------------
    1    -784.9316572431      2.97e-04  
    2    -784.9335042824      1.24e-04  Done DIIS. Switching to GDM
 ---------------------------------------
  Cycle       Energy        RMS Gradient
 ---------------------------------------
    1    -784.9335042824      2.53e-03   Normal BFGS step
    2    -784.9334941557      2.67e-03  Line search: overstep
    3    -784.9335570296      5.95e-04   Normal BFGS step
    4    -784.9335704948      1.71e-04   Normal BFGS step
    5    -784.9335708908      4.66e-05   Normal BFGS step
    6    -784.9335709192      3.92e-05   Normal BFGS step
    7    -784.9335709374      4.91e-06   Normal BFGS step
    8    -784.9335709382      3.94e-06   Normal BFGS step
    9    -784.9335709385      9.08e-07   Normal BFGS step
   10    -784.9335709385      5.36e-07   Normal BFGS step
   11    -784.9335709385      8.84e-08   Normal BFGS step
   12    -784.9335709385      3.66e-08   Normal BFGS step
   13    -784.9335709385      1.01e-08   Normal BFGS step
   14    -784.9335709385      1.16e-08   Normal BFGS step
   15    -784.9335709385      8.39e-10  Convergence criterion met
 ---------------------------------------
 SCF time:   CPU 608.32s  wall 23.00s 
(0)  E-EN(g) gas-phase elect-nuc energy                    0.000000000 a.u.
(3)  G-ENP(liq) elect-nuc-pol free energy of system     -784.933570938 a.u.
(4)  G-CDS(liq) cavity-dispersion-solvent structure 
     free energy                                               -0.3959 kcal/mol
(6)  G-S(liq) free energy of system                     -784.934201848 a.u.
(9)  DeltaG-S(liq) free energy of  solvation
     (9) = (6) - (0)                                      -492553.6458 kcal/mol
 SCF   energy in the final basis set =     -784.9335709385
 Total energy in the final basis set =     -784.9342018476
 
 --------------------------------------------------------------
 
                    Orbital Energies (a.u.)
 --------------------------------------------------------------
 
 Alpha MOs
 -- Occupied --
-89.382 -19.389 -19.388 -19.346 -19.345 -10.399 -10.399  -8.366
 -6.318  -6.316  -6.315  -2.164  -1.354  -1.227  -1.207  -1.177
 -0.926  -0.814  -0.778  -0.678  -0.671  -0.637  -0.622  -0.592
 -0.571  -0.540  -0.523  -0.510  -0.489  -0.487  -0.485  -0.440
 -0.428
 -- Virtual --
  0.008   0.017   0.017   0.019   0.042   0.061   0.066   0.068
  0.070   0.085   0.089   0.089   0.093   0.115   0.122   0.133
  0.135   0.135   0.140   0.149   0.171   0.175   0.179   0.195
  0.203   0.204   0.212   0.216   0.216   0.220   0.239   0.247
  0.264   0.273   0.275   0.278   0.292   0.307   0.321   0.341
  0.346   0.351   0.354   0.365   0.382   0.393   0.404   0.405
  0.415   0.422   0.427   0.444   0.471   0.501   0.567   0.581
  0.610   0.644   0.664   0.675   0.684   0.731   0.743   0.763
  0.769   0.783   0.827   0.848   0.865   0.900   1.013   1.018
  1.062   1.103   1.114   1.132   1.143   1.171   1.185   1.238
  1.248   1.251   1.307   1.321   1.333   1.377   1.382   1.405
  1.409   1.423   1.447   1.489   1.493   1.522   1.583   1.642
  1.655   1.667   1.689   1.755   1.798   1.834   1.846   1.861
  1.904   1.914   1.959   1.982   1.985   2.001   2.033   2.063
  2.097   2.113   2.176   2.193   2.214   2.267   2.279   2.346
  2.391   2.411   2.508   2.601   2.642   2.648   2.667   2.740
  2.757   2.810   2.835   2.916   2.935   2.941   2.973   3.117
  3.376   3.395   3.534   3.592   4.063   4.212   4.295   4.308
  4.378   4.530   4.757
 --------------------------------------------------------------
 
          Ground-State Mulliken Net Atomic Charges

     Atom                 Charge (a.u.)
  ----------------------------------------
      1 Li                    0.773400
      2 C                    -0.150556
      3 O                    -0.530563
      4 C                    -0.148653
      5 S                     1.788515
      6 O                    -0.535379
      7 O                    -0.594333
      8 O                    -0.588156
      9 H                     0.256031
     10 H                     0.237480
     11 H                     0.237269
     12 H                     0.254947
  ----------------------------------------
  Sum of atomic charges =     1.000000

 -----------------------------------------------------------------
                    Cartesian Multipole Moments
 -----------------------------------------------------------------
    Charge (ESU x 10^10)
                 4.8032
    Dipole Moment (Debye)
         X       3.5595      Y       0.2053      Z      -0.5130
       Tot       3.6021
    Quadrupole Moments (Debye-Ang)
        XX       6.7566     XY       0.6154     YY     -46.2014
        XZ      -1.3467     YZ       0.3514     ZZ     -50.3551
    Octopole Moments (Debye-Ang^2)
       XXX     113.2655    XXY       2.3433    XYY      -2.1936
       YYY       1.3588    XXZ      -5.9177    XYZ       2.8694
       YYZ      -1.3539    XZZ      -6.3345    YZZ       0.3627
       ZZZ      -4.1347
    Hexadecapole Moments (Debye-Ang^3)
      XXXX       9.5723   XXXY       6.4707   XXYY     -97.3267
      XYYY      -0.2441   YYYY    -189.2665   XXXZ     -17.3236
      XXYZ       8.2781   XYYZ      -0.5513   YYYZ      -0.0563
      XXZZ    -110.0958   XYZZ       0.5053   YYZZ     -55.5949
      XZZZ      -2.3411   YZZZ       0.9866   ZZZZ    -161.8778
 -----------------------------------------------------------------
 Calculating analytic gradient of the SCF energy
 Gradient of CDS energy
            1           2           3           4           5           6
    1   0.0000599  -0.0004847   0.0001893  -0.0004347  -0.0000234   0.0001875
    2   0.0000014   0.0010598  -0.0001511  -0.0010695   0.0000234   0.0001556
    3  -0.0000024  -0.0000318  -0.0000907   0.0000798  -0.0000377   0.0000855
            7           8           9          10          11          12
    1  -0.0001285  -0.0001332   0.0001844   0.0002447   0.0001511   0.0001876
    2  -0.0000281   0.0000239  -0.0001056  -0.0001278   0.0001235   0.0000945
    3   0.0000954  -0.0000898   0.0000374   0.0000503  -0.0000777  -0.0000183
 Gradient of SCF Energy
            1           2           3           4           5           6
    1   0.0066311   0.0421009  -0.0265364   0.0437252  -0.0060946  -0.0259862
    2   0.0001004  -0.0309861   0.0237461   0.0278966  -0.0003720  -0.0236333
    3  -0.0003048   0.0200423   0.0048392  -0.0150332  -0.0005133  -0.0057511
            7           8           9          10          11          12
    1   0.0194882   0.0202399  -0.0317398  -0.0045176  -0.0073266  -0.0299840
    2   0.0145241  -0.0144244   0.0171201   0.0141855  -0.0115203  -0.0166366
    3  -0.0405200   0.0419314   0.0294104  -0.0405336   0.0379600  -0.0315275
 Max gradient component =       4.373E-02
 RMS gradient           =       2.422E-02
 Computing VTN gradient.
 Updating gradient with PCM contributions...
 -- total gradient after adding PCM contribution --
---------------------------------------------------
  Atom         X              Y              Z     
---------------------------------------------------
   1       0.000157       0.000077       0.000030
   2       0.000020       0.000009      -0.000008
   3       0.000009      -0.000049       0.000097
   4       0.000062       0.000052      -0.000116
   5       0.000113      -0.000058      -0.000010
   6       0.000051       0.000017      -0.000088
   7      -0.000238       0.000090       0.000021
   8      -0.000111      -0.000100      -0.000096
   9      -0.000007      -0.000064       0.000138
  10      -0.000002       0.000067       0.000088
  11      -0.000015      -0.000099       0.000033
  12      -0.000039       0.000057      -0.000088
---------------------------------------------------
 Number of fixed atoms: 0
 Gradient time:  CPU 77.34 s  wall 3.44 s
 Geometry Optimization Parameters
   NAtoms,    NIC,     NZ,  NCons,   NDum,   NFix, NCnnct, MaxDiis
       12     104       0       0       0       0       0       0

 Cartesian Hessian Update
 Hessian Updated using BFGS Update


** GEOMETRY OPTIMIZATION IN CARTESIAN COORDINATES **
   Searching for a Minimum

   Optimization Cycle:   3

                       Coordinates (Angstroms)
     ATOM                X               Y               Z
      1  Li        3.1409974491    0.0453973755   -0.1019207215
      2  C        -1.8525131825    0.7564143525   -0.0177161497
      3  O        -0.5137345356    1.0878367758    0.4917212246
      4  C        -1.8661836163   -0.7602175348    0.0018651576
      5  S         0.5216821134   -0.0127322135    0.0435903345
      6  O        -0.5025830277   -1.1210579507   -0.4122078973
      7  O         1.3389454524    0.3963780259   -1.0976889114
      8  O         1.3499946983   -0.4095775792    1.1743615591
      9  H        -2.5618518149    1.1999297110    0.6762068690
     10  H        -1.9457453640    1.1762959522   -1.0182619300
     11  H        -2.0340377281   -1.1649421461    0.9952289531
     12  H        -2.5365429052   -1.1936185074   -0.7358493772
   Point Group: c1    Number of degrees of freedom:    30


   Energy is   -784.934201848


 Translations and Rotations Projected Out of Hessian

 30 Hessian modes will be used to form the next step
  Hessian Eigenvalues:
     0.001090    0.003103    0.008936    0.015384    0.029893    0.039157
     0.045296    0.053890    0.069876    0.089972    0.097716    0.106400
     0.131348    0.172701    0.187450    0.188166    0.206129    0.249888
     0.294881    0.326186    0.447182    0.486188    0.571189    0.696819
     0.893289    0.946223    1.247158    1.322393    1.458243    2.536198

 Minimum Search - Taking Simple RFO Step
 Searching for Lamda that Minimizes Along All modes
 Value Taken    Lamda =  -0.00000292
 Step Taken.  Stepsize is  0.023166

                             Maximum     Tolerance    Cnvgd?
         Gradient           0.000238      0.000300     YES
         Displacement       0.016160      0.001200      NO
         Energy change      0.000008      0.000001      NO

 ----------------------------------------------------------------
             Standard Nuclear Orientation (Angstroms)
    I     Atom           X                Y                Z
 ----------------------------------------------------------------
    1      Li      3.1395567159     0.0368459091    -0.1054821679
    2      C      -1.8536425128     0.7562344205    -0.0176212334
    3      O      -0.5150113438     1.0897185381     0.4915542356
    4      C      -1.8651219076    -0.7604792290     0.0016262789
    5      S       0.5217273161    -0.0099127825     0.0446928635
    6      O      -0.5011188348    -1.1190271018    -0.4124436783
    7      O       1.3404235497     0.3989244676    -1.0958360792
    8      O       1.3491394613    -0.4065152664     1.1762298392
    9      H      -2.5634669142     1.1988366376     0.6763384073
   10      H      -1.9468746091     1.1758796973    -1.0180946954
   11      H      -2.0325251995    -1.1656616763     0.9946568726
   12      H      -2.5346581824    -1.1947373531    -0.7362915320
 ----------------------------------------------------------------
 Nuclear Repulsion Energy =   484.1569709130 hartrees
 There are       33 alpha and       33 beta electrons
 Discretize the solute cavity surface with Lebedev spheres
	Using 302 Lebedev grid points for each H atom
	Using 302 Lebedev grid points for other atoms
	Atomic van der Waals radii will be scaled by 1.20
 Removing interior tesserae...
 Keep 1148 surface tesserae and discard 2476 interior tesserae
 Molecular Surface Area = 164.689 Angst**2
 Nucleus-field energy     =     0.0000000004 hartrees
 Requested basis set is 6-31++G(d,p)
 There are 57 shells and 180 basis functions
 A cutoff of  1.0D-12 yielded   1574 shell pairs
 There are     16206 function pairs
 Smallest overlap matrix eigenvalue = 1.31E-04

 -----------------------------------------------------------------------
  General SCF calculation program by
  Eric Jon Sundstrom, Paul Horn, Yuezhi Mao, Dmitri Zuev, Alec White,
  David Stuck, Shaama M.S., Shane Yost, Joonho Lee, David Small,
  Daniel Levine, Susi Lehtola, Hugh Burton, Evgeny Epifanovsky
 -----------------------------------------------------------------------
 Exchange:     0.2220 Hartree-Fock + 1.0000 wB97X-D + LR-HF
 Correlation:  1.0000 wB97X-D
 Using SG-3 standard quadrature grid
 Dispersion:   Grimme D
 using 32 threads for integral computing
 -------------------------------------------------------
 OpenMP Integral computing Module                
 Release: version 1.0, May 2013, Q-Chem Inc. Pittsburgh 
 -------------------------------------------------------
 using 32 threads for integral computing
 -------------------------------------------------------
 OpenMP Integral computing Module                
 Release: version 1.0, May 2013, Q-Chem Inc. Pittsburgh 
 -------------------------------------------------------
 -------------------------------------------------------
 OpenMP BLAS3 based DFT computing Module                
 Release: version 1.0, May 2013, Q-Chem Inc. Pittsburgh 
 -------------------------------------------------------
 A restricted SCF calculation will be
 performed using DIIS, GDM
 SCF converges when RMS gradient is below 1.0e-08
 ---------------------------------------
  Cycle       Energy         DIIS error
 ---------------------------------------
    1    -784.9335827415      3.31e-05  
    2    -784.9336862595      8.66e-06  Done DIIS. Switching to GDM
 ---------------------------------------
  Cycle       Energy        RMS Gradient
 ---------------------------------------
    1    -784.9336862595      1.46e-04   Normal BFGS step
    2    -784.9336867357      7.43e-05   Normal BFGS step
    3    -784.9336868137      5.44e-05   Normal BFGS step
    4    -784.9336868602      6.03e-06   Normal BFGS step
    5    -784.9336868611      3.88e-06   Normal BFGS step
    6    -784.9336868617      1.44e-06   Normal BFGS step
    7    -784.9336868617      7.84e-07   Normal BFGS step
    8    -784.9336868617      1.31e-07   Normal BFGS step
    9    -784.9336868617      7.97e-08   Normal BFGS step
   10    -784.9336868617      1.84e-08   Normal BFGS step
   11    -784.9336868617      6.95e-09  Convergence criterion met
 ---------------------------------------
 SCF time:   CPU 461.02s  wall 17.00s 
(0)  E-EN(g) gas-phase elect-nuc energy                    0.000000000 a.u.
(3)  G-ENP(liq) elect-nuc-pol free energy of system     -784.933686862 a.u.
(4)  G-CDS(liq) cavity-dispersion-solvent structure 
     free energy                                               -0.3959 kcal/mol
(6)  G-S(liq) free energy of system                     -784.934317771 a.u.
(9)  DeltaG-S(liq) free energy of  solvation
     (9) = (6) - (0)                                      -492553.7185 kcal/mol
 SCF   energy in the final basis set =     -784.9336868617
 Total energy in the final basis set =     -784.9343177708
 
 --------------------------------------------------------------
 
                    Orbital Energies (a.u.)
 --------------------------------------------------------------
 
 Alpha MOs
 -- Occupied --
-89.382 -19.389 -19.388 -19.346 -19.345 -10.399 -10.399  -8.366
 -6.317  -6.316  -6.315  -2.164  -1.353  -1.227  -1.207  -1.177
 -0.926  -0.814  -0.778  -0.678  -0.671  -0.637  -0.622  -0.592
 -0.571  -0.540  -0.523  -0.510  -0.489  -0.487  -0.485  -0.440
 -0.428
 -- Virtual --
  0.008   0.017   0.017   0.019   0.043   0.062   0.066   0.068
  0.070   0.086   0.089   0.090   0.093   0.115   0.122   0.133
  0.135   0.135   0.140   0.149   0.171   0.175   0.179   0.195
  0.203   0.204   0.212   0.216   0.216   0.220   0.239   0.247
  0.264   0.273   0.275   0.278   0.292   0.307   0.321   0.341
  0.346   0.351   0.354   0.365   0.383   0.393   0.404   0.405
  0.415   0.422   0.427   0.444   0.471   0.501   0.567   0.581
  0.610   0.644   0.664   0.675   0.684   0.731   0.744   0.763
  0.769   0.784   0.827   0.849   0.865   0.900   1.013   1.018
  1.061   1.103   1.114   1.132   1.143   1.171   1.185   1.238
  1.249   1.251   1.307   1.321   1.333   1.377   1.382   1.405
  1.409   1.424   1.448   1.489   1.494   1.522   1.583   1.642
  1.655   1.667   1.690   1.755   1.798   1.834   1.846   1.861
  1.904   1.914   1.959   1.982   1.986   2.001   2.033   2.063
  2.098   2.114   2.176   2.193   2.214   2.267   2.279   2.346
  2.391   2.411   2.508   2.601   2.642   2.648   2.667   2.740
  2.757   2.810   2.835   2.916   2.935   2.941   2.973   3.117
  3.377   3.395   3.535   3.592   4.064   4.212   4.295   4.308
  4.378   4.530   4.757
 --------------------------------------------------------------
 
          Ground-State Mulliken Net Atomic Charges

     Atom                 Charge (a.u.)
  ----------------------------------------
      1 Li                    0.772979
      2 C                    -0.149757
      3 O                    -0.530997
      4 C                    -0.149459
      5 S                     1.789299
      6 O                    -0.535301
      7 O                    -0.594355
      8 O                    -0.588189
      9 H                     0.256017
     10 H                     0.237497
     11 H                     0.237410
     12 H                     0.254857
  ----------------------------------------
  Sum of atomic charges =     1.000000

 -----------------------------------------------------------------
                    Cartesian Multipole Moments
 -----------------------------------------------------------------
    Charge (ESU x 10^10)
                 4.8032
    Dipole Moment (Debye)
         X       3.5522      Y       0.1636      Z      -0.5286
       Tot       3.5950
    Quadrupole Moments (Debye-Ang)
        XX       6.7094     XY       0.4892     YY     -46.2022
        XZ      -1.3945     YZ       0.3560     ZZ     -50.3549
    Octopole Moments (Debye-Ang^2)
       XXX     113.0585    XXY       1.8551    XYY      -2.2087
       YYY       1.1043    XXZ      -6.0929    XYZ       2.8803
       YYZ      -1.3779    XZZ      -6.3322    YZZ       0.2819
       ZZZ      -4.2426
    Hexadecapole Moments (Debye-Ang^3)
      XXXX       8.6719   XXXY       5.0521   XXYY     -97.3574
      XYYY      -0.2605   YYYY    -189.2300   XXXZ     -17.8623
      XXYZ       8.3124   XYYZ      -0.5366   YYYZ      -0.0826
      XXZZ    -110.0779   XYZZ       0.4802   YYZZ     -55.5930
      XZZZ      -2.3945   YZZZ       0.9656   ZZZZ    -161.9165
 -----------------------------------------------------------------
 Calculating analytic gradient of the SCF energy
 Gradient of CDS energy
            1           2           3           4           5           6
    1   0.0000599  -0.0004847   0.0001893  -0.0004347  -0.0000234   0.0001875
    2   0.0000014   0.0010598  -0.0001511  -0.0010695   0.0000234   0.0001556
    3  -0.0000024  -0.0000318  -0.0000907   0.0000798  -0.0000377   0.0000855
            7           8           9          10          11          12
    1  -0.0001285  -0.0001332   0.0001844   0.0002447   0.0001511   0.0001876
    2  -0.0000281   0.0000239  -0.0001056  -0.0001278   0.0001235   0.0000945
    3   0.0000954  -0.0000898   0.0000374   0.0000503  -0.0000777  -0.0000183
 Gradient of SCF Energy
            1           2           3           4           5           6
    1   0.0064925   0.0419774  -0.0266125   0.0436542  -0.0063163  -0.0259783
    2  -0.0000501  -0.0308952   0.0237231   0.0279143  -0.0001048  -0.0236722
    3  -0.0003609   0.0200767   0.0048425  -0.0150157  -0.0007127  -0.0057248
            7           8           9          10          11          12
    1   0.0197804   0.0203783  -0.0317541  -0.0044101  -0.0072905  -0.0299210
    2   0.0145519  -0.0144279   0.0170721   0.0141098  -0.0115182  -0.0167028
    3  -0.0405599   0.0421827   0.0294164  -0.0404682   0.0378605  -0.0315365
 Max gradient component =       4.365E-02
 RMS gradient           =       2.423E-02
 Computing VTN gradient.
 Updating gradient with PCM contributions...
 -- total gradient after adding PCM contribution --
---------------------------------------------------
  Atom         X              Y              Z     
---------------------------------------------------
   1       0.000626       0.002092      -0.011477
   2      -0.000063       0.000019       0.000018
   3       0.000058      -0.000062       0.000101
   4       0.000010      -0.000032      -0.000023
   5      -0.000146       0.000101      -0.000008
   6       0.000063       0.000058      -0.000063
   7      -0.000054       0.000109       0.000028
   8      -0.000542      -0.002245       0.011339
   9       0.000003      -0.000068       0.000133
  10       0.000036       0.000043       0.000138
  11       0.000023      -0.000063      -0.000112
  12      -0.000014       0.000049      -0.000075
---------------------------------------------------
 Number of fixed atoms: 0
 Gradient time:  CPU 77.52 s  wall 3.46 s
 Geometry Optimization Parameters
   NAtoms,    NIC,     NZ,  NCons,   NDum,   NFix, NCnnct, MaxDiis
       12     104       0       0       0       0       0       0

 Cartesian Hessian Update
 Hessian Updated using BFGS Update


** GEOMETRY OPTIMIZATION IN CARTESIAN COORDINATES **
   Searching for a Minimum

   Optimization Cycle:   4

                       Coordinates (Angstroms)
     ATOM                X               Y               Z
      1  Li        3.1395567159    0.0368459091   -0.1054821679
      2  C        -1.8536425128    0.7562344205   -0.0176212334
      3  O        -0.5150113438    1.0897185381    0.4915542356
      4  C        -1.8651219076   -0.7604792290    0.0016262789
      5  S         0.5217273161   -0.0099127825    0.0446928635
      6  O        -0.5011188348   -1.1190271018   -0.4124436783
      7  O         1.3404235497    0.3989244676   -1.0958360792
      8  O         1.3491394613   -0.4065152664    1.1762298392
      9  H        -2.5634669142    1.1988366376    0.6763384073
     10  H        -1.9468746091    1.1758796973   -1.0180946954
     11  H        -2.0325251995   -1.1656616763    0.9946568726
     12  H        -2.5346581824   -1.1947373531   -0.7362915320
   Point Group: c1    Number of degrees of freedom:    30


   Energy is   -784.934317771


 Translations and Rotations Projected Out of Hessian

 30 Hessian modes will be used to form the next step
  Hessian Eigenvalues:
     0.000069    0.008661    0.014103    0.021102    0.038818    0.045158
     0.053603    0.069552    0.078387    0.097082    0.105708    0.130951
     0.167558    0.184327    0.187955    0.206045    0.246296    0.259251
     0.324577    0.441273    0.451606    0.565814    0.696150    0.893167
     0.940606    1.119712    1.311372    1.362966    2.530258    3.866224
**WARNING** Magnitude of eigenvalue   1 too small.  Replaced by     0.000100

 Minimum Search - Taking Simple RFO Step
 Searching for Lamda that Minimizes Along All modes
 Value Taken    Lamda =  -0.00013194
 Calculated Step too Large.  Step scaled by  0.610122
 Step Taken.  Stepsize is  0.300000

                             Maximum     Tolerance    Cnvgd?
         Gradient           0.011477      0.000300      NO
         Displacement       0.226113      0.001200      NO
         Energy change     -0.000116      0.000001      NO

 ----------------------------------------------------------------
             Standard Nuclear Orientation (Angstroms)
    I     Atom           X                Y                Z
 ----------------------------------------------------------------
    1      Li      3.1160578643    -0.0828080861    -0.1230251191
    2      C      -1.8685646289     0.7535334852    -0.0148866642
    3      O      -0.5306917763     1.1139538271     0.4882322830
    4      C      -1.8509674332    -0.7642562288     0.0000321643
    5      S       0.5224485113     0.0297878790     0.0489110396
    6      O      -0.4822955407    -1.0927067017    -0.4164794851
    7      O       1.3533250133     0.4363339589    -1.0850436681
    8      O       1.3467694698    -0.3622861661     1.1857587906
    9      H      -2.5833775095     1.1844362565     0.6807380649
   10      H      -1.9626276268     1.1695182226    -1.0142636671
   11      H      -2.0106901988    -1.1756996339     0.9887949770
   12      H      -2.5109586058    -1.2097005512    -0.7394396049
 ----------------------------------------------------------------
 Nuclear Repulsion Energy =   484.2807047118 hartrees
 There are       33 alpha and       33 beta electrons
 Discretize the solute cavity surface with Lebedev spheres
	Using 302 Lebedev grid points for each H atom
	Using 302 Lebedev grid points for other atoms
	Atomic van der Waals radii will be scaled by 1.20
 Removing interior tesserae...
 Keep 1147 surface tesserae and discard 2477 interior tesserae
 Molecular Surface Area = 164.359 Angst**2
 Nucleus-field energy     =     0.0000000004 hartrees
 Requested basis set is 6-31++G(d,p)
 There are 57 shells and 180 basis functions
 A cutoff of  1.0D-12 yielded   1573 shell pairs
 There are     16202 function pairs
 Smallest overlap matrix eigenvalue = 1.32E-04

 -----------------------------------------------------------------------
  General SCF calculation program by
  Eric Jon Sundstrom, Paul Horn, Yuezhi Mao, Dmitri Zuev, Alec White,
  David Stuck, Shaama M.S., Shane Yost, Joonho Lee, David Small,
  Daniel Levine, Susi Lehtola, Hugh Burton, Evgeny Epifanovsky
 -----------------------------------------------------------------------
 Exchange:     0.2220 Hartree-Fock + 1.0000 wB97X-D + LR-HF
 Correlation:  1.0000 wB97X-D
 Using SG-3 standard quadrature grid
 Dispersion:   Grimme D
 using 32 threads for integral computing
 -------------------------------------------------------
 OpenMP Integral computing Module                
 Release: version 1.0, May 2013, Q-Chem Inc. Pittsburgh 
 -------------------------------------------------------
 using 32 threads for integral computing
 -------------------------------------------------------
 OpenMP Integral computing Module                
 Release: version 1.0, May 2013, Q-Chem Inc. Pittsburgh 
 -------------------------------------------------------
 -------------------------------------------------------
 OpenMP BLAS3 based DFT computing Module                
 Release: version 1.0, May 2013, Q-Chem Inc. Pittsburgh 
 -------------------------------------------------------
 A restricted SCF calculation will be
 performed using DIIS, GDM
 SCF converges when RMS gradient is below 1.0e-08
 ---------------------------------------
  Cycle       Energy         DIIS error
 ---------------------------------------
    1    -784.9319623426      3.94e-04  
    2    -784.9333534929      9.94e-05  Done DIIS. Switching to GDM
 ---------------------------------------
  Cycle       Energy        RMS Gradient
 ---------------------------------------
    1    -784.9333534929      2.27e-03   Normal BFGS step
    2    -784.9334221435      7.05e-04   Normal BFGS step
    3    -784.9334325238      4.25e-04   Normal BFGS step
    4    -784.9334385660      6.94e-05   Normal BFGS step
    5    -784.9334386895      4.41e-05   Normal BFGS step
    6    -784.9334387303      2.54e-05   Normal BFGS step
    7    -784.9334387365      8.03e-06   Normal BFGS step
    8    -784.9334387386      1.95e-06   Normal BFGS step
    9    -784.9334387387      9.54e-07   Normal BFGS step
   10    -784.9334387387      3.26e-07   Normal BFGS step
   11    -784.9334387387      1.84e-07   Normal BFGS step
   12    -784.9334387387      4.26e-08   Normal BFGS step
   13    -784.9334387387      4.62e-08   Normal BFGS step
   14    -784.9334387387      6.06e-09  Convergence criterion met
 ---------------------------------------
 SCF time:   CPU 572.34s  wall 22.00s 
(0)  E-EN(g) gas-phase elect-nuc energy                    0.000000000 a.u.
(3)  G-ENP(liq) elect-nuc-pol free energy of system     -784.933438739 a.u.
(4)  G-CDS(liq) cavity-dispersion-solvent structure 
     free energy                                               -0.3959 kcal/mol
(6)  G-S(liq) free energy of system                     -784.934069648 a.u.
(9)  DeltaG-S(liq) free energy of  solvation
     (9) = (6) - (0)                                      -492553.5628 kcal/mol
 SCF   energy in the final basis set =     -784.9334387387
 Total energy in the final basis set =     -784.9340696478
 
 --------------------------------------------------------------
 
                    Orbital Energies (a.u.)
 --------------------------------------------------------------
 
 Alpha MOs
 -- Occupied --
-89.382 -19.390 -19.388 -19.346 -19.345 -10.400 -10.398  -8.366
 -6.318  -6.317  -6.316  -2.162  -1.354  -1.228  -1.208  -1.177
 -0.927  -0.815  -0.779  -0.679  -0.672  -0.637  -0.623  -0.593
 -0.572  -0.540  -0.523  -0.510  -0.490  -0.487  -0.486  -0.441
 -0.429
 -- Virtual --
  0.008   0.017   0.017   0.019   0.042   0.062   0.066   0.068
  0.070   0.085   0.089   0.090   0.093   0.115   0.121   0.132
  0.135   0.136   0.141   0.148   0.172   0.175   0.179   0.195
  0.203   0.204   0.213   0.215   0.217   0.221   0.239   0.248
  0.265   0.272   0.276   0.278   0.291   0.308   0.320   0.342
  0.347   0.351   0.355   0.365   0.384   0.392   0.403   0.405
  0.415   0.419   0.430   0.445   0.471   0.502   0.569   0.582
  0.610   0.644   0.665   0.674   0.684   0.732   0.743   0.762
  0.775   0.787   0.827   0.849   0.865   0.906   1.015   1.020
  1.060   1.103   1.116   1.139   1.144   1.172   1.185   1.237
  1.249   1.250   1.307   1.319   1.332   1.377   1.380   1.404
  1.411   1.424   1.448   1.487   1.498   1.520   1.587   1.642
  1.655   1.669   1.695   1.756   1.798   1.831   1.848   1.861
  1.906   1.912   1.958   1.985   1.988   2.001   2.033   2.063
  2.106   2.121   2.176   2.193   2.213   2.265   2.278   2.346
  2.392   2.411   2.507   2.598   2.642   2.649   2.667   2.743
  2.759   2.812   2.835   2.913   2.935   2.943   2.972   3.116
  3.381   3.397   3.539   3.593   4.064   4.212   4.292   4.308
  4.377   4.528   4.756
 --------------------------------------------------------------
 
          Ground-State Mulliken Net Atomic Charges

     Atom                 Charge (a.u.)
  ----------------------------------------
      1 Li                    0.764550
      2 C                    -0.142418
      3 O                    -0.532254
      4 C                    -0.155440
      5 S                     1.792233
      6 O                    -0.534312
      7 O                    -0.591299
      8 O                    -0.589336
      9 H                     0.256666
     10 H                     0.238751
     11 H                     0.238019
     12 H                     0.254840
  ----------------------------------------
  Sum of atomic charges =     1.000000

 -----------------------------------------------------------------
                    Cartesian Multipole Moments
 -----------------------------------------------------------------
    Charge (ESU x 10^10)
                 4.8032
    Dipole Moment (Debye)
         X       3.3470      Y      -0.4284      Z      -0.6223
       Tot       3.4312
    Quadrupole Moments (Debye-Ang)
        XX       5.9327     XY      -1.3053     YY     -46.1196
        XZ      -1.6796     YZ       0.4234     ZZ     -50.3226
    Octopole Moments (Debye-Ang^2)
       XXX     109.1387    XXY      -4.8595    XYY      -2.2871
       YYY      -2.4276    XXZ      -6.9161    XYZ       3.0294
       YYZ      -1.4384    XZZ      -6.4343    YZZ      -0.9209
       ZZZ      -4.7495
    Hexadecapole Moments (Debye-Ang^3)
      XXXX      -5.7360   XXXY     -14.4750   XXYY     -97.1032
      XYYY      -0.7412   YYYY    -188.9537   XXXZ     -20.5106
      XXYZ       8.9376   XYYZ      -0.2374   YYYZ      -0.4693
      XXZZ    -110.0218   XYZZ      -0.0638   YYZZ     -55.5125
      XZZZ      -2.5522   YZZZ       0.5689   ZZZZ    -161.8990
 -----------------------------------------------------------------
 Calculating analytic gradient of the SCF energy
 Gradient of CDS energy
            1           2           3           4           5           6
    1   0.0000599  -0.0004847   0.0001893  -0.0004347  -0.0000234   0.0001875
    2   0.0000014   0.0010598  -0.0001511  -0.0010695   0.0000234   0.0001556
    3  -0.0000024  -0.0000318  -0.0000907   0.0000798  -0.0000377   0.0000855
            7           8           9          10          11          12
    1  -0.0001285  -0.0001332   0.0001844   0.0002447   0.0001511   0.0001876
    2  -0.0000281   0.0000239  -0.0001056  -0.0001278   0.0001235   0.0000945
    3   0.0000954  -0.0000898   0.0000374   0.0000503  -0.0000777  -0.0000183
 Gradient of SCF Energy
            1           2           3           4           5           6
    1   0.0050566   0.0403558  -0.0270460   0.0432267  -0.0076514  -0.0259570
    2  -0.0017431  -0.0294056   0.0233683   0.0275401   0.0018462  -0.0242038
    3  -0.0008461   0.0202140   0.0048725  -0.0145047  -0.0018396  -0.0054104
            7           8           9          10          11          12
    1   0.0224864   0.0209735  -0.0322087  -0.0029645  -0.0069426  -0.0293288
    2   0.0151186  -0.0131070   0.0165914   0.0130499  -0.0113923  -0.0176629
    3  -0.0401721   0.0426905   0.0297364  -0.0395387   0.0364339  -0.0316358
 Max gradient component =       4.323E-02
 RMS gradient           =       2.405E-02
 Computing VTN gradient.
 Updating gradient with PCM contributions...
 -- total gradient after adding PCM contribution --
---------------------------------------------------
  Atom         X              Y              Z     
---------------------------------------------------
   1      -0.000952      -0.000869      -0.000523
   2      -0.001102       0.000419       0.000231
   3       0.000174       0.000145       0.000412
   4      -0.000608      -0.003386       0.003169
   5      -0.001014       0.000642      -0.000166
   6      -0.000342       0.000411       0.000154
   7       0.001889       0.000478      -0.000233
   8       0.000485       0.000443       0.000130
   9      -0.000021      -0.000259      -0.000091
  10       0.000435      -0.000272       0.000875
  11       0.000710       0.002376      -0.004064
  12       0.000348      -0.000126       0.000106
---------------------------------------------------
 Number of fixed atoms: 0
 Gradient time:  CPU 77.58 s  wall 3.46 s
 Geometry Optimization Parameters
   NAtoms,    NIC,     NZ,  NCons,   NDum,   NFix, NCnnct, MaxDiis
       12     104       0       0       0       0       0       0

 Cartesian Hessian Update
 Hessian Updated using BFGS Update


** GEOMETRY OPTIMIZATION IN CARTESIAN COORDINATES **
   Searching for a Minimum

   Optimization Cycle:   5

                       Coordinates (Angstroms)
     ATOM                X               Y               Z
      1  Li        3.1160578643   -0.0828080861   -0.1230251191
      2  C        -1.8685646289    0.7535334852   -0.0148866642
      3  O        -0.5306917763    1.1139538271    0.4882322830
      4  C        -1.8509674332   -0.7642562288    0.0000321643
      5  S         0.5224485113    0.0297878790    0.0489110396
      6  O        -0.4822955407   -1.0927067017   -0.4164794851
      7  O         1.3533250133    0.4363339589   -1.0850436681
      8  O         1.3467694698   -0.3622861661    1.1857587906
      9  H        -2.5833775095    1.1844362565    0.6807380649
     10  H        -1.9626276268    1.1695182226   -1.0142636671
     11  H        -2.0106901988   -1.1756996339    0.9887949770
     12  H        -2.5109586058   -1.2097005512   -0.7394396049
   Point Group: c1    Number of degrees of freedom:    30


   Energy is   -784.934069648


 Translations and Rotations Projected Out of Hessian

 30 Hessian modes will be used to form the next step
  Hessian Eigenvalues:
     0.002851    0.008762    0.014769    0.022862    0.038809    0.045166
     0.053773    0.069565    0.081091    0.097182    0.105736    0.130981
     0.166720    0.183892    0.187976    0.206015    0.243029    0.253122
     0.325006    0.430651    0.453561    0.563051    0.695964    0.892418
     0.898419    0.951528    1.288447    1.331465    1.753519    2.627288

 Minimum Search - Taking Simple RFO Step
 Searching for Lamda that Minimizes Along All modes
 Value Taken    Lamda =  -0.00061775
 Calculated Step too Large.  Step scaled by  0.782485
 Step Taken.  Stepsize is  0.300000

                             Maximum     Tolerance    Cnvgd?
         Gradient           0.004064      0.000300      NO
         Displacement       0.226323      0.001200      NO
         Energy change      0.000248      0.000001      NO

 ----------------------------------------------------------------
             Standard Nuclear Orientation (Angstroms)
    I     Atom           X                Y                Z
 ----------------------------------------------------------------
    1      Li      3.1311968490     0.0369567544    -0.0985514813
    2      C      -1.8536093238     0.7562036123    -0.0168180019
    3      O      -0.5137622203     1.0902770250     0.4891019314
    4      C      -1.8649351618    -0.7605005051     0.0020561836
    5      S       0.5221666460    -0.0096582813     0.0421548008
    6      O      -0.5011957775    -1.1183880522    -0.4140051013
    7      O       1.3426536439     0.3979063740    -1.0978240392
    8      O       1.3511435764    -0.4059302082     1.1732438018
    9      H      -2.5618786698     1.1994403555     0.6782034107
   10      H      -1.9478458962     1.1752754635    -1.0171569923
   11      H      -2.0309117258    -1.1669224382     0.9946744937
   12      H      -2.5345944014    -1.1945538383    -0.7357498951
 ----------------------------------------------------------------
 Nuclear Repulsion Energy =   484.2330942944 hartrees
 There are       33 alpha and       33 beta electrons
 Discretize the solute cavity surface with Lebedev spheres
	Using 302 Lebedev grid points for each H atom
	Using 302 Lebedev grid points for other atoms
	Atomic van der Waals radii will be scaled by 1.20
 Removing interior tesserae...
 Keep 1146 surface tesserae and discard 2478 interior tesserae
 Molecular Surface Area = 164.280 Angst**2
 Nucleus-field energy     =     0.0000000004 hartrees
 Requested basis set is 6-31++G(d,p)
 There are 57 shells and 180 basis functions
 A cutoff of  1.0D-12 yielded   1574 shell pairs
 There are     16206 function pairs
 Smallest overlap matrix eigenvalue = 1.31E-04

 -----------------------------------------------------------------------
  General SCF calculation program by
  Eric Jon Sundstrom, Paul Horn, Yuezhi Mao, Dmitri Zuev, Alec White,
  David Stuck, Shaama M.S., Shane Yost, Joonho Lee, David Small,
  Daniel Levine, Susi Lehtola, Hugh Burton, Evgeny Epifanovsky
 -----------------------------------------------------------------------
 Exchange:     0.2220 Hartree-Fock + 1.0000 wB97X-D + LR-HF
 Correlation:  1.0000 wB97X-D
 Using SG-3 standard quadrature grid
 Dispersion:   Grimme D
 using 32 threads for integral computing
 -------------------------------------------------------
 OpenMP Integral computing Module                
 Release: version 1.0, May 2013, Q-Chem Inc. Pittsburgh 
 -------------------------------------------------------
 using 32 threads for integral computing
 -------------------------------------------------------
 OpenMP Integral computing Module                
 Release: version 1.0, May 2013, Q-Chem Inc. Pittsburgh 
 -------------------------------------------------------
 -------------------------------------------------------
 OpenMP BLAS3 based DFT computing Module                
 Release: version 1.0, May 2013, Q-Chem Inc. Pittsburgh 
 -------------------------------------------------------
 A restricted SCF calculation will be
 performed using DIIS, GDM
 SCF converges when RMS gradient is below 1.0e-08
 ---------------------------------------
  Cycle       Energy         DIIS error
 ---------------------------------------
    1    -784.9305737043      3.94e-04  
    2    -784.9335053677      9.47e-05  Done DIIS. Switching to GDM
 ---------------------------------------
  Cycle       Energy        RMS Gradient
 ---------------------------------------
    1    -784.9335053677      2.25e-03   Normal BFGS step
    2    -784.9335750587      6.92e-04   Normal BFGS step
    3    -784.9335814957      5.55e-04   Normal BFGS step
    4    -784.9335873444      6.80e-05   Normal BFGS step
    5    -784.9335874656      3.03e-05   Normal BFGS step
    6    -784.9335874936      1.86e-05   Normal BFGS step
    7    -784.9335874964      9.99e-06   Normal BFGS step
[...]
    I     Atom           X                Y                Z
 ----------------------------------------------------------------
    1      Li      3.1371203112     0.0394016823    -0.0978027054
    2      C      -1.8531765649     0.7562423702    -0.0172320906
    3      O      -0.5140025809     1.0889770017     0.4908754598
    4      C      -1.8654066493    -0.7604552786     0.0020048718
    5      S       0.5218835662    -0.0106646945     0.0420427380
    6      O      -0.5017897691    -1.1197094821    -0.4131465849
    7      O       1.3395174445     0.3983297074    -1.0990645032
    8      O       1.3512782765    -0.4071415222     1.1725062341
    9      H      -2.5622474970     1.1992891385     0.6771967296
   10      H      -1.9468667680     1.1758687226    -1.0176150558
   11      H      -2.0322879030    -1.1657172014     0.9951036390
   12      H      -2.5355943273    -1.1943141826    -0.7355396215
 ----------------------------------------------------------------
 Nuclear Repulsion Energy =   484.1809085600 hartrees
 There are       33 alpha and       33 beta electrons
 Discretize the solute cavity surface with Lebedev spheres
	Using 302 Lebedev grid points for each H atom
	Using 302 Lebedev grid points for other atoms
	Atomic van der Waals radii will be scaled by 1.20
 Removing interior tesserae...
 Keep 1146 surface tesserae and discard 2478 interior tesserae
 Molecular Surface Area = 164.426 Angst**2
 Nucleus-field energy     =     0.0000000004 hartrees
 Requested basis set is 6-31++G(d,p)
 There are 57 shells and 180 basis functions
 A cutoff of  1.0D-12 yielded   1574 shell pairs
 There are     16206 function pairs
 Smallest overlap matrix eigenvalue = 1.31E-04

 -----------------------------------------------------------------------
  General SCF calculation program by
  Eric Jon Sundstrom, Paul Horn, Yuezhi Mao, Dmitri Zuev, Alec White,
  David Stuck, Shaama M.S., Shane Yost, Joonho Lee, David Small,
  Daniel Levine, Susi Lehtola, Hugh Burton, Evgeny Epifanovsky
 -----------------------------------------------------------------------
 Exchange:     0.2220 Hartree-Fock + 1.0000 wB97X-D + LR-HF
 Correlation:  1.0000 wB97X-D
 Using SG-3 standard quadrature grid
 Dispersion:   Grimme D
 using 32 threads for integral computing
 -------------------------------------------------------
 OpenMP Integral computing Module                
 Release: version 1.0, May 2013, Q-Chem Inc. Pittsburgh 
 -------------------------------------------------------
 using 32 threads for integral computing
 -------------------------------------------------------
 OpenMP Integral computing Module                
 Release: version 1.0, May 2013, Q-Chem Inc. Pittsburgh 
 -------------------------------------------------------
 -------------------------------------------------------
 OpenMP BLAS3 based DFT computing Module                
 Release: version 1.0, May 2013, Q-Chem Inc. Pittsburgh 
 -------------------------------------------------------
 A restricted SCF calculation will be
 performed using DIIS, GDM
 SCF converges when RMS gradient is below 1.0e-08
 ---------------------------------------
  Cycle       Energy         DIIS error
 ---------------------------------------
    1    -784.9335838092      4.05e-06  
    2    -784.9335839209      9.68e-07  Done DIIS. Switching to GDM
 ---------------------------------------
  Cycle       Energy        RMS Gradient
 ---------------------------------------
    1    -784.9335839209      2.22e-05   Normal BFGS step
    2    -784.9335839282      6.32e-06   Normal BFGS step
    3    -784.9335839288      4.75e-06   Normal BFGS step
    4    -784.9335839294      7.02e-07   Normal BFGS step
    5    -784.9335839295      4.04e-07   Normal BFGS step
    6    -784.9335839295      1.98e-07   Normal BFGS step
    7    -784.9335839295      8.43e-08   Normal BFGS step
    8    -784.9335839295      1.81e-08   Normal BFGS step
    9    -784.9335839295      8.35e-09  Convergence criterion met
 ---------------------------------------
 SCF time:   CPU 388.72s  wall 15.00s 
(0)  E-EN(g) gas-phase elect-nuc energy                    0.000000000 a.u.
(3)  G-ENP(liq) elect-nuc-pol free energy of system     -784.933583929 a.u.
(4)  G-CDS(liq) cavity-dispersion-solvent structure 
     free energy                                               -0.3959 kcal/mol
(6)  G-S(liq) free energy of system                     -784.934214839 a.u.
(9)  DeltaG-S(liq) free energy of  solvation
     (9) = (6) - (0)                                      -492553.6539 kcal/mol
 SCF   energy in the final basis set =     -784.9335839295
 Total energy in the final basis set =     -784.9342148386
 
 --------------------------------------------------------------
 
                    Orbital Energies (a.u.)
 --------------------------------------------------------------
 
 Alpha MOs
 -- Occupied --
-89.382 -19.389 -19.389 -19.346 -19.345 -10.399 -10.399  -8.366
 -6.318  -6.316  -6.315  -2.164  -1.354  -1.227  -1.207  -1.177
 -0.926  -0.814  -0.778  -0.678  -0.671  -0.637  -0.622  -0.593
 -0.571  -0.540  -0.523  -0.510  -0.490  -0.487  -0.485  -0.440
 -0.428
 -- Virtual --
  0.008   0.017   0.017   0.019   0.042   0.062   0.066   0.068
  0.070   0.085   0.089   0.089   0.093   0.115   0.122   0.133
  0.135   0.135   0.140   0.149   0.171   0.175   0.179   0.195
  0.203   0.204   0.212   0.216   0.216   0.220   0.239   0.247
  0.264   0.273   0.276   0.278   0.292   0.307   0.321   0.342
  0.346   0.351   0.354   0.365   0.383   0.393   0.404   0.405
  0.415   0.422   0.427   0.444   0.471   0.501   0.567   0.581
  0.610   0.644   0.665   0.675   0.684   0.731   0.744   0.764
  0.769   0.784   0.827   0.849   0.865   0.901   1.013   1.018
  1.062   1.103   1.114   1.133   1.142   1.171   1.185   1.238
  1.248   1.251   1.307   1.321   1.332   1.377   1.382   1.405
  1.409   1.424   1.448   1.489   1.493   1.522   1.583   1.642
  1.655   1.667   1.691   1.755   1.798   1.834   1.846   1.861
  1.904   1.914   1.959   1.983   1.986   2.001   2.033   2.063
  2.098   2.113   2.176   2.193   2.214   2.267   2.279   2.346
  2.391   2.411   2.508   2.601   2.642   2.648   2.667   2.740
  2.757   2.810   2.835   2.916   2.935   2.941   2.973   3.116
  3.377   3.395   3.535   3.592   4.063   4.212   4.295   4.308
  4.378   4.530   4.757
 --------------------------------------------------------------
 
          Ground-State Mulliken Net Atomic Charges

     Atom                 Charge (a.u.)
  ----------------------------------------
      1 Li                    0.771569
      2 C                    -0.150750
      3 O                    -0.530582
      4 C                    -0.148835
      5 S                     1.789949
      6 O                    -0.535265
      7 O                    -0.593935
      8 O                    -0.588265
      9 H                     0.256081
     10 H                     0.237595
     11 H                     0.237489
     12 H                     0.254949
  ----------------------------------------
  Sum of atomic charges =     1.000000

 -----------------------------------------------------------------
                    Cartesian Multipole Moments
 -----------------------------------------------------------------
    Charge (ESU x 10^10)
                 4.8032
    Dipole Moment (Debye)
         X       3.5261      Y       0.1749      Z      -0.4932
       Tot       3.5647
    Quadrupole Moments (Debye-Ang)
        XX       6.6236     XY       0.5282     YY     -46.1954
        XZ      -1.2950     YZ       0.3545     ZZ     -50.3538
    Octopole Moments (Debye-Ang^2)
       XXX     112.6089    XXY       2.0028    XYY      -2.2305
       YYY       1.1728    XXZ      -5.6802    XYZ       2.8781
       YYZ      -1.3043    XZZ      -6.3736    YZZ       0.2947
       ZZZ      -3.9929
    Hexadecapole Moments (Debye-Ang^3)
      XXXX       7.1376   XXXY       5.4740   XXYY     -97.3459
      XYYY      -0.2735   YYYY    -189.2051   XXXZ     -16.6426
      XXYZ       8.3143   XYYZ      -0.5209   YYYZ      -0.0859
      XXZZ    -110.1450   XYZZ       0.4616   YYZZ     -55.5699
      XZZZ      -2.2531   YZZZ       0.9564   ZZZZ    -161.8012
 -----------------------------------------------------------------
 Calculating analytic gradient of the SCF energy
 Gradient of CDS energy
            1           2           3           4           5           6
    1   0.0000599  -0.0004847   0.0001893  -0.0004347  -0.0000234   0.0001875
    2   0.0000014   0.0010598  -0.0001511  -0.0010695   0.0000234   0.0001556
    3  -0.0000024  -0.0000318  -0.0000907   0.0000798  -0.0000377   0.0000855
            7           8           9          10          11          12
    1  -0.0001285  -0.0001332   0.0001844   0.0002447   0.0001511   0.0001876
    2  -0.0000281   0.0000239  -0.0001056  -0.0001278   0.0001235   0.0000945
    3   0.0000954  -0.0000898   0.0000374   0.0000503  -0.0000777  -0.0000183
 Gradient of SCF Energy
            1           2           3           4           5           6
    1   0.0063573   0.0419731  -0.0266252   0.0437138  -0.0060290  -0.0260972
    2   0.0000376  -0.0309195   0.0237705   0.0279203  -0.0003110  -0.0236853
    3  -0.0003258   0.0200500   0.0048403  -0.0150548  -0.0005131  -0.0057377
            7           8           9          10          11          12
    1   0.0197498   0.0203901  -0.0317522  -0.0044187  -0.0072988  -0.0299631
    2   0.0145669  -0.0143671   0.0171129   0.0141054  -0.0115397  -0.0166909
    3  -0.0405748   0.0419263   0.0294537  -0.0404529   0.0379229  -0.0315341
 Max gradient component =       4.371E-02
 RMS gradient           =       2.423E-02
 Computing VTN gradient.
 Updating gradient with PCM contributions...
 -- total gradient after adding PCM contribution --
---------------------------------------------------
  Atom         X              Y              Z     
---------------------------------------------------
   1      -0.000010       0.000086      -0.000006
   2       0.000002      -0.000005       0.000082
   3      -0.000012      -0.000037       0.000087
   4       0.000007      -0.000011      -0.000048
   5       0.000063      -0.000033      -0.000026
   6      -0.000014       0.000031      -0.000096
   7      -0.000027       0.000095      -0.000002
   8      -0.000005      -0.000102      -0.000069
   9       0.000002      -0.000066       0.000123
  10      -0.000021       0.000077       0.000113
  11       0.000019      -0.000087      -0.000082
  12      -0.000005       0.000051      -0.000074
---------------------------------------------------
 Number of fixed atoms: 0
 Gradient time:  CPU 77.11 s  wall 3.43 s
 Geometry Optimization Parameters
   NAtoms,    NIC,     NZ,  NCons,   NDum,   NFix, NCnnct, MaxDiis
       12     104       0       0       0       0       0       0

 Cartesian Hessian Update
 Hessian Updated using BFGS Update


** GEOMETRY OPTIMIZATION IN CARTESIAN COORDINATES **
   Searching for a Minimum

   Optimization Cycle:  15

                       Coordinates (Angstroms)
     ATOM                X               Y               Z
      1  Li        3.1371203112    0.0394016823   -0.0978027054
      2  C        -1.8531765649    0.7562423702   -0.0172320906
      3  O        -0.5140025809    1.0889770017    0.4908754598
      4  C        -1.8654066493   -0.7604552786    0.0020048718
      5  S         0.5218835662   -0.0106646945    0.0420427380
      6  O        -0.5017897691   -1.1197094821   -0.4131465849
      7  O         1.3395174445    0.3983297074   -1.0990645032
      8  O         1.3512782765   -0.4071415222    1.1725062341
      9  H        -2.5622474970    1.1992891385    0.6771967296
     10  H        -1.9468667680    1.1758687226   -1.0176150558
     11  H        -2.0322879030   -1.1657172014    0.9951036390
     12  H        -2.5355943273   -1.1943141826   -0.7355396215
   Point Group: c1    Number of degrees of freedom:    30


   Energy is   -784.934214839


 Translations and Rotations Projected Out of Hessian

 30 Hessian modes will be used to form the next step
  Hessian Eigenvalues:
     0.002216    0.009281    0.015341    0.035420    0.042586    0.046494
     0.054048    0.069601    0.096630    0.103214    0.110423    0.134385
     0.172640    0.187827    0.199276    0.206326    0.245242    0.256227
     0.335306    0.431641    0.457311    0.567001    0.700426    0.894794
     0.939406    1.005092    1.308912    1.378797    2.182148    2.830945

 Minimum Search - Taking Simple RFO Step
 Searching for Lamda that Minimizes Along All modes
 Value Taken    Lamda =  -0.00000210
 Step Taken.  Stepsize is  0.030530

                             Maximum     Tolerance    Cnvgd?
         Gradient           0.000123      0.000300     YES
         Displacement       0.022936      0.001200      NO
         Energy change     -0.000000      0.000001     YES


                       Distance Matrix (Angstroms)
             Li(  1)   C (  2)   O (  3)   C (  4)   S (  5)   O (  6)
   C (  2)  5.042164
   O (  3)  3.844327  1.470467
   C (  4)  5.067051  1.516869  2.342154
   S (  5)  2.619452  2.496512  1.575983  2.502587
   O (  6)  3.832055  2.345675  2.386567  1.469988  1.576415
   O (  7)  2.088715  3.389950  2.537802  3.581435  1.462165  2.483010
   O (  8)  2.236586  3.610744  2.486416  3.441216  1.457065  2.540848
   H (  9)  5.867602  1.086878  2.059658  2.186794  3.373318  3.288174
   H ( 10)  5.290041  1.088866  2.082353  2.189888  2.936914  2.779084
   H ( 11)  5.419367  2.179641  2.764613  1.085510  2.960788  2.080315
   H ( 12)  5.840244  2.187768  3.286996  1.086902  3.369545  2.060549
             O (  7)   O (  8)   H (  9)   H ( 10)   H ( 11)
   O (  8)  2.410178
   H (  9)  4.361239  4.259300
   H ( 10)  3.378094  4.263838  1.803227
   H ( 11)  4.266246  3.472093  2.444418  3.088909
   H ( 12)  4.205372  4.400916  2.779545  2.458441  1.802571
 
 Final energy is   -784.934214838562     


 ******************************
 **  OPTIMIZATION CONVERGED  **
 ******************************

                       Coordinates (Angstroms)
     ATOM                X               Y               Z
      1  Li        3.1371203112    0.0394016823   -0.0978027054
      2  C        -1.8531765649    0.7562423702   -0.0172320906
      3  O        -0.5140025809    1.0889770017    0.4908754598
      4  C        -1.8654066493   -0.7604552786    0.0020048718
      5  S         0.5218835662   -0.0106646945    0.0420427380
      6  O        -0.5017897691   -1.1197094821   -0.4131465849
      7  O         1.3395174445    0.3983297074   -1.0990645032
      8  O         1.3512782765   -0.4071415222    1.1725062341
      9  H        -2.5622474970    1.1992891385    0.6771967296
     10  H        -1.9468667680    1.1758687226   -1.0176150558
     11  H        -2.0322879030   -1.1657172014    0.9951036390
     12  H        -2.5355943273   -1.1943141826   -0.7355396215

Z-matrix Print:
$molecule
1 1
S 
O  1 1.457065
O  1 1.462165 2 111.302889
O  1 1.575983 2 110.062888 3 -126.395991 0
C  4 1.470467 1 110.017881 2 -133.496831 0
H  5 1.086878 4 106.327690 1 152.384132 0
H  5 1.088866 4 107.976121 1 -87.316493 0
C  5 1.516869 4 103.250762 1 32.977109 0
H  8 1.085510 5 112.714381 4 78.425948 0
H  8 1.086902 5 113.296586 4 -152.876284 0
O  8 1.469988 5 103.491674 4 -38.045495 0
Li 3 2.088715 1 93.387031 2 0.347244 0
$end

 
 --------------------------------------------------------------
 
                    Orbital Energies (a.u.)
 --------------------------------------------------------------
 
 Alpha MOs
 -- Occupied --
-89.382 -19.389 -19.389 -19.346 -19.345 -10.399 -10.399  -8.366
 -6.318  -6.316  -6.315  -2.164  -1.354  -1.227  -1.207  -1.177
 -0.926  -0.814  -0.778  -0.678  -0.671  -0.637  -0.622  -0.593
 -0.571  -0.540  -0.523  -0.510  -0.490  -0.487  -0.485  -0.440
 -0.428
 -- Virtual --
  0.008   0.017   0.017   0.019   0.042   0.062   0.066   0.068
  0.070   0.085   0.089   0.089   0.093   0.115   0.122   0.133
  0.135   0.135   0.140   0.149   0.171   0.175   0.179   0.195
  0.203   0.204   0.212   0.216   0.216   0.220   0.239   0.247
  0.264   0.273   0.276   0.278   0.292   0.307   0.321   0.342
  0.346   0.351   0.354   0.365   0.383   0.393   0.404   0.405
  0.415   0.422   0.427   0.444   0.471   0.501   0.567   0.581
  0.610   0.644   0.665   0.675   0.684   0.731   0.744   0.764
  0.769   0.784   0.827   0.849   0.865   0.901   1.013   1.018
  1.062   1.103   1.114   1.133   1.142   1.171   1.185   1.238
  1.248   1.251   1.307   1.321   1.332   1.377   1.382   1.405
  1.409   1.424   1.448   1.489   1.493   1.522   1.583   1.642
  1.655   1.667   1.691   1.755   1.798   1.834   1.846   1.861
  1.904   1.914   1.959   1.983   1.986   2.001   2.033   2.063
  2.098   2.113   2.176   2.193   2.214   2.267   2.279   2.346
  2.391   2.411   2.508   2.601   2.642   2.648   2.667   2.740
  2.757   2.810   2.835   2.916   2.935   2.941   2.973   3.116
  3.377   3.395   3.535   3.592   4.063   4.212   4.295   4.308
  4.378   4.530   4.757
 --------------------------------------------------------------
 
          Ground-State Mulliken Net Atomic Charges

     Atom                 Charge (a.u.)
  ----------------------------------------
      1 Li                    0.771569
      2 C                    -0.150750
      3 O                    -0.530582
      4 C                    -0.148835
      5 S                     1.789949
      6 O                    -0.535265
      7 O                    -0.593935
      8 O                    -0.588265
      9 H                     0.256081
     10 H                     0.237595
     11 H                     0.237489
     12 H                     0.254949
  ----------------------------------------
  Sum of atomic charges =     1.000000

 -----------------------------------------------------------------
                    Cartesian Multipole Moments
 -----------------------------------------------------------------
    Charge (ESU x 10^10)
                 4.8032
    Dipole Moment (Debye)
         X       3.5261      Y       0.1749      Z      -0.4932
       Tot       3.5647
    Quadrupole Moments (Debye-Ang)
        XX       6.6236     XY       0.5282     YY     -46.1954
        XZ      -1.2950     YZ       0.3545     ZZ     -50.3538
    Octopole Moments (Debye-Ang^2)
       XXX     112.6089    XXY       2.0028    XYY      -2.2305
       YYY       1.1728    XXZ      -5.6802    XYZ       2.8781
       YYZ      -1.3043    XZZ      -6.3736    YZZ       0.2947
       ZZZ      -3.9929
    Hexadecapole Moments (Debye-Ang^3)
      XXXX       7.1376   XXXY       5.4740   XXYY     -97.3459
      XYYY      -0.2735   YYYY    -189.2051   XXXZ     -16.6426
      XXYZ       8.3143   XYYZ      -0.5209   YYYZ      -0.0859
      XXZZ    -110.1450   XYZZ       0.4616   YYZZ     -55.5699
      XZZZ      -2.2531   YZZZ       0.9564   ZZZZ    -161.8012
 -----------------------------------------------------------------
Archival summary:
1\1\nid01014\OPT\ProcedureUnspecified\BasisUnspecified\142i14(1+,1)\sblau\FriDec2817:12:132018FriDec2817:12:132018\0\\#,OPT,ProcedureUnspecified,BasisUnspecified,\\1,1\S\O,1,1.45706\O,1,1.46217,2,111.303\O,1,1.57598,2,110.063,3,-126.396,0\C,4,1.47047,1,110.018,2,-133.497,0\H,5,1.08688,4,106.328,1,152.384,0\H,5,1.08887,4,107.976,1,-87.3165,0\C,5,1.51687,4,103.251,1,32.9771,0\H,8,1.08551,5,112.714,4,78.4259,0\H,8,1.0869,5,113.297,4,-152.876,0\O,8,1.46999,5,103.492,4,-38.0455,0\Li,3,2.08872,1,93.387,2,0.347244,0\\\@

 Total job time:  355.16s(wall), 9015.65s(cpu) 
 Fri Dec 28 17:12:13 2018

        *************************************************************
        *                                                           *
        *  Thank you very much for using Q-Chem.  Have a nice day.  *
        *                                                           *
        *************************************************************


