
Running Job 1 of 1 mol.qin
qchem mol.qin_22717.0 /tmp/chain_scratch/ 1
/global/common/cori/software/qchem/5.1/exe/qcprog.exe mol.qin_22717.0 /tmp/chain_scratch/
Check license passed

                  Welcome to Q-Chem
     A Quantum Leap Into The Future Of Chemistry


 Q-Chem 5.1, Q-Chem, Inc., Pleasanton, CA (2018)

 Yihan Shao,  Zhengting Gan,  E. Epifanovsky,  A. T. B. Gilbert,  M. Wormit,  
 J. Kussmann,  A. W. Lange,  A. Behn,  Jia Deng,  Xintian Feng,  D. Ghosh,  
 M. Goldey,  P. R. Horn,  L. D. Jacobson,  I. Kaliman,  T. Kus,  A. Landau,  
 Jie Liu,  E. I. Proynov,  R. M. Richard,  R. P. Steele,  E. J. Sundstrom,  
 H. L. Woodcock III,  P. M. Zimmerman,  D. Zuev,  B. Albrecht,  E. Alguire,  
 S. A. Baeppler,  D. Barton,  Z. Benda,  Y. A. Bernard,  E. J. Berquist,  
 K. B. Bravaya,  H. Burton,  D. Casanova,  Chun-Min Chang,  Yunqing Chen,  
 A. Chien,  K. D. Closser,  M. P. Coons,  S. Coriani,  S. Dasgupta,  
 A. L. Dempwolff,  M. Diedenhofen,  Hainam Do,  R. G. Edgar,  Po-Tung Fang,  
 S. Faraji,  S. Fatehi,  Qingguo Feng,  K. D. Fenk,  J. Fosso-Tande,  
 Qinghui Ge,  A. Ghysels,  G. Gidofalvi,  J. Gomes,  J. Gonthier,  A. Gunina,  
 D. Hait,  M. W. D. Hanson-Heine,  P. H. P. Harbach,  A. W. Hauser,  
 J. E. Herr,  E. G. Hohenstein,  Z. C. Holden,  Kerwin Hui,  B. C. Huynh,  
 T.-C. Jagau,  Hyunjun Ji,  B. Kaduk,  K. Khistyaev,  Jaehoon Kim,  
 P. Klunzinger,  K. Koh,  D. Kosenkov,  L. Koulias,  T. Kowalczyk,  
 C. M. Krauter,  A. Kunitsa,  Ka Un Lao,  A. Laurent,  K. V. Lawler,  
 Joonho Lee,  D. Lefrancois,  S. Lehtola,  D. S. Levine,  Yi-Pei Li,  
 You-Sheng Lin,  Fenglai Liu,  E. Livshits,  A. Luenser,  P. Manohar,  
 E. Mansoor,  S. F. Manzer,  Shan-Ping Mao,  Yuezhi Mao,  N. Mardirossian,  
 A. V. Marenich,  T. Markovich,  L. A. Martinez-Martinez,  S. A. Maurer,  
 N. J. Mayhall,  S. C. McKenzie,  J.-M. Mewes,  A. F. Morrison,  
 J. W. Mullinax,  K. Nanda,  T. S. Nguyen-Beck,  R. Olivares-Amaya,  
 J. A. Parkhill,  T. M. Perrine,  F. Plasser,  P. Pokhilko,  S. Prager,  
 A. Prociuk,  E. Ramos,  D. R. Rehn,  F. Rob,  M. Schneider,  N. Sergueev,  
 S. M. Sharada,  S. Sharma,  D. W. Small,  T. Stauch,  T. Stein,  
 Yu-Chuan Su,  A. J. W. Thom,  A. Tkatchenko,  T. Tsuchimochi,  N. M. Tubman,  
 L. Vogt,  M. L. Vidal,  O. Vydrov,  M. A. Watson,  J. Wenzel,  
 M. de Wergifosse,  T. A. Wesolowski,  A. White,  J. Witte,  A. Yamada,  
 Jun Yang,  K. Yao,  S. Yeganeh,  S. R. Yost,  Zhi-Qiang You,  A. Zech,  
 Igor Ying Zhang,  Xing Zhang,  Yan Zhao,  Ying Zhu,  B. R. Brooks,  
 G. K. L. Chan,  C. J. Cramer,  M. S. Gordon,  W. J. Hehre,  A. Klamt,  
 M. W. Schmidt,  C. D. Sherrill,  D. G. Truhlar,  A. Aspuru-Guzik,  R. Baer,  
 A. T. Bell,  N. A. Besley,  Jeng-Da Chai,  R. A. DiStasio Jr.,  A. Dreuw,  
 B. D. Dunietz,  T. R. Furlani,  Chao-Ping Hsu,  Yousung Jung,  Jing Kong,  
 D. S. Lambrecht,  WanZhen Liang,  C. Ochsenfeld,  V. A. Rassolov,  
 L. V. Slipchenko,  J. E. Subotnik,  T. Van Voorhis,  J. M. Herbert,  
 A. I. Krylov,  P. M. W. Gill,  M. Head-Gordon

 Contributors to earlier versions of Q-Chem not listed above: 
 R. D. Adamson,  B. Austin,  J. Baker,  G. J. O. Beran,  K. Brandhorst,  
 S. T. Brown,  E. F. C. Byrd,  A. K. Chakraborty,  C.-L. Cheng,  
 Siu Hung Chien,  D. M. Chipman,  D. L. Crittenden,  H. Dachsel,  
 R. J. Doerksen,  A. D. Dutoi,  L. Fusti-Molnar,  W. A. Goddard III,  
 A. Golubeva-Zadorozhnaya,  S. R. Gwaltney,  G. Hawkins,  A. Heyden,  
 S. Hirata,  G. Kedziora,  F. J. Keil,  C. Kelley,  Jihan Kim,  R. A. King,  
 R. Z. Khaliullin,  P. P. Korambath,  W. Kurlancheek,  A. M. Lee,  M. S. Lee,  
 S. V. Levchenko,  Ching Yeh Lin,  D. Liotard,  R. C. Lochan,  I. Lotan,  
 P. E. Maslen,  N. Nair,  D. P. O'Neill,  D. Neuhauser,  E. Neuscamman,  
 C. M. Oana,  R. Olson,  B. Peters,  R. Peverati,  P. A. Pieniazek,  
 Y. M. Rhee,  J. Ritchie,  M. A. Rohrdanz,  E. Rosta,  N. J. Russ,  
 H. F. Schaefer III,  N. E. Schultz,  N. Shenvi,  A. C. Simmonett,  A. Sodt,  
 D. Stuck,  K. S. Thanthiriwatte,  V. Vanovschi,  Tao Wang,  A. Warshel,  
 C. F. Williams,  Q. Wu,  X. Xu,  W. Zhang

 Please cite Q-Chem as follows:
 Y. Shao et al., Mol. Phys. 113, 184-215 (2015)
 DOI: 10.1080/00268976.2014.952696

 Q-Chem 5.1.0 for Intel X86 EM64T Linux

 Parts of Q-Chem use Armadillo 8.300.2 (Tropical Shenanigans).
 http://arma.sourceforge.net/

 Q-Chem begins on Fri Dec 28 15:53:51 2018  

Host: cori08
0

     Scratch files written to /tmp/chain_scratch//
 Jun2518 |scratch|qcdevops|jenkins|workspace|build_RNUM -1
Processing $rem in /global/common/cori/software/qchem/5.1/config/preferences.
 MEM_TOTAL  96000 
The previous job contains 0 fragments, simply inherited here
Symmetry turned off for PCM/SM12/SMD calculation

Checking the input file for inconsistencies... 	...done.

--------------------------------------------------------------
User input:
--------------------------------------------------------------
$molecule
read
$end

$rem
job_type = opt
basis = 6-31++g**
max_scf_cycles = 200
gen_scfman = true
xc_grid = 3
scf_algorithm = diis_gdm
method = wb97xd
geom_opt_max_cycles = 200
solvent_method = smd
ideriv = 1
scf_guess = read
geom_opt_hessian = read
$end

$smx
solvent acetonitrile
$end
--------------------------------------------------------------
 ----------------------------------------------------------------
             Standard Nuclear Orientation (Angstroms)
    I     Atom           X                Y                Z
 ----------------------------------------------------------------
    1      Li      3.1357477530     0.0359551915    -0.0901930134
    2      C      -1.8531646202     0.7561512685    -0.0173473504
    3      O      -0.5136837173     1.0895878468     0.4894923796
    4      C      -1.8652472671    -0.7605344597     0.0032027763
    5      S       0.5220386713    -0.0095032771     0.0391863365
    6      O      -0.5016991777    -1.1200983752    -0.4120139294
    7      O       1.3377261947     0.3985260854    -1.1033446746
    8      O       1.3539207455    -0.4042100746     1.1688239557
    9      H      -2.5618876308     1.1997503530     0.6770927759
   10      H      -1.9471410549     1.1747744909    -1.0181605671
   11      H      -2.0324818310    -1.1654770112     0.9964760521
   12      H      -2.5357005267    -1.1948157770    -0.7338856301
 ----------------------------------------------------------------
 Nuclear Repulsion Energy =   484.1970101150 hartrees
 There are       33 alpha and       33 beta electrons
 Requested basis set is 6-31++G(d,p)
 There are 57 shells and 180 basis functions

 Total QAlloc Memory Limit  96000 MB
 Mega-Array Size       188 MB
 MEM_STATIC part       192 MB
 A cutoff of  1.0D-12 yielded   1574 shell pairs
 There are     16206 function pairs
 
 -------------------------------------------------------
 OpenMP Integral Computing Module                       
 Release: version 1.0, May 2013, Q-Chem Inc. Pittsburgh 
 -------------------------------------------------------
 Integral Job Info:
 Integral job number is                      11
 Integral operator is                         1
 short-range coefficients              22203600
 long-range coefficients              100000000
 Omega coefficients                         200
 if combine SR and LR in K                    1
 Integral screening is                        0
 Integral computing path is                   2
 max size of driver memory is            800000
 size of driver memory is                593474
 size of scratch memory is             15604072
 max col of scratch BK array               1296
 max len of scratch array in speh3          155
 max len of scratch index in speh4           18
 max int batch size is                      520
 min int batch size is                       52
 fixed nKL is                                52
 max L of basis functions is                  2
 order of int derivative is                   0
 number of shells is                         57
 number of basis is                         180
 number of cartesian basis is               180
 number of contracted shell pairs          1574
 number of primitive shell pairs           5390
 maxK2 (contraction) of shell pair           36
 max number of K2 of shell pair               1
 max number of CS2 of shell pair            176
 max number of PS2 of shell pair           1056
 mem total for path MDJ                  537180
 -------------------------------------------------------
 Smallest overlap matrix eigenvalue = 1.31E-04

 Scale SEOQF with 1.000000e-02/1.000000e-02/1.000000e-02

 Standard Electronic Orientation quadrupole field applied
 Nucleus-field energy     =     0.0000000004 hartrees

 -----------------------------------------------------------------------
  General SCF calculation program by
  Eric Jon Sundstrom, Paul Horn, Yuezhi Mao, Dmitri Zuev, Alec White,
  David Stuck, Shaama M.S., Shane Yost, Joonho Lee, David Small,
  Daniel Levine, Susi Lehtola, Hugh Burton, Evgeny Epifanovsky
 -----------------------------------------------------------------------
 Exchange:     0.2220 Hartree-Fock + 1.0000 wB97X-D + LR-HF
 Correlation:  1.0000 wB97X-D
 Using SG-3 standard quadrature grid
 Dispersion:   Grimme D
 
 Citation of the SMD model:
 Marenich, A.V.; Cramer, C.J.; Truhlar, D.G.
 J. Phys. Chem. B 2009, 113, 6378-6396.
 iSolventCode=          53
 Solvent: acetonitrile                                                    
 
 vradii
            1           2           3           4           5           6
    1   2.1476001   1.8500000   2.1680000   1.8500000   2.4900000   2.1680000
            7           8           9          10          11          12
    1   2.1680000   2.1680000   1.2000000   1.2000000   1.2000000   1.2000000
Changing PCM_TESSEL_METHOD to VTN
Changing PCM_VDW_RADII to SMD_RADIUS
 Discretize the solute cavity surface with Lebedev spheres
	Using 302 Lebedev grid points for each H atom
	Using 302 Lebedev grid points for other atoms
	Atomic van der Waals radii will be scaled by 1.20
 Removing interior tesserae...
 Keep 1145 surface tesserae and discard 2479 interior tesserae
 Molecular Surface Area = 164.340 Angst**2
 
 Citation of the SMD model:
 Marenich, A.V.; Cramer, C.J.; Truhlar, D.G.
 J. Phys. Chem. B 2009, 113, 6378-6396.
 iSolventCode=          53
 Solvent: acetonitrile                                                    
 
 vradii
            1           2           3           4           5           6
    1   2.1476001   1.8500000   2.1680000   1.8500000   2.4900000   2.1680000
            7           8           9          10          11          12
    1   2.1680000   2.1680000   1.2000000   1.2000000   1.2000000   1.2000000
 
 Citation of the SMD model:
 Marenich, A.V.; Cramer, C.J.; Truhlar, D.G.
 J. Phys. Chem. B 2009, 113, 6378-6396.
 iSolventCode=          53
 Solvent: acetonitrile                                                    
 
 vradii
            1           2           3           4           5           6
    1   2.1476001   1.8500000   2.1680000   1.8500000   2.4900000   2.1680000
            7           8           9          10          11          12
    1   2.1680000   2.1680000   1.2000000   1.2000000   1.2000000   1.2000000
 using 32 threads for integral computing
 -------------------------------------------------------
 OpenMP Integral computing Module                
 Release: version 1.0, May 2013, Q-Chem Inc. Pittsburgh 
 -------------------------------------------------------
 using 32 threads for integral computing
 -------------------------------------------------------
 OpenMP Integral computing Module                
 Release: version 1.0, May 2013, Q-Chem Inc. Pittsburgh 
 -------------------------------------------------------
 -------------------------------------------------------
 OpenMP BLAS3 based DFT computing Module                
 Release: version 1.0, May 2013, Q-Chem Inc. Pittsburgh 
 -------------------------------------------------------
 A restricted SCF calculation will be
 performed using DIIS, GDM
 SCF converges when RMS gradient is below 1.0e-08
 ---------------------------------------
  Cycle       Energy         DIIS error
 ---------------------------------------
    1    -784.8384882360      4.04e-04  
    2    -784.9323254855      4.42e-04  Done DIIS. Switching to GDM
 ---------------------------------------
  Cycle       Energy        RMS Gradient
 ---------------------------------------
    1    -784.9323254855      6.45e-03   Normal BFGS step
    2    -784.9332987144      2.95e-03   Normal BFGS step
    3    -784.9335363806      1.18e-03   Normal BFGS step
    4    -784.9335760592      5.73e-04   Normal BFGS step
    5    -784.9335803702      2.89e-04   Normal BFGS step
    6    -784.9335818207      1.03e-04   Normal BFGS step
    7    -784.9335819963      5.67e-05   Normal BFGS step
    8    -784.9335820510      8.85e-06   Normal BFGS step
    9    -784.9335820532      7.83e-06   Normal BFGS step
   10    -784.9335820538      2.81e-06   Normal BFGS step
   11    -784.9335820539      8.64e-07   Normal BFGS step
   12    -784.9335820539      1.45e-07   Normal BFGS step
   13    -784.9335820539      3.40e-08   Normal BFGS step
   14    -784.9335820539      9.93e-09  Convergence criterion met
 ---------------------------------------
 SCF time:   CPU 590.37s  wall 27.00s 
(0)  E-EN(g) gas-phase elect-nuc energy                    0.000000000 a.u.
(3)  G-ENP(liq) elect-nuc-pol free energy of system     -784.933582054 a.u.
(4)  G-CDS(liq) cavity-dispersion-solvent structure 
     free energy                                               -0.3959 kcal/mol
(6)  G-S(liq) free energy of system                     -784.934213030 a.u.
(9)  DeltaG-S(liq) free energy of  solvation
     (9) = (6) - (0)                                      -492553.6528 kcal/mol
 SCF   energy in the final basis set =     -784.9335820539
 Total energy in the final basis set =     -784.9342130302
 
 --------------------------------------------------------------
 
                    Orbital Energies (a.u.)
 --------------------------------------------------------------
 
 Alpha MOs
 -- Occupied --
-89.382 -19.389 -19.389 -19.346 -19.345 -10.399 -10.399  -8.366
 -6.318  -6.316  -6.315  -2.164  -1.354  -1.228  -1.208  -1.177
 -0.926  -0.814  -0.778  -0.678  -0.671  -0.637  -0.622  -0.593
 -0.571  -0.540  -0.523  -0.510  -0.490  -0.487  -0.485  -0.440
 -0.429
 -- Virtual --
  0.008   0.017   0.017   0.019   0.042   0.062   0.066   0.068
  0.070   0.085   0.089   0.089   0.093   0.115   0.122   0.133
  0.135   0.135   0.140   0.149   0.171   0.175   0.179   0.195
  0.203   0.204   0.212   0.216   0.216   0.220   0.239   0.247
  0.264   0.273   0.276   0.278   0.292   0.307   0.321   0.342
  0.346   0.351   0.354   0.365   0.383   0.393   0.404   0.405
  0.415   0.422   0.427   0.444   0.471   0.501   0.567   0.581
  0.610   0.644   0.665   0.675   0.684   0.732   0.744   0.764
  0.769   0.783   0.828   0.849   0.865   0.901   1.014   1.018
  1.062   1.103   1.114   1.133   1.142   1.172   1.184   1.238
  1.248   1.251   1.307   1.321   1.332   1.377   1.382   1.405
  1.409   1.424   1.448   1.489   1.493   1.522   1.583   1.642
  1.655   1.667   1.691   1.755   1.798   1.835   1.846   1.861
  1.904   1.914   1.959   1.984   1.986   2.000   2.033   2.062
  2.097   2.112   2.176   2.193   2.213   2.267   2.279   2.346
  2.391   2.411   2.508   2.601   2.642   2.648   2.667   2.740
  2.757   2.810   2.835   2.916   2.935   2.941   2.973   3.116
  3.377   3.395   3.534   3.592   4.063   4.212   4.295   4.308
  4.378   4.530   4.757
 --------------------------------------------------------------
 
          Ground-State Mulliken Net Atomic Charges

     Atom                 Charge (a.u.)
  ----------------------------------------
      1 Li                    0.770909
      2 C                    -0.151728
      3 O                    -0.530367
      4 C                    -0.148293
      5 S                     1.791032
      6 O                    -0.535440
      7 O                    -0.593667
      8 O                    -0.588639
      9 H                     0.256041
     10 H                     0.237709
     11 H                     0.237506
     12 H                     0.254937
  ----------------------------------------
  Sum of atomic charges =     1.000000

 -----------------------------------------------------------------
                    Cartesian Multipole Moments
 -----------------------------------------------------------------
    Charge (ESU x 10^10)
                 4.8032
    Dipole Moment (Debye)
         X       3.5138      Y       0.1610      Z      -0.4598
       Tot       3.5474
    Quadrupole Moments (Debye-Ang)
        XX       6.5765     XY       0.4829     YY     -46.1931
        XZ      -1.2014     YZ       0.3522     ZZ     -50.3582
    Octopole Moments (Debye-Ang^2)
       XXX     112.3618    XXY       1.8216    XYY      -2.2421
       YYY       1.0878    XXZ      -5.2787    XYZ       2.8831
       YYZ      -1.2270    XZZ      -6.4141    YZZ       0.2486
       ZZZ      -3.7384
    Hexadecapole Moments (Debye-Ang^3)
      XXXX       6.2621   XXXY       4.9505   XXYY     -97.3419
      XYYY      -0.3144   YYYY    -189.1895   XXXZ     -15.4782
      XXYZ       8.3206   XYYZ      -0.4850   YYYZ      -0.0805
      XXZZ    -110.2256   XYZZ       0.4156   YYZZ     -55.5503
      XZZZ      -2.0794   YZZZ       0.9455   ZZZZ    -161.7267
 -----------------------------------------------------------------
 Calculating analytic gradient of the SCF energy
 Gradient of CDS energy
            1           2           3           4           5           6
    1   0.0000591  -0.0004767   0.0001895  -0.0004471  -0.0000264   0.0001872
    2   0.0000020   0.0010600  -0.0001521  -0.0010683   0.0000164   0.0001549
    3  -0.0000068  -0.0000435  -0.0000869   0.0000613  -0.0000286   0.0000882
            7           8           9          10          11          12
    1  -0.0001268  -0.0001336   0.0001843   0.0002333   0.0001697   0.0001876
    2  -0.0000277   0.0000240  -0.0001061  -0.0001254   0.0001275   0.0000948
    3   0.0000971  -0.0000884   0.0000385   0.0000547  -0.0000677  -0.0000180
 Gradient of SCF Energy
            1           2           3           4           5           6
    1   0.0063186   0.0418776  -0.0266474   0.0438685  -0.0058798  -0.0260685
    2   0.0000261  -0.0309132   0.0237678   0.0279990  -0.0003282  -0.0237137
    3  -0.0003191   0.0200853   0.0048338  -0.0150808  -0.0004288  -0.0056966
            7           8           9          10          11          12
    1   0.0196590   0.0204118  -0.0317537  -0.0043598  -0.0074165  -0.0300098
    2   0.0145615  -0.0142665   0.0171205   0.0140725  -0.0116063  -0.0167194
    3  -0.0407059   0.0418231   0.0294851  -0.0405022   0.0379874  -0.0314812
 Max gradient component =       4.387E-02
 RMS gradient           =       2.424E-02
 Computing VTN gradient.
 Updating gradient with PCM contributions...
 -- total gradient after adding PCM contribution --
---------------------------------------------------
  Atom         X              Y              Z     
---------------------------------------------------
   1      -0.000017       0.000122      -0.000001
   2      -0.000074       0.000014       0.000063
   3      -0.000015      -0.000033       0.000086
   4       0.000063      -0.000013      -0.000039
   5       0.000091      -0.000019      -0.000090
   6      -0.000017       0.000026      -0.000089
   7      -0.000020       0.000082      -0.000010
   8      -0.000018      -0.000107      -0.000044
   9       0.000008      -0.000072       0.000126
  10       0.000083       0.000043       0.000131
  11      -0.000052      -0.000089      -0.000078
  12      -0.000031       0.000046      -0.000055
---------------------------------------------------
 Number of fixed atoms: 0
 Gradient time:  CPU 78.61 s  wall 3.46 s
 Geometry Optimization Parameters
   NAtoms,    NIC,     NZ,  NCons,   NDum,   NFix, NCnnct, MaxDiis
       12     104       0       0       0       0       0       0

 Cartesian Hessian read from HESS file


** GEOMETRY OPTIMIZATION IN DELOCALIZED INTERNAL COORDINATES **
   Searching for a Minimum

   Optimization Cycle:   1

                       Coordinates (Angstroms)
     ATOM                X               Y               Z
      1  Li        3.1357477530    0.0359551915   -0.0901930134
      2  C        -1.8531646202    0.7561512685   -0.0173473504
      3  O        -0.5136837173    1.0895878468    0.4894923796
      4  C        -1.8652472671   -0.7605344597    0.0032027763
      5  S         0.5220386713   -0.0095032771    0.0391863365
      6  O        -0.5016991777   -1.1200983752   -0.4120139294
      7  O         1.3377261947    0.3985260854   -1.1033446746
      8  O         1.3539207455   -0.4042100746    1.1688239557
      9  H        -2.5618876308    1.1997503530    0.6770927759
     10  H        -1.9471410549    1.1747744909   -1.0181605671
     11  H        -2.0324818310   -1.1654770112    0.9964760521
     12  H        -2.5357005267   -1.1948157770   -0.7338856301
   Point Group: c1    Number of degrees of freedom:    30


   Energy is   -784.934213030


 Attempting to Generate Delocalized Internal Coordinates

Intel MKL ERROR: Parameter 5 was incorrect on entry to DSYEVD.

Intel MKL ERROR: Parameter 5 was incorrect on entry to DSYEVD.
 Info = -5

 Q-Chem warning in module liblas/diagon.C, line 97:

 Call to dsyevd failed in Diagonalize


Intel MKL ERROR: Parameter 5 was incorrect on entry to DSYEV.

  ***ERROR*** Unable to Diagonalize B*B(t) in <MakeNIC>
**WARNING** Problems with Internal Coordinates
  Switching to Cartesian Coordinates

 Translations and Rotations Projected Out of Hessian

 30 Hessian modes will be used to form the next step
  Hessian Eigenvalues:
    -0.001170    0.001825    0.011676    0.014651    0.026940    0.039769
     0.046223    0.056702    0.072086    0.086208    0.095714    0.103443
     0.127842    0.173936    0.179146    0.192794    0.204668    0.245390
     0.293293    0.318216    0.447237    0.483949    0.573025    0.691445
     0.892592    0.945247    1.154440    1.251037    1.460661    2.577119
**WARNING** Hessian does not have the Desired Local Structure

 Minimum Search - Taking Simple RFO Step
 Searching for Lamda that Minimizes Along All modes
 Value Taken    Lamda =  -0.00117009
 Calculated Step too Large.  Step scaled by  0.001659
 Step Taken.  Stepsize is  0.300000

                             Maximum     Tolerance    Cnvgd?
         Gradient           0.000131      0.000300     YES
         Displacement       0.205149      0.001200      NO
         Energy change     *********      0.000001      NO

 ----------------------------------------------------------------
             Standard Nuclear Orientation (Angstroms)
    I     Atom           X                Y                Z
 ----------------------------------------------------------------
    1      Li      3.1553194568     0.0804993316    -0.1987532001
    2      C      -1.8514515323     0.7578085129    -0.0232578078
    3      O      -0.5154999061     1.0891644061     0.4921532943
    4      C      -1.8676030568    -0.7586324162    -0.0017049143
    5      S       0.5211381922    -0.0248504627     0.0769815253
    6      O      -0.5035147394    -1.1201808912    -0.4125223496
    7      O       1.3646600516     0.3798185819    -1.0506064862
    8      O       1.3170823440    -0.4290866826     1.2246843001
    9      H      -2.5642403545     1.2031094535     0.6660530859
   10      H      -1.9420790104     1.1773298522    -1.0252425139
   11      H      -2.0391189407    -1.1620302830     0.9919643738
   12      H      -2.5362649656    -1.1928431413    -0.7404201967
 ----------------------------------------------------------------
 Nuclear Repulsion Energy =   483.8248078092 hartrees
 There are       33 alpha and       33 beta electrons
 Discretize the solute cavity surface with Lebedev spheres
	Using 302 Lebedev grid points for each H atom
	Using 302 Lebedev grid points for other atoms
	Atomic van der Waals radii will be scaled by 1.20
 Removing interior tesserae...
 Keep 1151 surface tesserae and discard 2473 interior tesserae
 Molecular Surface Area = 165.691 Angst**2
 Nucleus-field energy     =     0.0000000004 hartrees
 Requested basis set is 6-31++G(d,p)
 There are 57 shells and 180 basis functions
 A cutoff of  1.0D-12 yielded   1574 shell pairs
 There are     16206 function pairs
 Smallest overlap matrix eigenvalue = 1.31E-04

 -----------------------------------------------------------------------
  General SCF calculation program by
  Eric Jon Sundstrom, Paul Horn, Yuezhi Mao, Dmitri Zuev, Alec White,
  David Stuck, Shaama M.S., Shane Yost, Joonho Lee, David Small,
  Daniel Levine, Susi Lehtola, Hugh Burton, Evgeny Epifanovsky
 -----------------------------------------------------------------------
 Exchange:     0.2220 Hartree-Fock + 1.0000 wB97X-D + LR-HF
 Correlation:  1.0000 wB97X-D
 Using SG-3 standard quadrature grid
 Dispersion:   Grimme D
 using 32 threads for integral computing
 -------------------------------------------------------
 OpenMP Integral computing Module                
 Release: version 1.0, May 2013, Q-Chem Inc. Pittsburgh 
 -------------------------------------------------------
 using 32 threads for integral computing
 -------------------------------------------------------
 OpenMP Integral computing Module                
 Release: version 1.0, May 2013, Q-Chem Inc. Pittsburgh 
 -------------------------------------------------------
 -------------------------------------------------------
 OpenMP BLAS3 based DFT computing Module                
 Release: version 1.0, May 2013, Q-Chem Inc. Pittsburgh 
 -------------------------------------------------------
 A restricted SCF calculation will be
 performed using DIIS, GDM
 SCF converges when RMS gradient is below 1.0e-08
 ---------------------------------------
  Cycle       Energy         DIIS error
 ---------------------------------------
    1    -784.9331362473      5.82e-04  
    2    -784.9333566146      2.60e-04  Done DIIS. Switching to GDM
 ---------------------------------------
  Cycle       Energy        RMS Gradient
 ---------------------------------------
    1    -784.9333566146      5.25e-03   Normal BFGS step
    2    -784.9332875525      5.73e-03  Line search: overstep
    3    -784.9335828857      1.11e-03   Normal BFGS step
    4    -784.9336351302      3.31e-04   Normal BFGS step
    5    -784.9336368414      9.10e-05   Normal BFGS step
    6    -784.9336369615      7.16e-05   Normal BFGS step
    7    -784.9336370333      1.25e-05   Normal BFGS step
    8    -784.9336370386      7.22e-06   Normal BFGS step
    9    -784.9336370400      1.48e-06   Normal BFGS step
   10    -784.9336370400      5.70e-07   Normal BFGS step
   11    -784.9336370401      1.91e-07   Normal BFGS step
   12    -784.9336370401      1.10e-07   Normal BFGS step
   13    -784.9336370401      2.68e-08   Normal BFGS step
   14    -784.9336370401      1.65e-08   Normal BFGS step
   15    -784.9336370401      5.22e-09  Convergence criterion met
 ---------------------------------------
 SCF time:   CPU 612.67s  wall 23.00s 
(0)  E-EN(g) gas-phase elect-nuc energy                    0.000000000 a.u.
(3)  G-ENP(liq) elect-nuc-pol free energy of system     -784.933637040 a.u.
(4)  G-CDS(liq) cavity-dispersion-solvent structure 
     free energy                                               -0.3959 kcal/mol
(6)  G-S(liq) free energy of system                     -784.934268016 a.u.
(9)  DeltaG-S(liq) free energy of  solvation
     (9) = (6) - (0)                                      -492553.6873 kcal/mol
 SCF   energy in the final basis set =     -784.9336370401
 Total energy in the final basis set =     -784.9342680163
 
 --------------------------------------------------------------
 
                    Orbital Energies (a.u.)
 --------------------------------------------------------------
 
 Alpha MOs
 -- Occupied --
-89.381 -19.388 -19.388 -19.346 -19.343 -10.399 -10.398  -8.365
 -6.317  -6.316  -6.314  -2.163  -1.352  -1.226  -1.206  -1.177
 -0.926  -0.814  -0.778  -0.678  -0.671  -0.636  -0.622  -0.592
 -0.571  -0.539  -0.522  -0.509  -0.489  -0.486  -0.484  -0.439
 -0.428
 -- Virtual --
  0.008   0.017   0.017   0.019   0.043   0.061   0.066   0.068
  0.070   0.085   0.089   0.090   0.092   0.115   0.122   0.132
  0.134   0.136   0.141   0.150   0.171   0.174   0.179   0.195
  0.202   0.204   0.212   0.216   0.217   0.221   0.237   0.243
  0.261   0.273   0.276   0.280   0.291   0.310   0.322   0.341
  0.345   0.351   0.354   0.365   0.381   0.393   0.405   0.406
  0.414   0.421   0.428   0.444   0.471   0.504   0.565   0.582
  0.612   0.643   0.661   0.676   0.688   0.728   0.743   0.761
  0.768   0.789   0.827   0.848   0.865   0.896   1.012   1.020
  1.059   1.104   1.115   1.139   1.146   1.167   1.191   1.239
  1.252   1.253   1.307   1.320   1.339   1.371   1.381   1.402
  1.409   1.420   1.445   1.488   1.494   1.524   1.582   1.643
  1.654   1.666   1.681   1.753   1.805   1.815   1.845   1.861
  1.906   1.913   1.959   1.967   1.985   2.001   2.034   2.065
  2.108   2.158   2.174   2.197   2.214   2.269   2.281   2.347
  2.385   2.412   2.509   2.601   2.641   2.647   2.667   2.740
  2.757   2.810   2.835   2.915   2.936   2.941   2.975   3.118
  3.375   3.395   3.534   3.592   4.064   4.211   4.290   4.309
  4.377   4.530   4.757
 --------------------------------------------------------------
 
          Ground-State Mulliken Net Atomic Charges

     Atom                 Charge (a.u.)
  ----------------------------------------
      1 Li                    0.779550
      2 C                    -0.137954
      3 O                    -0.532702
      4 C                    -0.156310
      5 S                     1.772061
      6 O                    -0.532989
      7 O                    -0.593889
      8 O                    -0.581933
      9 H                     0.255241
     10 H                     0.236540
     11 H                     0.237375
     12 H                     0.255009
  ----------------------------------------
  Sum of atomic charges =     1.000000

 -----------------------------------------------------------------
                    Cartesian Multipole Moments
 -----------------------------------------------------------------
    Charge (ESU x 10^10)
                 4.8032
    Dipole Moment (Debye)
         X       3.7023      Y       0.3534      Z      -0.9420
       Tot       3.8366
    Quadrupole Moments (Debye-Ang)
        XX       7.2482     XY       1.0993     YY     -46.2144
        XZ      -2.5746     YZ       0.3001     ZZ     -50.2580
    Octopole Moments (Debye-Ang^2)
       XXX     115.8138    XXY       4.1321    XYY      -2.0090
       YYY       2.2141    XXZ     -10.9609    XYZ       2.7194
       YYZ      -2.2653    XZZ      -5.7601    YZZ       0.8961
       ZZZ      -7.2398
    Hexadecapole Moments (Debye-Ang^3)
      XXXX      18.5346   XXXY      12.0682   XXYY     -97.1240
      XYYY       0.2383   YYYY    -189.6004   XXXZ     -32.2088
      XXYZ       7.7495   XYYZ      -0.9972   YYYZ       0.1586
      XXZZ    -108.8038   XYZZ       1.0455   YYZZ     -55.8652
      XZZZ      -4.3119   YZZZ       1.2497   ZZZZ    -163.1387
 -----------------------------------------------------------------
 Calculating analytic gradient of the SCF energy
 Gradient of CDS energy
            1           2           3           4           5           6
    1   0.0000591  -0.0004767   0.0001895  -0.0004471  -0.0000264   0.0001872
    2   0.0000020   0.0010600  -0.0001521  -0.0010683   0.0000164   0.0001549
    3  -0.0000068  -0.0000435  -0.0000869   0.0000613  -0.0000286   0.0000882
            7           8           9          10          11          12
    1  -0.0001268  -0.0001336   0.0001843   0.0002333   0.0001697   0.0001876
    2  -0.0000277   0.0000240  -0.0001061  -0.0001254   0.0001275   0.0000948
    3   0.0000971  -0.0000884   0.0000385   0.0000547  -0.0000677  -0.0000180
 Gradient of SCF Energy
            1           2           3           4           5           6
    1   0.0059682   0.0431947  -0.0267081   0.0431276  -0.0087478  -0.0264255
    2   0.0002014  -0.0311806   0.0239801   0.0277982   0.0002411  -0.0235016
    3  -0.0006824   0.0206557   0.0045546  -0.0147292  -0.0026110  -0.0062996
            7           8           9          10          11          12
    1   0.0225437   0.0209642  -0.0316990  -0.0049536  -0.0073937  -0.0298706
    2   0.0140410  -0.0151722   0.0172194   0.0145015  -0.0114717  -0.0166567
    3  -0.0388897   0.0439516   0.0288028  -0.0410082   0.0377402  -0.0314850
 Max gradient component =       4.395E-02
 RMS gradient           =       2.442E-02
 Computing VTN gradient.
 Updating gradient with PCM contributions...
 -- total gradient after adding PCM contribution --
---------------------------------------------------
  Atom         X              Y              Z     
---------------------------------------------------
   1      -0.000783       0.000005      -0.000294
   2       0.000234      -0.000151       0.000387
   3      -0.000263       0.000100      -0.000033
   4       0.000014       0.000188      -0.000215
   5      -0.000607      -0.000002      -0.000048
   6      -0.000274      -0.000075      -0.000352
   7       0.001080       0.000162       0.000226
   8       0.000946      -0.000262       0.000396
   9      -0.000018       0.000002      -0.000105
  10      -0.000247       0.000255      -0.000218
  11      -0.000138      -0.000239       0.000303
  12       0.000055       0.000016      -0.000049
---------------------------------------------------
 Number of fixed atoms: 0
 Gradient time:  CPU 78.84 s  wall 3.48 s
 Geometry Optimization Parameters
   NAtoms,    NIC,     NZ,  NCons,   NDum,   NFix, NCnnct, MaxDiis
       12     104       0       0       0       0       0       0

 Cartesian Hessian Update
 Hessian Updated using BFGS Update


** GEOMETRY OPTIMIZATION IN CARTESIAN COORDINATES **
   Searching for a Minimum

   Optimization Cycle:   2

                       Coordinates (Angstroms)
     ATOM                X               Y               Z
      1  Li        3.1553194568    0.0804993316   -0.1987532001
      2  C        -1.8514515323    0.7578085129   -0.0232578078
      3  O        -0.5154999061    1.0891644061    0.4921532943
      4  C        -1.8676030568   -0.7586324162   -0.0017049143
      5  S         0.5211381922   -0.0248504627    0.0769815253
      6  O        -0.5035147394   -1.1201808912   -0.4125223496
      7  O         1.3646600516    0.3798185819   -1.0506064862
      8  O         1.3170823440   -0.4290866826    1.2246843001
      9  H        -2.5642403545    1.2031094535    0.6660530859
     10  H        -1.9420790104    1.1773298522   -1.0252425139
     11  H        -2.0391189407   -1.1620302830    0.9919643738
     12  H        -2.5362649656   -1.1928431413   -0.7404201967
   Point Group: c1    Number of degrees of freedom:    30


   Energy is   -784.934268016


 Translations and Rotations Projected Out of Hessian

 30 Hessian modes will be used to form the next step
  Hessian Eigenvalues:
     0.000553    0.002386    0.011742    0.014771    0.032292    0.040027
     0.046372    0.056997    0.072033    0.093554    0.096568    0.106103
     0.128568    0.175412    0.179139    0.193950    0.204691    0.246184
     0.294405    0.319275    0.447417    0.485923    0.575092    0.691525
     0.892858    0.945262    1.156397    1.265546    1.461579    2.579793

 Minimum Search - Taking Simple RFO Step
 Searching for Lamda that Minimizes Along All modes
 Value Taken    Lamda =  -0.00008633
 Step Taken.  Stepsize is  0.289782

                             Maximum     Tolerance    Cnvgd?
         Gradient           0.001080      0.000300      NO
         Displacement       0.185210      0.001200      NO
         Energy change     -0.000055      0.000001      NO

 ----------------------------------------------------------------
             Standard Nuclear Orientation (Angstroms)
    I     Atom           X                Y                Z
 ----------------------------------------------------------------
    1      Li      3.1380419312     0.0224137691    -0.1007444281
    2      C      -1.8549161377     0.7558567365    -0.0176564098
    3      O      -0.5165981028     1.0920153090     0.4911810383
    4      C      -1.8637545346    -0.7608880509     0.0023675518
    5      S       0.5217985811    -0.0052417122     0.0430022435
    6      O      -0.4992545348    -1.1172224078    -0.4113001344
    7      O       1.3385474183     0.4037516130    -1.0985111822
    8      O       1.3518145792    -0.4002774899     1.1735433566
    9      H      -2.5653970607     1.1978576450     0.6759824732
   10      H      -1.9485496656     1.1745780007    -1.0184170373
   11      H      -2.0308057379    -1.1661967782     0.9953753581
   12      H      -2.5324991969    -1.1965403731    -0.7354937188
 ----------------------------------------------------------------
 Nuclear Repulsion Energy =   484.1815775979 hartrees
 There are       33 alpha and       33 beta electrons
 Discretize the solute cavity surface with Lebedev spheres
	Using 302 Lebedev grid points for each H atom
	Using 302 Lebedev grid points for other atoms
	Atomic van der Waals radii will be scaled by 1.20
 Removing interior tesserae...
 Keep 1147 surface tesserae and discard 2477 interior tesserae
 Molecular Surface Area = 164.594 Angst**2
 Nucleus-field energy     =     0.0000000004 hartrees
 Requested basis set is 6-31++G(d,p)
 There are 57 shells and 180 basis functions
 A cutoff of  1.0D-12 yielded   1574 shell pairs
 There are     16206 function pairs
 Smallest overlap matrix eigenvalue = 1.31E-04

 -----------------------------------------------------------------------
  General SCF calculation program by
  Eric Jon Sundstrom, Paul Horn, Yuezhi Mao, Dmitri Zuev, Alec White,
  David Stuck, Shaama M.S., Shane Yost, Joonho Lee, David Small,
  Daniel Levine, Susi Lehtola, Hugh Burton, Evgeny Epifanovsky
 -----------------------------------------------------------------------
 Exchange:     0.2220 Hartree-Fock + 1.0000 wB97X-D + LR-HF
 Correlation:  1.0000 wB97X-D
 Using SG-3 standard quadrature grid
 Dispersion:   Grimme D
 using 32 threads for integral computing
 -------------------------------------------------------
 OpenMP Integral computing Module                
 Release: version 1.0, May 2013, Q-Chem Inc. Pittsburgh 
 -------------------------------------------------------
 using 32 threads for integral computing
 -------------------------------------------------------
 OpenMP Integral computing Module                
 Release: version 1.0, May 2013, Q-Chem Inc. Pittsburgh 
 -------------------------------------------------------
 -------------------------------------------------------
 OpenMP BLAS3 based DFT computing Module                
 Release: version 1.0, May 2013, Q-Chem Inc. Pittsburgh 
 -------------------------------------------------------
 A restricted SCF calculation will be
 performed using DIIS, GDM
 SCF converges when RMS gradient is below 1.0e-08
 ---------------------------------------
  Cycle       Energy         DIIS error
 ---------------------------------------
    1    -784.9282617000      5.57e-04  
    2    -784.9333803804      2.47e-04  Done DIIS. Switching to GDM
 ---------------------------------------
  Cycle       Energy        RMS Gradient
 ---------------------------------------
    1    -784.9333803804      4.93e-03   Normal BFGS step
    2    -784.9333231928      5.34e-03  Line search: overstep
    3    -784.9335859646      1.19e-03   Normal BFGS step
    4    -784.9336338338      3.20e-04   Normal BFGS step
    5    -784.9336353198      1.13e-04   Normal BFGS step
    6    -784.9336354793      7.74e-05   Normal BFGS step
    7    -784.9336355708      1.16e-05   Normal BFGS step
    8    -784.9336355737      1.07e-05   Normal BFGS step
    9    -784.9336355754      1.57e-06   Normal BFGS step
   10    -784.9336355755      7.76e-07   Normal BFGS step
   11    -784.9336355755      2.32e-07   Normal BFGS step
   12    -784.9336355755      9.12e-08   Normal BFGS step
   13    -784.9336355755      4.51e-08   Normal BFGS step
   14    -784.9336355755      2.04e-08   Normal BFGS step
   15    -784.9336355755      3.23e-09  Convergence criterion met
 ---------------------------------------
 SCF time:   CPU 613.09s  wall 23.00s 
(0)  E-EN(g) gas-phase elect-nuc energy                    0.000000000 a.u.
(3)  G-ENP(liq) elect-nuc-pol free energy of system     -784.933635576 a.u.
(4)  G-CDS(liq) cavity-dispersion-solvent structure 
     free energy                                               -0.3959 kcal/mol
(6)  G-S(liq) free energy of system                     -784.934266552 a.u.
(9)  DeltaG-S(liq) free energy of  solvation
     (9) = (6) - (0)                                      -492553.6864 kcal/mol
 SCF   energy in the final basis set =     -784.9336355755
 Total energy in the final basis set =     -784.9342665518
 
 --------------------------------------------------------------
 
                    Orbital Energies (a.u.)
 --------------------------------------------------------------
 
 Alpha MOs
 -- Occupied --
-89.382 -19.389 -19.388 -19.346 -19.345 -10.399 -10.399  -8.366
 -6.318  -6.316  -6.315  -2.164  -1.354  -1.227  -1.207  -1.177
 -0.926  -0.814  -0.778  -0.678  -0.671  -0.637  -0.622  -0.592
 -0.571  -0.540  -0.523  -0.510  -0.489  -0.487  -0.485  -0.440
 -0.428
 -- Virtual --
  0.008   0.017   0.017   0.019   0.042   0.062   0.066   0.068
  0.070   0.086   0.089   0.089   0.093   0.115   0.122   0.133
  0.135   0.135   0.140   0.149   0.172   0.175   0.179   0.195
  0.203   0.204   0.212   0.215   0.217   0.220   0.239   0.247
  0.264   0.272   0.276   0.278   0.292   0.307   0.321   0.341
  0.346   0.351   0.354   0.365   0.383   0.393   0.404   0.405
  0.415   0.421   0.427   0.444   0.471   0.501   0.567   0.581
  0.610   0.644   0.665   0.675   0.684   0.732   0.743   0.763
  0.770   0.783   0.828   0.849   0.865   0.901   1.014   1.018
  1.061   1.103   1.114   1.132   1.143   1.172   1.185   1.238
  1.248   1.251   1.307   1.321   1.333   1.377   1.382   1.405
  1.409   1.424   1.448   1.489   1.494   1.522   1.583   1.642
  1.655   1.667   1.690   1.756   1.798   1.835   1.846   1.861
  1.904   1.914   1.959   1.984   1.986   2.001   2.033   2.063
  2.096   2.113   2.176   2.193   2.214   2.267   2.279   2.346
  2.391   2.411   2.508   2.601   2.642   2.648   2.667   2.740
  2.757   2.810   2.835   2.916   2.935   2.941   2.973   3.117
  3.377   3.395   3.535   3.592   4.063   4.212   4.295   4.308
  4.378   4.530   4.757
 --------------------------------------------------------------
 
          Ground-State Mulliken Net Atomic Charges

     Atom                 Charge (a.u.)
  ----------------------------------------
      1 Li                    0.772129
      2 C                    -0.150342
      3 O                    -0.530835
      4 C                    -0.149263
      5 S                     1.790617
      6 O                    -0.535451
      7 O                    -0.594344
      8 O                    -0.588497
      9 H                     0.256058
     10 H                     0.237620
     11 H                     0.237332
     12 H                     0.254975
  ----------------------------------------
  Sum of atomic charges =     1.000000

 -----------------------------------------------------------------
                    Cartesian Multipole Moments
 -----------------------------------------------------------------
    Charge (ESU x 10^10)
                 4.8032
    Dipole Moment (Debye)
         X       3.5348      Y       0.0957      Z      -0.5089
       Tot       3.5725
    Quadrupole Moments (Debye-Ang)
        XX       6.6573     XY       0.2774     YY     -46.2025
        XZ      -1.3393     YZ       0.3612     ZZ     -50.3551
    Octopole Moments (Debye-Ang^2)
       XXX     112.7681    XXY       1.0615    XYY      -2.2346
       YYY       0.7113    XXZ      -5.8674    XYZ       2.8996
       YYZ      -1.3272    XZZ      -6.3621    YZZ       0.1246
       ZZZ      -4.0905
    Hexadecapole Moments (Debye-Ang^3)
      XXXX       7.7351   XXXY       2.7094   XXYY     -97.3832
      XYYY      -0.3459   YYYY    -189.2050   XXXZ     -17.1817
      XXYZ       8.3765   XYYZ      -0.4757   YYYZ      -0.0918
      XXZZ    -110.1337   XYZZ       0.3953   YYZZ     -55.5714
      XZZZ      -2.2773   YZZZ       0.9425   ZZZZ    -161.8319
 -----------------------------------------------------------------
 Calculating analytic gradient of the SCF energy
 Gradient of CDS energy
            1           2           3           4           5           6
    1   0.0000591  -0.0004767   0.0001895  -0.0004471  -0.0000264   0.0001872
    2   0.0000020   0.0010600  -0.0001521  -0.0010683   0.0000164   0.0001549
    3  -0.0000068  -0.0000435  -0.0000869   0.0000613  -0.0000286   0.0000882
            7           8           9          10          11          12
    1  -0.0001268  -0.0001336   0.0001843   0.0002333   0.0001697   0.0001876
    2  -0.0000277   0.0000240  -0.0001061  -0.0001254   0.0001275   0.0000948
    3   0.0000971  -0.0000884   0.0000385   0.0000547  -0.0000677  -0.0000180
 Gradient of SCF Energy
            1           2           3           4           5           6
    1   0.0064711   0.0419250  -0.0267119   0.0438081  -0.0061205  -0.0259548
    2  -0.0002557  -0.0308031   0.0236730   0.0279952   0.0000063  -0.0237391
    3  -0.0003803   0.0200951   0.0048451  -0.0150139  -0.0005972  -0.0056768
            7           8           9          10          11          12
    1   0.0196114   0.0204043  -0.0318159  -0.0043889  -0.0072969  -0.0299311
    2   0.0146550  -0.0142390   0.0170497   0.0140394  -0.0115732  -0.0168086
    3  -0.0405546   0.0420294   0.0294160  -0.0404623   0.0378645  -0.0315650
 Max gradient component =       4.381E-02
 RMS gradient           =       2.423E-02
 Computing VTN gradient.
 Updating gradient with PCM contributions...
 -- total gradient after adding PCM contribution --
---------------------------------------------------
  Atom         X              Y              Z     
---------------------------------------------------
   1       0.000106      -0.000147      -0.000337
   2      -0.000046       0.000017       0.000034
   3       0.000034      -0.000063       0.000108
   4      -0.000049      -0.000014      -0.000030
   5      -0.000028       0.000127      -0.000039
   6       0.000021       0.000063      -0.000039
   7      -0.000134       0.000190       0.000160
   8      -0.000027      -0.000072       0.000095
   9      -0.000001      -0.000069       0.000125
  10       0.000021       0.000044       0.000137
  11       0.000032      -0.000093      -0.000134
  12       0.000073       0.000016      -0.000081
---------------------------------------------------
 Number of fixed atoms: 0
 Gradient time:  CPU 79.09 s  wall 3.48 s
 Geometry Optimization Parameters
   NAtoms,    NIC,     NZ,  NCons,   NDum,   NFix, NCnnct, MaxDiis
       12     104       0       0       0       0       0       0

 Cartesian Hessian Update
 Hessian Updated using BFGS Update


** GEOMETRY OPTIMIZATION IN CARTESIAN COORDINATES **
   Searching for a Minimum

   Optimization Cycle:   3

                       Coordinates (Angstroms)
     ATOM                X               Y               Z
      1  Li        3.1380419312    0.0224137691   -0.1007444281
      2  C        -1.8549161377    0.7558567365   -0.0176564098
      3  O        -0.5165981028    1.0920153090    0.4911810383
      4  C        -1.8637545346   -0.7608880509    0.0023675518
      5  S         0.5217985811   -0.0052417122    0.0430022435
      6  O        -0.4992545348   -1.1172224078   -0.4113001344
      7  O         1.3385474183    0.4037516130   -1.0985111822
      8  O         1.3518145792   -0.4002774899    1.1735433566
      9  H        -2.5653970607    1.1978576450    0.6759824732
     10  H        -1.9485496656    1.1745780007   -1.0184170373
     11  H        -2.0308057379   -1.1661967782    0.9953753581
     12  H        -2.5324991969   -1.1965403731   -0.7354937188
   Point Group: c1    Number of degrees of freedom:    30


   Energy is   -784.934266552


 Translations and Rotations Projected Out of Hessian

 30 Hessian modes will be used to form the next step
  Hessian Eigenvalues:
     0.000127    0.002712    0.011873    0.014797    0.037603    0.040715
     0.046304    0.057583    0.072065    0.095206    0.100997    0.118529
     0.133744    0.178595    0.179930    0.196250    0.204779    0.246509
     0.296475    0.322366    0.447985    0.490381    0.582329    0.691526
     0.892918    0.945242    1.159357    1.289338    1.461056    2.585973

 Minimum Search - Taking Simple RFO Step
 Searching for Lamda that Minimizes Along All modes
 Value Taken    Lamda =  -0.00019055
 Calculated Step too Large.  Step scaled by  0.421716
 Step Taken.  Stepsize is  0.300000

                             Maximum     Tolerance    Cnvgd?
         Gradient           0.000337      0.000300      NO
         Displacement       0.214171      0.001200      NO
         Energy change      0.000001      0.000001      NO

 ----------------------------------------------------------------
             Standard Nuclear Orientation (Angstroms)
    I     Atom           X                Y                Z
 ----------------------------------------------------------------
    1      Li      3.1157926563    -0.0077888799     0.0125902427
    2      C      -1.8551602368     0.7546254803    -0.0115957930
    3      O      -0.5121415450     1.0903592660     0.4866993362
    4      C      -1.8626931110    -0.7623017151     0.0074668239
    5      S       0.5228732273     0.0054202535     0.0035604298
    6      O      -0.4997031342    -1.1192471052    -0.4127022873
    7      O       1.3133566237     0.4168019035    -1.1524271099
    8      O       1.3887246950    -0.3808253776     1.1159924071
    9      H      -2.5599243625     1.1959914401     0.6882144172
   10      H      -1.9531774155     1.1727005259    -1.0109114578
   11      H      -2.0245638144    -1.1689865075     1.0004223840
   12      H      -2.5349560441    -1.1966430227    -0.7279802821
 ----------------------------------------------------------------
 Nuclear Repulsion Energy =   484.3824953834 hartrees
 There are       33 alpha and       33 beta electrons
 Discretize the solute cavity surface with Lebedev spheres
	Using 302 Lebedev grid points for each H atom
	Using 302 Lebedev grid points for other atoms
	Atomic van der Waals radii will be scaled by 1.20
 Removing interior tesserae...
 Keep 1150 surface tesserae and discard 2474 interior tesserae
 Molecular Surface Area = 165.027 Angst**2
 Nucleus-field energy     =     0.0000000004 hartrees
 Requested basis set is 6-31++G(d,p)
 There are 57 shells and 180 basis functions
 A cutoff of  1.0D-12 yielded   1574 shell pairs
 There are     16206 function pairs
 Smallest overlap matrix eigenvalue = 1.31E-04

 -----------------------------------------------------------------------
  General SCF calculation program by
  Eric Jon Sundstrom, Paul Horn, Yuezhi Mao, Dmitri Zuev, Alec White,
  David Stuck, Shaama M.S., Shane Yost, Joonho Lee, David Small,
  Daniel Levine, Susi Lehtola, Hugh Burton, Evgeny Epifanovsky
 -----------------------------------------------------------------------
 Exchange:     0.2220 Hartree-Fock + 1.0000 wB97X-D + LR-HF
 Correlation:  1.0000 wB97X-D
 Using SG-3 standard quadrature grid
 Dispersion:   Grimme D
 using 32 threads for integral computing
 -------------------------------------------------------
 OpenMP Integral computing Module                
 Release: version 1.0, May 2013, Q-Chem Inc. Pittsburgh 
 -------------------------------------------------------
 using 32 threads for integral computing
 -------------------------------------------------------
 OpenMP Integral computing Module                
 Release: version 1.0, May 2013, Q-Chem Inc. Pittsburgh 
 -------------------------------------------------------
 -------------------------------------------------------
 OpenMP BLAS3 based DFT computing Module                
 Release: version 1.0, May 2013, Q-Chem Inc. Pittsburgh 
 -------------------------------------------------------
 A restricted SCF calculation will be
 performed using DIIS, GDM
 SCF converges when RMS gradient is below 1.0e-08
 ---------------------------------------
  Cycle       Energy         DIIS error
 ---------------------------------------
    1    -784.9294465549      5.78e-04  
    2    -784.9332200508      2.66e-04  Done DIIS. Switching to GDM
 ---------------------------------------
  Cycle       Energy        RMS Gradient
 ---------------------------------------
    1    -784.9332200508      5.31e-03   Normal BFGS step
    2    -784.9331376340      6.18e-03  Line search: overstep
    3    -784.9334527127      1.13e-03   Normal BFGS step
    4    -784.9335037580      3.54e-04   Normal BFGS step
    5    -784.9335055330      6.70e-05   Normal BFGS step
    6    -784.9335055959      3.12e-05   Normal BFGS step
    7    -784.9335056279      1.07e-05   Normal BFGS step
    8    -784.9335056304      3.43e-06   Normal BFGS step
    9    -784.9335056307      2.22e-06   Normal BFGS step
   10    -784.9335056308      4.88e-07   Normal BFGS step
   11    -784.9335056309      2.35e-07   Normal BFGS step
   12    -784.9335056309      5.46e-08   Normal BFGS step
   13    -784.9335056309      2.14e-08   Normal BFGS step
   14    -784.9335056309      1.86e-08   Normal BFGS step
   15    -784.9335056309      2.47e-09  Convergence criterion met
 ---------------------------------------
 SCF time:   CPU 612.41s  wall 23.00s 
(0)  E-EN(g) gas-phase elect-nuc energy                    0.000000000 a.u.
(3)  G-ENP(liq) elect-nuc-pol free energy of system     -784.933505631 a.u.
(4)  G-CDS(liq) cavity-dispersion-solvent structure 
     free energy                                               -0.3959 kcal/mol
(6)  G-S(liq) free energy of system                     -784.934136607 a.u.
(9)  DeltaG-S(liq) free energy of  solvation
     (9) = (6) - (0)                                      -492553.6048 kcal/mol
 SCF   energy in the final basis set =     -784.9335056309
 Total energy in the final basis set =     -784.9341366071
 
 --------------------------------------------------------------
 
                    Orbital Energies (a.u.)
 --------------------------------------------------------------
 
 Alpha MOs
 -- Occupied --
-89.383 -19.390 -19.389 -19.347 -19.345 -10.400 -10.399  -8.367
 -6.319  -6.317  -6.316  -2.162  -1.354  -1.228  -1.208  -1.177
 -0.927  -0.815  -0.779  -0.679  -0.672  -0.638  -0.623  -0.593
 -0.572  -0.541  -0.523  -0.511  -0.490  -0.487  -0.486  -0.441
 -0.429
 -- Virtual --
  0.008   0.017   0.017   0.019   0.042   0.062   0.066   0.068
  0.070   0.085   0.089   0.090   0.093   0.115   0.121   0.133
  0.134   0.136   0.140   0.148   0.172   0.175   0.179   0.195
  0.202   0.204   0.212   0.216   0.216   0.221   0.239   0.249
  0.265   0.272   0.277   0.279   0.292   0.307   0.320   0.343
  0.346   0.351   0.354   0.364   0.384   0.392   0.404   0.405
  0.415   0.421   0.428   0.445   0.471   0.501   0.568   0.580
  0.610   0.642   0.665   0.675   0.688   0.732   0.744   0.767
  0.771   0.786   0.828   0.850   0.865   0.906   1.014   1.020
  1.063   1.103   1.114   1.140   1.143   1.176   1.182   1.239
  1.246   1.251   1.306   1.322   1.330   1.376   1.380   1.404
  1.409   1.425   1.449   1.489   1.493   1.519   1.587   1.640
  1.657   1.667   1.700   1.756   1.797   1.835   1.847   1.861
  1.906   1.912   1.958   1.984   1.993   2.000   2.033   2.062
  2.108   2.118   2.175   2.193   2.212   2.265   2.278   2.345
  2.395   2.411   2.508   2.600   2.641   2.648   2.667   2.741
  2.757   2.810   2.834   2.914   2.934   2.941   2.972   3.115
  3.378   3.395   3.535   3.592   4.063   4.211   4.295   4.307
  4.377   4.529   4.756
 --------------------------------------------------------------
 
          Ground-State Mulliken Net Atomic Charges

     Atom                 Charge (a.u.)
  ----------------------------------------
      1 Li                    0.760621
      2 C                    -0.164372
      3 O                    -0.527974
      4 C                    -0.137652
      5 S                     1.798377
      6 O                    -0.537055
      7 O                    -0.590037
      8 O                    -0.590478
      9 H                     0.256591
     10 H                     0.238933
     11 H                     0.238048
     12 H                     0.254997
  ----------------------------------------
  Sum of atomic charges =     1.000000

 -----------------------------------------------------------------
                    Cartesian Multipole Moments
 -----------------------------------------------------------------
    Charge (ESU x 10^10)
                 4.8032
    Dipole Moment (Debye)
         X       3.3279      Y      -0.0225      Z      -0.0003
       Tot       3.3280
    Quadrupole Moments (Debye-Ang)
        XX       5.8907     XY      -0.1112     YY     -46.1604
        XZ       0.0801     YZ       0.3653     ZZ     -50.3587
    Octopole Moments (Debye-Ang^2)
       XXX     108.8805    XXY      -0.3790    XYY      -2.3980
       YYY      -0.0092    XXZ      -0.0014    XYZ       2.9024
       YYZ      -0.2454    XZZ      -6.6850    YZZ      -0.3520
       ZZZ      -0.4465
    Hexadecapole Moments (Debye-Ang^3)
      XXXX      -6.2641   XXXY      -1.8185   XXYY     -97.4300
      XYYY      -0.8260   YYYY    -188.9314   XXXZ      -0.1018
      XXYZ       8.4530   XYYZ      -0.0016   YYYZ      -0.2074
      XXZZ    -110.5692   XYZZ      -0.1378   YYZZ     -55.3842
      XZZZ      -0.0332   YZZZ       0.8186   ZZZZ    -161.0828
 -----------------------------------------------------------------
 Calculating analytic gradient of the SCF energy
 Gradient of CDS energy
            1           2           3           4           5           6
    1   0.0000591  -0.0004767   0.0001895  -0.0004471  -0.0000264   0.0001872
    2   0.0000020   0.0010600  -0.0001521  -0.0010683   0.0000164   0.0001549
    3  -0.0000068  -0.0000435  -0.0000869   0.0000613  -0.0000286   0.0000882
            7           8           9          10          11          12
    1  -0.0001268  -0.0001336   0.0001843   0.0002333   0.0001697   0.0001876
    2  -0.0000277   0.0000240  -0.0001061  -0.0001254   0.0001275   0.0000948
    3   0.0000971  -0.0000884   0.0000385   0.0000547  -0.0000677  -0.0000180
 Gradient of SCF Energy
            1           2           3           4           5           6
    1   0.0045169   0.0406015  -0.0273064   0.0445225  -0.0059136  -0.0264821
    2  -0.0003174  -0.0304750   0.0237087   0.0281115  -0.0008157  -0.0241155
    3   0.0002874   0.0192115   0.0051069  -0.0155140   0.0022436  -0.0052822
            7           8           9          10          11          12
    1   0.0199007   0.0233107  -0.0318586  -0.0038986  -0.0072549  -0.0301380
    2   0.0151096  -0.0133562   0.0170162   0.0136215  -0.0117386  -0.0167490
    3  -0.0427698   0.0395240   0.0301758  -0.0398398   0.0383153  -0.0314587
 Max gradient component =       4.452E-02
 RMS gradient           =       2.429E-02
 Computing VTN gradient.
 Updating gradient with PCM contributions...
 -- total gradient after adding PCM contribution --
---------------------------------------------------
  Atom         X              Y              Z     
---------------------------------------------------
   1      -0.001153      -0.000258       0.000117
   2       0.013487      -0.009579       0.010361
   3      -0.000262      -0.000008       0.000153
   4      -0.000072       0.000197      -0.000314
   5      -0.000700      -0.000122       0.000212
   6       0.001559      -0.000419      -0.001568
   7       0.001135       0.000281      -0.000444
   8       0.001393       0.000302      -0.000233
   9      -0.000020      -0.000150       0.000255
  10      -0.015446       0.010084      -0.008535
  11       0.000091      -0.000401       0.000055
  12      -0.000012       0.000074      -0.000058
---------------------------------------------------
 Number of fixed atoms: 0
 Gradient time:  CPU 78.28 s  wall 3.53 s
 Geometry Optimization Parameters
   NAtoms,    NIC,     NZ,  NCons,   NDum,   NFix, NCnnct, MaxDiis
       12     104       0       0       0       0       0       0

 Cartesian Hessian Update
 Hessian Updated using BFGS Update


** GEOMETRY OPTIMIZATION IN CARTESIAN COORDINATES **
   Searching for a Minimum

   Optimization Cycle:   4

                       Coordinates (Angstroms)
     ATOM                X               Y               Z
      1  Li        3.1157926563   -0.0077888799    0.0125902427
      2  C        -1.8551602368    0.7546254803   -0.0115957930
      3  O        -0.5121415450    1.0903592660    0.4866993362
      4  C        -1.8626931110   -0.7623017151    0.0074668239
      5  S         0.5228732273    0.0054202535    0.0035604298
      6  O        -0.4997031342   -1.1192471052   -0.4127022873
      7  O         1.3133566237    0.4168019035   -1.1524271099
      8  O         1.3887246950   -0.3808253776    1.1159924071
      9  H        -2.5599243625    1.1959914401    0.6882144172
     10  H        -1.9531774155    1.1727005259   -1.0109114578
     11  H        -2.0245638144   -1.1689865075    1.0004223840
     12  H        -2.5349560441   -1.1966430227   -0.7279802821
   Point Group: c1    Number of degrees of freedom:    30


   Energy is   -784.934136607


 Translations and Rotations Projected Out of Hessian

 30 Hessian modes will be used to form the next step
  Hessian Eigenvalues:
     0.000682    0.001820    0.012242    0.018916    0.037650    0.041421
     0.047307    0.058481    0.072086    0.095791    0.106977    0.121099
     0.136370    0.179551    0.195511    0.198124    0.227007    0.270527
     0.301803    0.352122    0.448900    0.500395    0.590135    0.691998
     0.919731    0.971159    1.268904    1.460749    2.563246    2.998088

 Minimum Search - Taking Simple RFO Step
 Searching for Lamda that Minimizes Along All modes
 Value Taken    Lamda =  -0.00037318
 Step Taken.  Stepsize is  0.147705

                             Maximum     Tolerance    Cnvgd?
         Gradient           0.015446      0.000300      NO
         Displacement       0.090136      0.001200      NO
         Energy change      0.000130      0.000001      NO

 ----------------------------------------------------------------
             Standard Nuclear Orientation (Angstroms)
    I     Atom           X                Y                Z
 ----------------------------------------------------------------
    1      Li      3.1158886530     0.0399087817     0.0454491913
    2      C      -1.8494871433     0.7555176021    -0.0095616643
    3      O      -0.5046020557     1.0782110399     0.4915689546
    4      C      -1.8690038115    -0.7610035853     0.0102369971
    5      S       0.5218916334    -0.0089584611    -0.0079617429
    6      O      -0.5092207490    -1.1284103230    -0.4164237659
    7      O       1.3030844732     0.4056005619    -1.1687299174
    8      O       1.3965231715    -0.3989968409     1.0971840084
    9      H      -2.5526880966     1.2045316641     0.6870459860
   10      H      -1.9370512663     1.1703630298    -1.0110675397
   11      H      -2.0292479001    -1.1668062252     1.0041349375
   12      H      -2.5476593700    -1.1898509828    -0.7225463337
 ----------------------------------------------------------------
 Nuclear Repulsion Energy =   484.3526321690 hartrees
 There are       33 alpha and       33 beta electrons
 Discretize the solute cavity surface with Lebedev spheres
	Using 302 Lebedev grid points for each H atom
	Using 302 Lebedev grid points for other atoms
	Atomic van der Waals radii will be scaled by 1.20
 Removing interior tesserae...
 Keep 1147 surface tesserae and discard 2477 interior tesserae
 Molecular Surface Area = 164.560 Angst**2
 Nucleus-field energy     =     0.0000000004 hartrees
 Requested basis set is 6-31++G(d,p)
 There are 57 shells and 180 basis functions
 A cutoff of  1.0D-12 yielded   1573 shell pairs
 There are     16200 function pairs
 Smallest overlap matrix eigenvalue = 1.31E-04

 -----------------------------------------------------------------------
  General SCF calculation program by
  Eric Jon Sundstrom, Paul Horn, Yuezhi Mao, Dmitri Zuev, Alec White,
  David Stuck, Shaama M.S., Shane Yost, Joonho Lee, David Small,
  Daniel Levine, Susi Lehtola, Hugh Burton, Evgeny Epifanovsky
 -----------------------------------------------------------------------
 Exchange:     0.2220 Hartree-Fock + 1.0000 wB97X-D + LR-HF
 Correlation:  1.0000 wB97X-D
 Using SG-3 standard quadrature grid
 Dispersion:   Grimme D
 using 32 threads for integral computing
 -------------------------------------------------------
 OpenMP Integral computing Module                
 Release: version 1.0, May 2013, Q-Chem Inc. Pittsburgh 
 -------------------------------------------------------
 using 32 threads for integral computing
 -------------------------------------------------------
 OpenMP Integral computing Module                
 Release: version 1.0, May 2013, Q-Chem Inc. Pittsburgh 
 -------------------------------------------------------
 -------------------------------------------------------
 OpenMP BLAS3 based DFT computing Module                
 Release: version 1.0, May 2013, Q-Chem Inc. Pittsburgh 
 -------------------------------------------------------
 A restricted SCF calculation will be
 performed using DIIS, GDM
 SCF converges when RMS gradient is below 1.0e-08
 ---------------------------------------
  Cycle       Energy         DIIS error
 ---------------------------------------
    1    -784.9330858704      2.36e-04  
    2    -784.9334146305      6.48e-05  Done DIIS. Switching to GDM
 ---------------------------------------
  Cycle       Energy        RMS Gradient
 ---------------------------------------
    1    -784.9334146305      1.22e-03   Normal BFGS step
    2    -784.9334318357      1.25e-03   Normal BFGS step
    3    -784.9334423922      2.00e-04   Normal BFGS step
    4    -784.9334433903      4.69e-05   Normal BFGS step
    5    -784.9334434483      1.93e-05   Normal BFGS step
    6    -784.9334434565      1.04e-05   Normal BFGS step
    7    -784.9334434594      2.74e-06   Normal BFGS step
    8    -784.9334434596      1.41e-06   Normal BFGS step
    9    -784.9334434597      3.50e-07   Normal BFGS step
   10    -784.9334434597      2.26e-07   Normal BFGS step
   11    -784.9334434597      5.80e-08   Normal BFGS step
   12    -784.9334434597      1.86e-08   Normal BFGS step
   13    -784.9334434597      1.14e-08   Normal BFGS step
   14    -784.9334434597      1.92e-09  Convergence criterion met
 ---------------------------------------
 SCF time:   CPU 576.58s  wall 21.00s 
(0)  E-EN(g) gas-phase elect-nuc energy                    0.000000000 a.u.
(3)  G-ENP(liq) elect-nuc-pol free energy of system     -784.933443460 a.u.
(4)  G-CDS(liq) cavity-dispersion-solvent structure 
     free energy                                               -0.3959 kcal/mol
(6)  G-S(liq) free energy of system                     -784.934074436 a.u.
(9)  DeltaG-S(liq) free energy of  solvation
     (9) = (6) - (0)                                      -492553.5658 kcal/mol
 SCF   energy in the final basis set =     -784.9334434597
 Total energy in the final basis set =     -784.9340744360
 
 --------------------------------------------------------------
 
                    Orbital Energies (a.u.)
 --------------------------------------------------------------
 
 Alpha MOs
 -- Occupied --
-89.383 -19.390 -19.390 -19.347 -19.345 -10.400 -10.399  -8.367
 -6.319  -6.317  -6.316  -2.162  -1.354  -1.228  -1.208  -1.177
 -0.927  -0.815  -0.779  -0.679  -0.672  -0.638  -0.623  -0.593
 -0.572  -0.541  -0.523  -0.511  -0.490  -0.487  -0.486  -0.441
 -0.429
 -- Virtual --
  0.008   0.017   0.017   0.019   0.042   0.062   0.066   0.068
  0.070   0.085   0.089   0.090   0.093   0.115   0.121   0.133
  0.134   0.136   0.140   0.148   0.172   0.175   0.179   0.195
  0.202   0.204   0.212   0.216   0.216   0.221   0.239   0.248
  0.264   0.272   0.276   0.279   0.292   0.308   0.320   0.343
  0.346   0.351   0.354   0.365   0.384   0.392   0.403   0.404
  0.415   0.422   0.428   0.445   0.470   0.502   0.567   0.581
  0.610   0.642   0.665   0.675   0.688   0.731   0.744   0.767
  0.771   0.787   0.828   0.850   0.865   0.906   1.013   1.021
  1.063   1.103   1.114   1.140   1.145   1.176   1.183   1.239
  1.245   1.252   1.307   1.322   1.330   1.376   1.380   1.404
  1.409   1.425   1.449   1.488   1.493   1.518   1.588   1.640
  1.658   1.667   1.699   1.756   1.798   1.833   1.847   1.861
  1.906   1.912   1.958   1.984   1.992   2.001   2.032   2.063
  2.108   2.128   2.174   2.193   2.213   2.265   2.277   2.346
  2.394   2.411   2.507   2.598   2.642   2.648   2.667   2.739
  2.758   2.811   2.833   2.914   2.933   2.942   2.971   3.114
  3.378   3.395   3.536   3.591   4.064   4.211   4.295   4.306
  4.378   4.529   4.757
 --------------------------------------------------------------
 
          Ground-State Mulliken Net Atomic Charges

     Atom                 Charge (a.u.)
  ----------------------------------------
      1 Li                    0.760848
      2 C                    -0.168036
      3 O                    -0.526528
      4 C                    -0.132389
      5 S                     1.794865
      6 O                    -0.537843
      7 O                    -0.589279
      8 O                    -0.590795
      9 H                     0.257034
     10 H                     0.238691
     11 H                     0.238055
     12 H                     0.255376
  ----------------------------------------
  Sum of atomic charges =     1.000000

 -----------------------------------------------------------------
                    Cartesian Multipole Moments
 -----------------------------------------------------------------
    Charge (ESU x 10^10)
                 4.8032
    Dipole Moment (Debye)
         X       3.3333      Y       0.2183      Z       0.1556
       Tot       3.3441
    Quadrupole Moments (Debye-Ang)
        XX       5.9076     XY       0.6185     YY     -46.1628
        XZ       0.5022     YZ       0.3778     ZZ     -50.3573
    Octopole Moments (Debye-Ang^2)
       XXX     108.9690    XXY       2.3058    XYY      -2.3470
       YYY       1.3194    XXZ       1.7659    XYZ       2.9374
       YYZ       0.0576    XZZ      -6.5708    YZZ       0.0489
       ZZZ       0.6066
    Hexadecapole Moments (Debye-Ang^3)
      XXXX      -5.8066   XXXY       5.9307   XXYY     -97.3497
      XYYY      -0.7449   YYYY    -188.9173   XXXZ       4.9355
      XXYZ       8.6433   XYYZ      -0.0545   YYYZ      -0.1797
      XXZZ    -110.4585   XYZZ      -0.0386   YYZZ     -55.4279
      XZZZ       0.6847   YZZZ       0.8087   ZZZZ    -161.2328
 -----------------------------------------------------------------
 Calculating analytic gradient of the SCF energy
 Gradient of CDS energy
            1           2           3           4           5           6
    1   0.0000591  -0.0004767   0.0001895  -0.0004471  -0.0000264   0.0001872
    2   0.0000020   0.0010600  -0.0001521  -0.0010683   0.0000164   0.0001549
    3  -0.0000068  -0.0000435  -0.0000869   0.0000613  -0.0000286   0.0000882
            7           8           9          10          11          12
    1  -0.0001268  -0.0001336   0.0001843   0.0002333   0.0001697   0.0001876
    2  -0.0000277   0.0000240  -0.0001061  -0.0001254   0.0001275   0.0000948
    3   0.0000971  -0.0000884   0.0000385   0.0000547  -0.0000677  -0.0000180
 Gradient of SCF Energy
            1           2           3           4           5           6
    1   0.0043819   0.0393624  -0.0272477   0.0448909  -0.0064517  -0.0265802
    2   0.0004545  -0.0300220   0.0239713   0.0278512  -0.0017107  -0.0240129
    3   0.0006362   0.0198896   0.0052392  -0.0158019   0.0031405  -0.0055270
            7           8           9          10          11          12
    1   0.0199530   0.0240960  -0.0319121  -0.0027736  -0.0072718  -0.0304470
    2   0.0148613  -0.0138062   0.0173687   0.0130949  -0.0117025  -0.0163476
    3  -0.0438320   0.0386459   0.0302893  -0.0399604   0.0385529  -0.0312724
 Max gradient component =       4.489E-02
 RMS gradient           =       2.432E-02
 Computing VTN gradient.
 Updating gradient with PCM contributions...
 -- total gradient after adding PCM contribution --
---------------------------------------------------
  Atom         X              Y              Z     
---------------------------------------------------
   1      -0.001170       0.000241       0.000483
   2      -0.001506       0.001173      -0.000631
   3      -0.000363       0.000130       0.000200
   4      -0.000166       0.000227      -0.000288
   5      -0.000892      -0.000512       0.000238
   6      -0.000255      -0.000126      -0.000114
   7       0.001302       0.000091      -0.000829
   8       0.001651       0.000097      -0.000487
   9      -0.000073      -0.000177       0.000370
  10       0.001423      -0.000941       0.000930
  11       0.000090      -0.000335       0.000183
  12      -0.000040       0.000132      -0.000055
---------------------------------------------------
 Number of fixed atoms: 0
 Gradient time:  CPU 79.34 s  wall 3.53 s
 Geometry Optimization Parameters
   NAtoms,    NIC,     NZ,  NCons,   NDum,   NFix, NCnnct, MaxDiis
       12     104       0       0       0       0       0       0

 Cartesian Hessian Update
 Hessian Updated using BFGS Update


** GEOMETRY OPTIMIZATION IN CARTESIAN COORDINATES **
   Searching for a Minimum

   Optimization Cycle:   5

                       Coordinates (Angstroms)
     ATOM                X               Y               Z
      1  Li        3.1158886530    0.0399087817    0.0454491913
      2  C        -1.8494871433    0.7555176021   -0.0095616643
      3  O        -0.5046020557    1.0782110399    0.4915689546
      4  C        -1.8690038115   -0.7610035853    0.0102369971
      5  S         0.5218916334   -0.0089584611   -0.0079617429
      6  O        -0.5092207490   -1.1284103230   -0.4164237659
      7  O         1.3030844732    0.4056005619   -1.1687299174
      8  O         1.3965231715   -0.3989968409    1.0971840084
      9  H        -2.5526880966    1.2045316641    0.6870459860
     10  H        -1.9370512663    1.1703630298   -1.0110675397
     11  H        -2.0292479001   -1.1668062252    1.0041349375
     12  H        -2.5476593700   -1.1898509828   -0.7225463337
   Point Group: c1    Number of degrees of freedom:    30


   Energy is   -784.934074436


 Translations and Rotations Projected Out of Hessian

 30 Hessian modes will be used to form the next step
  Hessian Eigenvalues:
     0.000782    0.002444    0.012333    0.018227    0.037620    0.041599
     0.047658    0.058372    0.072101    0.095800    0.108209    0.119096
     0.134903    0.179734    0.195017    0.198625    0.229329    0.269441
     0.304643    0.346769    0.448286    0.504922    0.587918    0.691787
     0.919049    0.973034    1.274909    1.461096    2.561576    2.725080

 Minimum Search - Taking Simple RFO Step
 Searching for Lamda that Minimizes Along All modes
 Value Taken    Lamda =  -0.00063734
 Calculated Step too Large.  Step scaled by  0.496356
 Step Taken.  Stepsize is  0.300000

                             Maximum     Tolerance    Cnvgd?
         Gradient           0.001651      0.000300      NO
         Displacement       0.201128      0.001200      NO
         Energy change      0.000062      0.000001      NO

 ----------------------------------------------------------------
             Standard Nuclear Orientation (Angstroms)
    I     Atom           X                Y                Z
 ----------------------------------------------------------------
    1      Li      3.1437082715     0.0833879901    -0.0609832882
    2      C      -1.8484010730     0.7569350710    -0.0152105300
    3      O      -0.5067607677     1.0785944718     0.4926233367
    4      C      -1.8710103299    -0.7593261171     0.0049346021
    5      S       0.5205967096    -0.0236144507     0.0286630951
    6      O      -0.5114811325    -1.1275310151    -0.4193009689
    7      O       1.3294830373     0.3887272457    -1.1161418903
    8      O       1.3553621510    -0.4255702961     1.1533852335
    9      H      -2.5547705559     1.2068617273     0.6776314504
   10      H      -1.9343563007     1.1735529770    -1.0171100787
   11      H      -2.0348606846    -1.1637272060     0.9991858745
   12      H      -2.5490817862    -1.1881841365    -0.7283477254
 ----------------------------------------------------------------
 Nuclear Repulsion Energy =   484.1749313848 hartrees
 There are       33 alpha and       33 beta electrons
 Discretize the solute cavity surface with Lebedev spheres
	Using 302 Lebedev grid points for each H atom
	Using 302 Lebedev grid points for other atoms
	Atomic van der Waals radii will be scaled by 1.20
 Removing interior tesserae...
 Keep 1151 surface tesserae and discard 2473 interior tesserae
 Molecular Surface Area = 165.488 Angst**2
 Nucleus-field energy     =     0.0000000004 hartrees
 Requested basis set is 6-31++G(d,p)
 There are 57 shells and 180 basis functions
 A cutoff of  1.0D-12 yielded   1574 shell pairs
 There are     16206 function pairs
 Smallest overlap matrix eigenvalue = 1.30E-04

 -----------------------------------------------------------------------
  General SCF calculation program by
  Eric Jon Sundstrom, Paul Horn, Yuezhi Mao, Dmitri Zuev, Alec White,
  David Stuck, Shaama M.S., Shane Yost, Joonho Lee, David Small,
  Daniel Levine, Susi Lehtola, Hugh Burton, Evgeny Epifanovsky
 -----------------------------------------------------------------------
 Exchange:     0.2220 Hartree-Fock + 1.0000 wB97X-D + LR-HF
 Correlation:  1.0000 wB97X-D
 Using SG-3 standard quadrature grid
 Dispersion:   Grimme D
 using 32 threads for integral computing
 -------------------------------------------------------
 OpenMP Integral computing Module                
 Release: version 1.0, May 2013, Q-Chem Inc. Pittsburgh 
 -------------------------------------------------------
 using 32 threads for integral computing
 -------------------------------------------------------
 OpenMP Integral computing Module                
 Release: version 1.0, May 2013, Q-Chem Inc. Pittsburgh 
 -------------------------------------------------------
 -------------------------------------------------------
 OpenMP BLAS3 based DFT computing Module                
 Release: version 1.0, May 2013, Q-Chem Inc. Pittsburgh 
 -------------------------------------------------------
 A restricted SCF calculation will be
 performed using DIIS, GDM
 SCF converges when RMS gradient is below 1.0e-08
 ---------------------------------------
  Cycle       Energy         DIIS error
 ---------------------------------------
    1    -784.9310830087      6.11e-04  
    2    -784.9333546640      2.81e-04  Done DIIS. Switching to GDM
 ---------------------------------------
  Cycle       Energy        RMS Gradient
 ---------------------------------------
    1    -784.9333546640      5.66e-03   Normal BFGS step
    2    -784.9332623063      6.30e-03  Line search: overstep
    3    -784.9336131891      1.39e-03   Normal BFGS step
[...]
    1      Li      3.1419090146     0.0528628136    -0.1168409967
    2      C      -1.8521099563     0.7566548455    -0.0179795722
    3      O      -0.5136159713     1.0874917282     0.4922868974
    4      C      -1.8666744423    -0.7600684087     0.0006917605
    5      S       0.5217781864    -0.0151381950     0.0488662592
    6      O      -0.5027347564    -1.1213481122    -0.4117134988
    7      O       1.3430353009     0.3930583526    -1.0905375923
    8      O       1.3456376426    -0.4129204672     1.1819698225
    9      H      -2.5617892843     1.2000477835     0.6756762701
   10      H      -1.9450380885     1.1773577547    -1.0183223580
   11      H      -2.0359894359    -1.1650355502     0.9934899514
   12      H      -2.5359806707    -1.1928562834    -0.7382578323
 ----------------------------------------------------------------
 Nuclear Repulsion Energy =   484.1119332608 hartrees
 There are       33 alpha and       33 beta electrons
 Discretize the solute cavity surface with Lebedev spheres
	Using 302 Lebedev grid points for each H atom
	Using 302 Lebedev grid points for other atoms
	Atomic van der Waals radii will be scaled by 1.20
 Removing interior tesserae...
 Keep 1144 surface tesserae and discard 2480 interior tesserae
 Molecular Surface Area = 164.088 Angst**2
 Nucleus-field energy     =     0.0000000004 hartrees
 Requested basis set is 6-31++G(d,p)
 There are 57 shells and 180 basis functions
 A cutoff of  1.0D-12 yielded   1574 shell pairs
 There are     16206 function pairs
 Smallest overlap matrix eigenvalue = 1.31E-04

 -----------------------------------------------------------------------
  General SCF calculation program by
  Eric Jon Sundstrom, Paul Horn, Yuezhi Mao, Dmitri Zuev, Alec White,
  David Stuck, Shaama M.S., Shane Yost, Joonho Lee, David Small,
  Daniel Levine, Susi Lehtola, Hugh Burton, Evgeny Epifanovsky
 -----------------------------------------------------------------------
 Exchange:     0.2220 Hartree-Fock + 1.0000 wB97X-D + LR-HF
 Correlation:  1.0000 wB97X-D
 Using SG-3 standard quadrature grid
 Dispersion:   Grimme D
 using 32 threads for integral computing
 -------------------------------------------------------
 OpenMP Integral computing Module                
 Release: version 1.0, May 2013, Q-Chem Inc. Pittsburgh 
 -------------------------------------------------------
 using 32 threads for integral computing
 -------------------------------------------------------
 OpenMP Integral computing Module                
 Release: version 1.0, May 2013, Q-Chem Inc. Pittsburgh 
 -------------------------------------------------------
 -------------------------------------------------------
 OpenMP BLAS3 based DFT computing Module                
 Release: version 1.0, May 2013, Q-Chem Inc. Pittsburgh 
 -------------------------------------------------------
 A restricted SCF calculation will be
 performed using DIIS, GDM
 SCF converges when RMS gradient is below 1.0e-08
 ---------------------------------------
  Cycle       Energy         DIIS error
 ---------------------------------------
    1    -784.9335203904      4.56e-06  
    2    -784.9336341090      4.45e-06  Done DIIS. Switching to GDM
 ---------------------------------------
  Cycle       Energy        RMS Gradient
 ---------------------------------------
    1    -784.9336341090      5.77e-05   Normal BFGS step
    2    -784.9336342270      4.04e-05   Normal BFGS step
    3    -784.9336342456      2.65e-05   Normal BFGS step
    4    -784.9336342563      4.21e-06   Normal BFGS step
    5    -784.9336342567      2.97e-06   Normal BFGS step
    6    -784.9336342568      6.83e-07   Normal BFGS step
    7    -784.9336342568      3.18e-07   Normal BFGS step
    8    -784.9336342568      1.15e-07   Normal BFGS step
    9    -784.9336342568      5.63e-08   Normal BFGS step
   10    -784.9336342568      2.19e-08   Normal BFGS step
   11    -784.9336342568      6.12e-09  Convergence criterion met
 ---------------------------------------
 SCF time:   CPU 465.87s  wall 17.00s 
(0)  E-EN(g) gas-phase elect-nuc energy                    0.000000000 a.u.
(3)  G-ENP(liq) elect-nuc-pol free energy of system     -784.933634257 a.u.
(4)  G-CDS(liq) cavity-dispersion-solvent structure 
     free energy                                               -0.3959 kcal/mol
(6)  G-S(liq) free energy of system                     -784.934265233 a.u.
(9)  DeltaG-S(liq) free energy of  solvation
     (9) = (6) - (0)                                      -492553.6855 kcal/mol
 SCF   energy in the final basis set =     -784.9336342568
 Total energy in the final basis set =     -784.9342652331
 
 --------------------------------------------------------------
 
                    Orbital Energies (a.u.)
 --------------------------------------------------------------
 
 Alpha MOs
 -- Occupied --
-89.382 -19.389 -19.388 -19.346 -19.345 -10.399 -10.399  -8.366
 -6.317  -6.316  -6.315  -2.164  -1.353  -1.227  -1.207  -1.177
 -0.926  -0.814  -0.778  -0.678  -0.671  -0.637  -0.622  -0.592
 -0.571  -0.540  -0.523  -0.510  -0.489  -0.487  -0.485  -0.440
 -0.428
 -- Virtual --
  0.008   0.017   0.017   0.019   0.043   0.061   0.066   0.068
  0.070   0.086   0.089   0.090   0.093   0.115   0.122   0.133
  0.135   0.135   0.140   0.149   0.171   0.175   0.179   0.195
  0.203   0.204   0.212   0.216   0.216   0.220   0.239   0.247
  0.263   0.273   0.275   0.278   0.292   0.307   0.321   0.341
  0.346   0.351   0.354   0.365   0.382   0.393   0.404   0.405
  0.415   0.421   0.427   0.444   0.471   0.501   0.567   0.581
  0.610   0.644   0.664   0.675   0.685   0.731   0.743   0.763
  0.769   0.784   0.827   0.849   0.865   0.900   1.013   1.018
  1.061   1.103   1.114   1.133   1.143   1.170   1.186   1.238
  1.249   1.251   1.307   1.321   1.333   1.376   1.382   1.404
  1.409   1.423   1.447   1.489   1.493   1.523   1.583   1.642
  1.655   1.667   1.688   1.755   1.799   1.832   1.846   1.861
  1.904   1.914   1.959   1.980   1.985   2.001   2.033   2.063
  2.101   2.116   2.176   2.193   2.214   2.268   2.279   2.346
  2.390   2.411   2.508   2.601   2.641   2.648   2.667   2.740
  2.757   2.810   2.835   2.916   2.935   2.941   2.973   3.117
  3.376   3.395   3.534   3.592   4.063   4.212   4.294   4.308
  4.378   4.530   4.757
 --------------------------------------------------------------
 
          Ground-State Mulliken Net Atomic Charges

     Atom                 Charge (a.u.)
  ----------------------------------------
      1 Li                    0.774024
      2 C                    -0.148799
      3 O                    -0.531114
      4 C                    -0.149965
      5 S                     1.787430
      6 O                    -0.535267
      7 O                    -0.594495
      8 O                    -0.587370
      9 H                     0.255911
     10 H                     0.237349
     11 H                     0.237333
     12 H                     0.254963
  ----------------------------------------
  Sum of atomic charges =     1.000000

 -----------------------------------------------------------------
                    Cartesian Multipole Moments
 -----------------------------------------------------------------
    Charge (ESU x 10^10)
                 4.8032
    Dipole Moment (Debye)
         X       3.5741      Y       0.2410      Z      -0.5781
       Tot       3.6286
    Quadrupole Moments (Debye-Ang)
        XX       6.7901     XY       0.7225     YY     -46.2022
        XZ      -1.5324     YZ       0.3480     ZZ     -50.3452
    Octopole Moments (Debye-Ang^2)
       XXX     113.4513    XXY       2.7379    XYY      -2.1698
       YYY       1.5515    XXZ      -6.6876    XYZ       2.8466
       YYZ      -1.5015    XZZ      -6.2820    YZZ       0.4613
       ZZZ      -4.6226
    Hexadecapole Moments (Debye-Ang^3)
      XXXX      10.1001   XXXY       7.6453   XXYY     -97.3094
      XYYY      -0.1664   YYYY    -189.3036   XXXZ     -19.5874
      XXYZ       8.2093   XYYZ      -0.6239   YYYZ      -0.0534
      XXZZ    -109.9523   XYZZ       0.5980   YYZZ     -55.6238
      XZZZ      -2.6399   YZZZ       1.0086   ZZZZ    -162.0327
 -----------------------------------------------------------------
 Calculating analytic gradient of the SCF energy
 Gradient of CDS energy
            1           2           3           4           5           6
    1   0.0000591  -0.0004767   0.0001895  -0.0004471  -0.0000264   0.0001872
    2   0.0000020   0.0010600  -0.0001521  -0.0010683   0.0000164   0.0001549
    3  -0.0000068  -0.0000435  -0.0000869   0.0000613  -0.0000286   0.0000882
            7           8           9          10          11          12
    1  -0.0001268  -0.0001336   0.0001843   0.0002333   0.0001697   0.0001876
    2  -0.0000277   0.0000240  -0.0001061  -0.0001254   0.0001275   0.0000948
    3   0.0000971  -0.0000884   0.0000385   0.0000547  -0.0000677  -0.0000180
 Gradient of SCF Energy
            1           2           3           4           5           6
    1   0.0064945   0.0422725  -0.0265532   0.0434859  -0.0064773  -0.0260564
    2   0.0001319  -0.0310443   0.0237767   0.0277683  -0.0001953  -0.0235829
    3  -0.0003844   0.0201319   0.0047955  -0.0148492  -0.0008825  -0.0057827
            7           8           9          10          11          12
    1   0.0199576   0.0203688  -0.0317345  -0.0045903  -0.0072969  -0.0298708
    2   0.0143805  -0.0145951   0.0171230   0.0142805  -0.0114354  -0.0166079
    3  -0.0403409   0.0423378   0.0293353  -0.0405659   0.0377735  -0.0315682
 Max gradient component =       4.349E-02
 RMS gradient           =       2.424E-02
 Computing VTN gradient.
 Updating gradient with PCM contributions...
 -- total gradient after adding PCM contribution --
---------------------------------------------------
  Atom         X              Y              Z     
---------------------------------------------------
   1       0.000021      -0.000102      -0.000067
   2       0.000062      -0.000019       0.000069
   3       0.000024      -0.000040       0.000078
   4      -0.000009       0.000018      -0.000058
   5      -0.000126       0.000059       0.000015
   6       0.000031       0.000034      -0.000079
   7       0.000021       0.000080       0.000045
   8       0.000046      -0.000056      -0.000037
   9      -0.000012      -0.000054       0.000112
  10      -0.000057       0.000110       0.000057
  11      -0.000005      -0.000085      -0.000058
  12       0.000006       0.000054      -0.000076
---------------------------------------------------
 Number of fixed atoms: 0
 Gradient time:  CPU 78.31 s  wall 3.48 s
 Geometry Optimization Parameters
   NAtoms,    NIC,     NZ,  NCons,   NDum,   NFix, NCnnct, MaxDiis
       12     104       0       0       0       0       0       0

 Cartesian Hessian Update
 Hessian Updated using BFGS Update


** GEOMETRY OPTIMIZATION IN CARTESIAN COORDINATES **
   Searching for a Minimum

   Optimization Cycle:  34

                       Coordinates (Angstroms)
     ATOM                X               Y               Z
      1  Li        3.1419090146    0.0528628136   -0.1168409967
      2  C        -1.8521099563    0.7566548455   -0.0179795722
      3  O        -0.5136159713    1.0874917282    0.4922868974
      4  C        -1.8666744423   -0.7600684087    0.0006917605
      5  S         0.5217781864   -0.0151381950    0.0488662592
      6  O        -0.5027347564   -1.1213481122   -0.4117134988
      7  O         1.3430353009    0.3930583526   -1.0905375923
      8  O         1.3456376426   -0.4129204672    1.1819698225
      9  H        -2.5617892843    1.2000477835    0.6756762701
     10  H        -1.9450380885    1.1773577547   -1.0183223580
     11  H        -2.0359894359   -1.1650355502    0.9934899514
     12  H        -2.5359806707   -1.1928562834   -0.7382578323
   Point Group: c1    Number of degrees of freedom:    30


   Energy is   -784.934265233


 Translations and Rotations Projected Out of Hessian

 30 Hessian modes will be used to form the next step
  Hessian Eigenvalues:
     0.007124    0.014591    0.024299    0.038986    0.045108    0.057549
     0.061588    0.081950    0.103730    0.108159    0.131897    0.141224
     0.180833    0.203369    0.210088    0.217882    0.238472    0.269484
     0.331336    0.382297    0.456510    0.541073    0.623245    0.757068
     0.926045    0.981587    1.238902    1.498661    1.931876    7.738139

 Minimum Search - Taking Simple RFO Step
 Searching for Lamda that Minimizes Along All modes
 Value Taken    Lamda =   0.00000000
 Step Taken.  Stepsize is  0.001071

                             Maximum     Tolerance    Cnvgd?
         Gradient           0.000126      0.000300     YES
         Displacement       0.000476      0.001200     YES
         Energy change     -0.000073      0.000001      NO


                       Distance Matrix (Angstroms)
             Li(  1)   C (  2)   O (  3)   C (  4)   S (  5)   O (  6)
   C (  2)  5.044336
   O (  3)  3.847643  1.470167
   C (  4)  5.075488  1.516908  2.342202
   S (  5)  2.626246  2.497094  1.576216  2.502388
   O (  6)  3.840462  2.345791  2.386694  1.470011  1.576534
   O (  7)  2.073587  3.389917  2.536676  3.580882  1.462644  2.482156
   O (  8)  2.265051  3.610177  2.486709  3.440186  1.456331  2.541294
   H (  9)  5.871651  1.086922  2.059445  2.186514  3.373123  3.288009
   H ( 10)  5.287172  1.089180  2.083023  2.190468  2.940429  2.780694
   H ( 11)  5.433852  2.179398  2.764544  1.085502  2.959181  2.080234
   H ( 12)  5.846059  2.187938  3.286972  1.086887  3.369937  2.060542
             O (  7)   O (  8)   H (  9)   H ( 10)   H ( 11)
   O (  8)  2.411203
   H (  9)  4.361009  4.257462
   H ( 10)  3.381090  4.266007  1.802922
   H ( 11)  4.264814  3.469381  2.443581  3.089088
   H ( 12)  4.205472  4.400288  2.779544  2.458773  1.802697
 
 Final energy is   -784.934265233094     


 ******************************
 **  OPTIMIZATION CONVERGED  **
 ******************************

                       Coordinates (Angstroms)
     ATOM                X               Y               Z
      1  Li        3.1419090146    0.0528628136   -0.1168409967
      2  C        -1.8521099563    0.7566548455   -0.0179795722
      3  O        -0.5136159713    1.0874917282    0.4922868974
      4  C        -1.8666744423   -0.7600684087    0.0006917605
      5  S         0.5217781864   -0.0151381950    0.0488662592
      6  O        -0.5027347564   -1.1213481122   -0.4117134988
      7  O         1.3430353009    0.3930583526   -1.0905375923
      8  O         1.3456376426   -0.4129204672    1.1819698225
      9  H        -2.5617892843    1.2000477835    0.6756762701
     10  H        -1.9450380885    1.1773577547   -1.0183223580
     11  H        -2.0359894359   -1.1650355502    0.9934899514
     12  H        -2.5359806707   -1.1928562834   -0.7382578323

Z-matrix Print:
$molecule
1 1
S 
O  1 1.456331
O  1 1.462644 2 111.388839
O  1 1.576216 2 110.108416 3 -126.340403 0
C  4 1.470167 1 110.059270 2 -133.367661 0
H  5 1.086922 4 106.328691 1 152.194831 0
H  5 1.089180 4 108.030838 1 -87.542945 0
C  5 1.516908 4 103.266192 1 32.812759 0
H  8 1.085502 5 112.692100 4 78.436326 0
H  8 1.086887 5 113.308765 4 -152.855634 0
O  8 1.470011 5 103.495848 4 -38.018179 0
Li 3 2.073587 1 94.330937 2 0.099193 0
$end

 
 --------------------------------------------------------------
 
                    Orbital Energies (a.u.)
 --------------------------------------------------------------
 
 Alpha MOs
 -- Occupied --
-89.382 -19.389 -19.388 -19.346 -19.345 -10.399 -10.399  -8.366
 -6.317  -6.316  -6.315  -2.164  -1.353  -1.227  -1.207  -1.177
 -0.926  -0.814  -0.778  -0.678  -0.671  -0.637  -0.622  -0.592
 -0.571  -0.540  -0.523  -0.510  -0.489  -0.487  -0.485  -0.440
 -0.428
 -- Virtual --
  0.008   0.017   0.017   0.019   0.043   0.061   0.066   0.068
  0.070   0.086   0.089   0.090   0.093   0.115   0.122   0.133
  0.135   0.135   0.140   0.149   0.171   0.175   0.179   0.195
  0.203   0.204   0.212   0.216   0.216   0.220   0.239   0.247
  0.263   0.273   0.275   0.278   0.292   0.307   0.321   0.341
  0.346   0.351   0.354   0.365   0.382   0.393   0.404   0.405
  0.415   0.421   0.427   0.444   0.471   0.501   0.567   0.581
  0.610   0.644   0.664   0.675   0.685   0.731   0.743   0.763
  0.769   0.784   0.827   0.849   0.865   0.900   1.013   1.018
  1.061   1.103   1.114   1.133   1.143   1.170   1.186   1.238
  1.249   1.251   1.307   1.321   1.333   1.376   1.382   1.404
  1.409   1.423   1.447   1.489   1.493   1.523   1.583   1.642
  1.655   1.667   1.688   1.755   1.799   1.832   1.846   1.861
  1.904   1.914   1.959   1.980   1.985   2.001   2.033   2.063
  2.101   2.116   2.176   2.193   2.214   2.268   2.279   2.346
  2.390   2.411   2.508   2.601   2.641   2.648   2.667   2.740
  2.757   2.810   2.835   2.916   2.935   2.941   2.973   3.117
  3.376   3.395   3.534   3.592   4.063   4.212   4.294   4.308
  4.378   4.530   4.757
 --------------------------------------------------------------
 
          Ground-State Mulliken Net Atomic Charges

     Atom                 Charge (a.u.)
  ----------------------------------------
      1 Li                    0.774024
      2 C                    -0.148799
      3 O                    -0.531114
      4 C                    -0.149965
      5 S                     1.787430
      6 O                    -0.535267
      7 O                    -0.594495
      8 O                    -0.587370
      9 H                     0.255911
     10 H                     0.237349
     11 H                     0.237333
     12 H                     0.254963
  ----------------------------------------
  Sum of atomic charges =     1.000000

 -----------------------------------------------------------------
                    Cartesian Multipole Moments
 -----------------------------------------------------------------
    Charge (ESU x 10^10)
                 4.8032
    Dipole Moment (Debye)
         X       3.5741      Y       0.2410      Z      -0.5781
       Tot       3.6286
    Quadrupole Moments (Debye-Ang)
        XX       6.7901     XY       0.7225     YY     -46.2022
        XZ      -1.5324     YZ       0.3480     ZZ     -50.3452
    Octopole Moments (Debye-Ang^2)
       XXX     113.4513    XXY       2.7379    XYY      -2.1698
       YYY       1.5515    XXZ      -6.6876    XYZ       2.8466
       YYZ      -1.5015    XZZ      -6.2820    YZZ       0.4613
       ZZZ      -4.6226
    Hexadecapole Moments (Debye-Ang^3)
      XXXX      10.1001   XXXY       7.6453   XXYY     -97.3094
      XYYY      -0.1664   YYYY    -189.3036   XXXZ     -19.5874
      XXYZ       8.2093   XYYZ      -0.6239   YYYZ      -0.0534
      XXZZ    -109.9523   XYZZ       0.5980   YYZZ     -55.6238
      XZZZ      -2.6399   YZZZ       1.0086   ZZZZ    -162.0327
 -----------------------------------------------------------------
Archival summary:
1\1\nid01014\OPT\ProcedureUnspecified\BasisUnspecified\142i14(1+,1)\sblau\FriDec2816:07:402018FriDec2816:07:402018\0\\#,OPT,ProcedureUnspecified,BasisUnspecified,\\1,1\S\O,1,1.45633\O,1,1.46264,2,111.389\O,1,1.57622,2,110.108,3,-126.34,0\C,4,1.47017,1,110.059,2,-133.368,0\H,5,1.08692,4,106.329,1,152.195,0\H,5,1.08918,4,108.031,1,-87.5429,0\C,5,1.51691,4,103.266,1,32.8128,0\H,8,1.0855,5,112.692,4,78.4363,0\H,8,1.08689,5,113.309,4,-152.856,0\O,8,1.47001,5,103.496,4,-38.0182,0\Li,3,2.07359,1,94.3309,2,0.099193,0\\\@

 Total job time:  828.69s(wall), 21225.66s(cpu) 
 Fri Dec 28 16:07:40 2018

        *************************************************************
        *                                                           *
        *  Thank you very much for using Q-Chem.  Have a nice day.  *
        *                                                           *
        *************************************************************


