
Running Job 1 of 1 mol.qin
qchem mol.qin_17056.0 /tmp/chain_scratch/ 1
/global/common/cori/software/qchem/5.1/exe/qcprog.exe mol.qin_17056.0 /tmp/chain_scratch/
Check license passed

                  Welcome to Q-Chem
     A Quantum Leap Into The Future Of Chemistry


 Q-Chem 5.1, Q-Chem, Inc., Pleasanton, CA (2018)

 Yihan Shao,  Zhengting Gan,  E. Epifanovsky,  A. T. B. Gilbert,  M. Wormit,  
 J. Kussmann,  A. W. Lange,  A. Behn,  Jia Deng,  Xintian Feng,  D. Ghosh,  
 M. Goldey,  P. R. Horn,  L. D. Jacobson,  I. Kaliman,  T. Kus,  A. Landau,  
 Jie Liu,  E. I. Proynov,  R. M. Richard,  R. P. Steele,  E. J. Sundstrom,  
 H. L. Woodcock III,  P. M. Zimmerman,  D. Zuev,  B. Albrecht,  E. Alguire,  
 S. A. Baeppler,  D. Barton,  Z. Benda,  Y. A. Bernard,  E. J. Berquist,  
 K. B. Bravaya,  H. Burton,  D. Casanova,  Chun-Min Chang,  Yunqing Chen,  
 A. Chien,  K. D. Closser,  M. P. Coons,  S. Coriani,  S. Dasgupta,  
 A. L. Dempwolff,  M. Diedenhofen,  Hainam Do,  R. G. Edgar,  Po-Tung Fang,  
 S. Faraji,  S. Fatehi,  Qingguo Feng,  K. D. Fenk,  J. Fosso-Tande,  
 Qinghui Ge,  A. Ghysels,  G. Gidofalvi,  J. Gomes,  J. Gonthier,  A. Gunina,  
 D. Hait,  M. W. D. Hanson-Heine,  P. H. P. Harbach,  A. W. Hauser,  
 J. E. Herr,  E. G. Hohenstein,  Z. C. Holden,  Kerwin Hui,  B. C. Huynh,  
 T.-C. Jagau,  Hyunjun Ji,  B. Kaduk,  K. Khistyaev,  Jaehoon Kim,  
 P. Klunzinger,  K. Koh,  D. Kosenkov,  L. Koulias,  T. Kowalczyk,  
 C. M. Krauter,  A. Kunitsa,  Ka Un Lao,  A. Laurent,  K. V. Lawler,  
 Joonho Lee,  D. Lefrancois,  S. Lehtola,  D. S. Levine,  Yi-Pei Li,  
 You-Sheng Lin,  Fenglai Liu,  E. Livshits,  A. Luenser,  P. Manohar,  
 E. Mansoor,  S. F. Manzer,  Shan-Ping Mao,  Yuezhi Mao,  N. Mardirossian,  
 A. V. Marenich,  T. Markovich,  L. A. Martinez-Martinez,  S. A. Maurer,  
 N. J. Mayhall,  S. C. McKenzie,  J.-M. Mewes,  A. F. Morrison,  
 J. W. Mullinax,  K. Nanda,  T. S. Nguyen-Beck,  R. Olivares-Amaya,  
 J. A. Parkhill,  T. M. Perrine,  F. Plasser,  P. Pokhilko,  S. Prager,  
 A. Prociuk,  E. Ramos,  D. R. Rehn,  F. Rob,  M. Schneider,  N. Sergueev,  
 S. M. Sharada,  S. Sharma,  D. W. Small,  T. Stauch,  T. Stein,  
 Yu-Chuan Su,  A. J. W. Thom,  A. Tkatchenko,  T. Tsuchimochi,  N. M. Tubman,  
 L. Vogt,  M. L. Vidal,  O. Vydrov,  M. A. Watson,  J. Wenzel,  
 M. de Wergifosse,  T. A. Wesolowski,  A. White,  J. Witte,  A. Yamada,  
 Jun Yang,  K. Yao,  S. Yeganeh,  S. R. Yost,  Zhi-Qiang You,  A. Zech,  
 Igor Ying Zhang,  Xing Zhang,  Yan Zhao,  Ying Zhu,  B. R. Brooks,  
 G. K. L. Chan,  C. J. Cramer,  M. S. Gordon,  W. J. Hehre,  A. Klamt,  
 M. W. Schmidt,  C. D. Sherrill,  D. G. Truhlar,  A. Aspuru-Guzik,  R. Baer,  
 A. T. Bell,  N. A. Besley,  Jeng-Da Chai,  R. A. DiStasio Jr.,  A. Dreuw,  
 B. D. Dunietz,  T. R. Furlani,  Chao-Ping Hsu,  Yousung Jung,  Jing Kong,  
 D. S. Lambrecht,  WanZhen Liang,  C. Ochsenfeld,  V. A. Rassolov,  
 L. V. Slipchenko,  J. E. Subotnik,  T. Van Voorhis,  J. M. Herbert,  
 A. I. Krylov,  P. M. W. Gill,  M. Head-Gordon

 Contributors to earlier versions of Q-Chem not listed above: 
 R. D. Adamson,  B. Austin,  J. Baker,  G. J. O. Beran,  K. Brandhorst,  
 S. T. Brown,  E. F. C. Byrd,  A. K. Chakraborty,  C.-L. Cheng,  
 Siu Hung Chien,  D. M. Chipman,  D. L. Crittenden,  H. Dachsel,  
 R. J. Doerksen,  A. D. Dutoi,  L. Fusti-Molnar,  W. A. Goddard III,  
 A. Golubeva-Zadorozhnaya,  S. R. Gwaltney,  G. Hawkins,  A. Heyden,  
 S. Hirata,  G. Kedziora,  F. J. Keil,  C. Kelley,  Jihan Kim,  R. A. King,  
 R. Z. Khaliullin,  P. P. Korambath,  W. Kurlancheek,  A. M. Lee,  M. S. Lee,  
 S. V. Levchenko,  Ching Yeh Lin,  D. Liotard,  R. C. Lochan,  I. Lotan,  
 P. E. Maslen,  N. Nair,  D. P. O'Neill,  D. Neuhauser,  E. Neuscamman,  
 C. M. Oana,  R. Olson,  B. Peters,  R. Peverati,  P. A. Pieniazek,  
 Y. M. Rhee,  J. Ritchie,  M. A. Rohrdanz,  E. Rosta,  N. J. Russ,  
 H. F. Schaefer III,  N. E. Schultz,  N. Shenvi,  A. C. Simmonett,  A. Sodt,  
 D. Stuck,  K. S. Thanthiriwatte,  V. Vanovschi,  Tao Wang,  A. Warshel,  
 C. F. Williams,  Q. Wu,  X. Xu,  W. Zhang

 Please cite Q-Chem as follows:
 Y. Shao et al., Mol. Phys. 113, 184-215 (2015)
 DOI: 10.1080/00268976.2014.952696

 Q-Chem 5.1.0 for Intel X86 EM64T Linux

 Parts of Q-Chem use Armadillo 8.300.2 (Tropical Shenanigans).
 http://arma.sourceforge.net/

 Q-Chem begins on Fri Dec 28 12:57:12 2018  

Host: cori08
0

     Scratch files written to /tmp/chain_scratch//
 Jun2518 |scratch|qcdevops|jenkins|workspace|build_RNUM -1
Processing $rem in /global/common/cori/software/qchem/5.1/config/preferences.
 MEM_TOTAL  96000 
The previous job contains 0 fragments, simply inherited here
Symmetry turned off for PCM/SM12/SMD calculation

Checking the input file for inconsistencies... 	...done.

--------------------------------------------------------------
User input:
--------------------------------------------------------------
$molecule
read
$end

$rem
job_type = opt
basis = 6-31++g**
max_scf_cycles = 200
gen_scfman = true
xc_grid = 3
scf_algorithm = diis_gdm
method = wb97xd
geom_opt_max_cycles = 200
solvent_method = smd
ideriv = 1
scf_guess = read
geom_opt_hessian = read
$end

$smx
solvent acetonitrile
$end
--------------------------------------------------------------
 ----------------------------------------------------------------
             Standard Nuclear Orientation (Angstroms)
    I     Atom           X                Y                Z
 ----------------------------------------------------------------
    1      Li      3.1328406343     0.0062113080    -0.0235813069
    2      C      -1.8562890322     0.7572801942    -0.0135717931
    3      O      -0.5079498569     1.1006251026     0.4606464363
    4      C      -1.8612232434    -0.7598338176     0.0116065433
    5      S       0.5233407854    -0.0018740656     0.0095052188
    6      O      -0.5036922022    -1.1155709281    -0.4250159658
    7      O       1.3370243822     0.3957457492    -1.1358196058
    8      O       1.3598976765    -0.3909682393     1.1403522198
    9      H      -2.5511289423     1.1993877848     0.6957232697
   10      H      -1.9790928090     1.1707046438    -1.0140495017
   11      H      -2.0138253903    -1.1633958442     1.0075897736
   12      H      -2.5414744633    -1.1982056261    -0.7140561772
 ----------------------------------------------------------------
 Nuclear Repulsion Energy =   484.2239100244 hartrees
 There are       33 alpha and       33 beta electrons
 Requested basis set is 6-31++G(d,p)
 There are 57 shells and 180 basis functions

 Total QAlloc Memory Limit  96000 MB
 Mega-Array Size       188 MB
 MEM_STATIC part       192 MB
 A cutoff of  1.0D-12 yielded   1574 shell pairs
 There are     16206 function pairs
 
 -------------------------------------------------------
 OpenMP Integral Computing Module                       
 Release: version 1.0, May 2013, Q-Chem Inc. Pittsburgh 
 -------------------------------------------------------
 Integral Job Info:
 Integral job number is                      11
 Integral operator is                         1
 short-range coefficients              22203600
 long-range coefficients              100000000
 Omega coefficients                         200
 if combine SR and LR in K                    1
 Integral screening is                        0
 Integral computing path is                   2
 max size of driver memory is            800000
 size of driver memory is                593474
 size of scratch memory is             15604072
 max col of scratch BK array               1296
 max len of scratch array in speh3          155
 max len of scratch index in speh4           18
 max int batch size is                      520
 min int batch size is                       52
 fixed nKL is                                52
 max L of basis functions is                  2
 order of int derivative is                   0
 number of shells is                         57
 number of basis is                         180
 number of cartesian basis is               180
 number of contracted shell pairs          1574
 number of primitive shell pairs           5389
 maxK2 (contraction) of shell pair           36
 max number of K2 of shell pair               1
 max number of CS2 of shell pair            176
 max number of PS2 of shell pair           1056
 mem total for path MDJ                  537180
 -------------------------------------------------------
 Smallest overlap matrix eigenvalue = 1.31E-04

 Scale SEOQF with 1.000000e-02/1.000000e-02/1.000000e-02

 Standard Electronic Orientation quadrupole field applied
 Nucleus-field energy     =     0.0000000004 hartrees

 -----------------------------------------------------------------------
  General SCF calculation program by
  Eric Jon Sundstrom, Paul Horn, Yuezhi Mao, Dmitri Zuev, Alec White,
  David Stuck, Shaama M.S., Shane Yost, Joonho Lee, David Small,
  Daniel Levine, Susi Lehtola, Hugh Burton, Evgeny Epifanovsky
 -----------------------------------------------------------------------
 Exchange:     0.2220 Hartree-Fock + 1.0000 wB97X-D + LR-HF
 Correlation:  1.0000 wB97X-D
 Using SG-3 standard quadrature grid
 Dispersion:   Grimme D
 
 Citation of the SMD model:
 Marenich, A.V.; Cramer, C.J.; Truhlar, D.G.
 J. Phys. Chem. B 2009, 113, 6378-6396.
 iSolventCode=          53
 Solvent: acetonitrile                                                    
 
 vradii
            1           2           3           4           5           6
    1   2.1476001   1.8500000   2.1680000   1.8500000   2.4900000   2.1680000
            7           8           9          10          11          12
    1   2.1680000   2.1680000   1.2000000   1.2000000   1.2000000   1.2000000
Changing PCM_TESSEL_METHOD to VTN
Changing PCM_VDW_RADII to SMD_RADIUS
 Discretize the solute cavity surface with Lebedev spheres
	Using 302 Lebedev grid points for each H atom
	Using 302 Lebedev grid points for other atoms
	Atomic van der Waals radii will be scaled by 1.20
 Removing interior tesserae...
 Keep 1149 surface tesserae and discard 2475 interior tesserae
 Molecular Surface Area = 164.569 Angst**2
 
 Citation of the SMD model:
 Marenich, A.V.; Cramer, C.J.; Truhlar, D.G.
 J. Phys. Chem. B 2009, 113, 6378-6396.
 iSolventCode=          53
 Solvent: acetonitrile                                                    
 
 vradii
            1           2           3           4           5           6
    1   2.1476001   1.8500000   2.1680000   1.8500000   2.4900000   2.1680000
            7           8           9          10          11          12
    1   2.1680000   2.1680000   1.2000000   1.2000000   1.2000000   1.2000000
 
 Citation of the SMD model:
 Marenich, A.V.; Cramer, C.J.; Truhlar, D.G.
 J. Phys. Chem. B 2009, 113, 6378-6396.
 iSolventCode=          53
 Solvent: acetonitrile                                                    
 
 vradii
            1           2           3           4           5           6
    1   2.1476001   1.8500000   2.1680000   1.8500000   2.4900000   2.1680000
            7           8           9          10          11          12
    1   2.1680000   2.1680000   1.2000000   1.2000000   1.2000000   1.2000000
 using 32 threads for integral computing
 -------------------------------------------------------
 OpenMP Integral computing Module                
 Release: version 1.0, May 2013, Q-Chem Inc. Pittsburgh 
 -------------------------------------------------------
 using 32 threads for integral computing
 -------------------------------------------------------
 OpenMP Integral computing Module                
 Release: version 1.0, May 2013, Q-Chem Inc. Pittsburgh 
 -------------------------------------------------------
 -------------------------------------------------------
 OpenMP BLAS3 based DFT computing Module                
 Release: version 1.0, May 2013, Q-Chem Inc. Pittsburgh 
 -------------------------------------------------------
 A restricted SCF calculation will be
 performed using DIIS, GDM
 SCF converges when RMS gradient is below 1.0e-08
 ---------------------------------------
  Cycle       Energy         DIIS error
 ---------------------------------------
    1    -784.8385738588      4.02e-04  
    2    -784.9324124535      4.39e-04  Done DIIS. Switching to GDM
 ---------------------------------------
  Cycle       Energy        RMS Gradient
 ---------------------------------------
    1    -784.9324124535      6.43e-03   Normal BFGS step
    2    -784.9333842817      2.97e-03   Normal BFGS step
    3    -784.9336093056      1.21e-03   Normal BFGS step
    4    -784.9336464004      4.35e-04   Normal BFGS step
    5    -784.9336496980      1.89e-04   Normal BFGS step
    6    -784.9336504460      8.67e-05   Normal BFGS step
    7    -784.9336505265      4.43e-05   Normal BFGS step
    8    -784.9336505652      7.95e-06   Normal BFGS step
    9    -784.9336505670      4.68e-06   Normal BFGS step
   10    -784.9336505671      3.36e-06   Normal BFGS step
   11    -784.9336505672      7.44e-07   Normal BFGS step
   12    -784.9336505672      1.59e-07   Normal BFGS step
   13    -784.9336505672      3.23e-08   Normal BFGS step
   14    -784.9336505672      9.84e-09  Convergence criterion met
 ---------------------------------------
 SCF time:   CPU 589.12s  wall 23.00s 
(0)  E-EN(g) gas-phase elect-nuc energy                    0.000000000 a.u.
(3)  G-ENP(liq) elect-nuc-pol free energy of system     -784.933650567 a.u.
(4)  G-CDS(liq) cavity-dispersion-solvent structure 
     free energy                                               -0.3980 kcal/mol
(6)  G-S(liq) free energy of system                     -784.934284871 a.u.
(9)  DeltaG-S(liq) free energy of  solvation
     (9) = (6) - (0)                                      -492553.6979 kcal/mol
 SCF   energy in the final basis set =     -784.9336505672
 Total energy in the final basis set =     -784.9342848709
 
 --------------------------------------------------------------
 
                    Orbital Energies (a.u.)
 --------------------------------------------------------------
 
 Alpha MOs
 -- Occupied --
-89.382 -19.389 -19.389 -19.346 -19.346 -10.399 -10.399  -8.366
 -6.318  -6.317  -6.315  -2.163  -1.354  -1.228  -1.208  -1.177
 -0.927  -0.815  -0.779  -0.678  -0.671  -0.637  -0.623  -0.593
 -0.571  -0.540  -0.523  -0.510  -0.490  -0.487  -0.486  -0.440
 -0.428
 -- Virtual --
  0.008   0.017   0.017   0.019   0.042   0.062   0.066   0.068
  0.070   0.085   0.089   0.089   0.093   0.115   0.121   0.133
  0.135   0.135   0.140   0.149   0.171   0.175   0.179   0.195
  0.203   0.204   0.212   0.216   0.216   0.220   0.239   0.248
  0.266   0.272   0.277   0.277   0.293   0.306   0.320   0.342
  0.346   0.351   0.354   0.364   0.383   0.393   0.404   0.405
  0.415   0.422   0.427   0.444   0.471   0.501   0.568   0.581
  0.609   0.644   0.665   0.674   0.684   0.733   0.743   0.766
  0.769   0.782   0.829   0.849   0.865   0.902   1.015   1.017
  1.063   1.103   1.113   1.131   1.143   1.176   1.180   1.239
  1.247   1.250   1.307   1.321   1.331   1.378   1.381   1.405
  1.409   1.426   1.447   1.490   1.492   1.521   1.585   1.642
  1.655   1.667   1.694   1.756   1.797   1.839   1.847   1.862
  1.904   1.914   1.958   1.983   1.994   1.996   2.034   2.061
  2.090   2.109   2.176   2.194   2.213   2.267   2.279   2.346
  2.393   2.410   2.510   2.601   2.641   2.647   2.667   2.740
  2.756   2.809   2.835   2.916   2.935   2.941   2.972   3.116
  3.375   3.395   3.533   3.593   4.063   4.211   4.295   4.309
  4.377   4.529   4.756
 --------------------------------------------------------------
 
          Ground-State Mulliken Net Atomic Charges

     Atom                 Charge (a.u.)
  ----------------------------------------
      1 Li                    0.768476
      2 C                    -0.155209
      3 O                    -0.530947
      4 C                    -0.148123
      5 S                     1.796864
      6 O                    -0.534082
      7 O                    -0.592311
      8 O                    -0.591029
      9 H                     0.255335
     10 H                     0.238277
     11 H                     0.238138
     12 H                     0.254611
  ----------------------------------------
  Sum of atomic charges =     1.000000

 -----------------------------------------------------------------
                    Cartesian Multipole Moments
 -----------------------------------------------------------------
    Charge (ESU x 10^10)
                 4.8032
    Dipole Moment (Debye)
         X       3.4738      Y       0.0340      Z      -0.1220
       Tot       3.4761
    Quadrupole Moments (Debye-Ang)
        XX       6.4316     XY       0.0797     YY     -46.1886
        XZ      -0.3389     YZ       0.3444     ZZ     -50.3813
    Octopole Moments (Debye-Ang^2)
       XXX     111.6865    XXY       0.3504    XYY      -2.2851
       YYY       0.3389    XXZ      -1.4518    XYZ       2.9027
       YYZ      -0.3436    XZZ      -6.6856    YZZ       0.0074
       ZZZ      -0.9204
    Hexadecapole Moments (Debye-Ang^3)
      XXXX       3.5943   XXXY       0.7926   XXYY     -97.4325
      XYYY      -0.2146   YYYY    -189.1954   XXXZ      -4.2910
      XXYZ       8.2965   XYYZ      -0.0669   YYYZ      -0.0889
      XXZZ    -110.6207   XYZZ       0.0640   YYZZ     -55.4444
      XZZZ      -0.3592   YZZZ       0.8817   ZZZZ    -161.3161
 -----------------------------------------------------------------
 Calculating analytic gradient of the SCF energy
 Gradient of CDS energy
            1           2           3           4           5           6
    1   0.0000599  -0.0004626   0.0001883  -0.0004327  -0.0000190   0.0001877
    2   0.0000001   0.0010642  -0.0001535  -0.0010743   0.0000114   0.0001569
    3  -0.0000011  -0.0000527  -0.0000853   0.0000836  -0.0000200   0.0000813
            7           8           9          10          11          12
    1  -0.0001297  -0.0001319   0.0001855   0.0002095   0.0001584   0.0001867
    2  -0.0000256   0.0000248  -0.0001068  -0.0001277   0.0001301   0.0001004
    3   0.0000943  -0.0000913   0.0000365   0.0000537  -0.0000727  -0.0000263
 Gradient of SCF Energy
            1           2           3           4           5           6
    1   0.0060943   0.0428950  -0.0265070   0.0440214  -0.0054677  -0.0260919
    2  -0.0000476  -0.0307052   0.0238420   0.0283517  -0.0002136  -0.0239921
    3  -0.0000408   0.0195546   0.0051606  -0.0158367   0.0003203  -0.0054591
            7           8           9          10          11          12
    1   0.0195370   0.0205258  -0.0311044  -0.0061391  -0.0073083  -0.0304551
    2   0.0143838  -0.0139694   0.0170981   0.0137937  -0.0116093  -0.0169321
    3  -0.0415313   0.0412058   0.0301049  -0.0408120   0.0382266  -0.0308930
 Max gradient component =       4.402E-02
 RMS gradient           =       2.433E-02
 Computing VTN gradient.
 Updating gradient with PCM contributions...
 -- total gradient after adding PCM contribution --
---------------------------------------------------
  Atom         X              Y              Z     
---------------------------------------------------
   1      -0.000030       0.000064       0.000042
   2       0.000023       0.000087       0.000008
   3       0.000007      -0.000037       0.000060
   4      -0.000051      -0.000111       0.000037
   5      -0.000039       0.000051      -0.000076
   6      -0.000068      -0.000006      -0.000013
   7      -0.000032       0.000096       0.000010
   8       0.000087      -0.000106      -0.000079
   9       0.000000      -0.000033       0.000091
  10       0.000012      -0.000053       0.000150
  11       0.000101       0.000026      -0.000170
  12      -0.000012       0.000021      -0.000060
---------------------------------------------------
 Number of fixed atoms: 0
 Gradient time:  CPU 77.76 s  wall 3.49 s
 Geometry Optimization Parameters
   NAtoms,    NIC,     NZ,  NCons,   NDum,   NFix, NCnnct, MaxDiis
       12     104       0       0       0       0       0       0

 Cartesian Hessian read from HESS file


** GEOMETRY OPTIMIZATION IN DELOCALIZED INTERNAL COORDINATES **
   Searching for a Minimum

   Optimization Cycle:   1

                       Coordinates (Angstroms)
     ATOM                X               Y               Z
      1  Li        3.1328406343    0.0062113080   -0.0235813069
      2  C        -1.8562890322    0.7572801942   -0.0135717931
      3  O        -0.5079498569    1.1006251026    0.4606464363
      4  C        -1.8612232434   -0.7598338176    0.0116065433
      5  S         0.5233407854   -0.0018740656    0.0095052188
      6  O        -0.5036922022   -1.1155709281   -0.4250159658
      7  O         1.3370243822    0.3957457492   -1.1358196058
      8  O         1.3598976765   -0.3909682393    1.1403522198
      9  H        -2.5511289423    1.1993877848    0.6957232697
     10  H        -1.9790928090    1.1707046438   -1.0140495017
     11  H        -2.0138253903   -1.1633958442    1.0075897736
     12  H        -2.5414744633   -1.1982056261   -0.7140561772
   Point Group: c1    Number of degrees of freedom:    30


   Energy is   -784.934284871


 Attempting to Generate Delocalized Internal Coordinates

 Transforming Cartesian Hessian to Internal Coordinates
 Hessian Transformation does not Include Derivative of B-matrix

 30 Hessian modes will be used to form the next step
  Hessian Eigenvalues:
    -0.213931   -0.000308    0.006214    0.009231    0.009707    0.019439
     0.039662    0.041299    0.049461    0.061660    0.065525    0.072201
     0.080346    0.083541    0.093255    0.098393    0.105242    0.179665
     0.225114    0.238329    0.251092    0.279893    0.328275    0.343224
     0.349954    0.361967    0.363195    0.533435    0.540259    1.245405
**WARNING** Hessian does not have the Desired Local Structure

 Minimum Search - Taking Simple RFO Step
 Searching for Lamda that Minimizes Along All modes
 Value Taken    Lamda =  -0.21393126
 Calculated Step too Large.  Step scaled by  0.000094
 Step Taken.  Stepsize is  0.300000

                             Maximum     Tolerance    Cnvgd?
         Gradient           0.000148      0.000300     YES
         Displacement       0.139598      0.001200      NO
         Energy change     *********      0.000001      NO


 New Cartesian Coordinates Obtained by Inverse Iteration

 Displacement from previous Coordinates is:  0.305564
 ----------------------------------------------------------------
             Standard Nuclear Orientation (Angstroms)
    I     Atom           X                Y                Z
 ----------------------------------------------------------------
    1      Li      3.1334322491     0.0074509001    -0.0008284195
    2      C      -1.8585767232     0.7523155682    -0.0292207067
    3      O      -0.5056867281     1.0910370431     0.4515344003
    4      C      -1.8624119325    -0.7702166474    -0.0244720282
    5      S       0.5239310061    -0.0047253094    -0.0059890795
    6      O      -0.5007026860    -1.1233134598    -0.4591300042
    7      O       1.3514075098     0.4201361195    -1.1302649589
    8      O       1.3459832084    -0.4176642213     1.1278257328
    9      H      -2.5510334542     1.1644406042     0.7022418393
   10      H      -1.9882057688     1.2006034605    -1.0111823766
   11      H      -2.0026371868    -1.1017450414     1.1214369494
   12      H      -2.5470719552    -1.2182127545    -0.7426222374
 ----------------------------------------------------------------
 Nuclear Repulsion Energy =   483.3382715308 hartrees
 There are       33 alpha and       33 beta electrons
 Discretize the solute cavity surface with Lebedev spheres
	Using 302 Lebedev grid points for each H atom
	Using 302 Lebedev grid points for other atoms
	Atomic van der Waals radii will be scaled by 1.20
 Removing interior tesserae...
 Keep 1157 surface tesserae and discard 2467 interior tesserae
 Molecular Surface Area = 164.506 Angst**2
 Nucleus-field energy     =     0.0000000004 hartrees
 Requested basis set is 6-31++G(d,p)
 There are 57 shells and 180 basis functions
 A cutoff of  1.0D-12 yielded   1573 shell pairs
 There are     16202 function pairs
 Smallest overlap matrix eigenvalue = 1.31E-04

 -----------------------------------------------------------------------
  General SCF calculation program by
  Eric Jon Sundstrom, Paul Horn, Yuezhi Mao, Dmitri Zuev, Alec White,
  David Stuck, Shaama M.S., Shane Yost, Joonho Lee, David Small,
  Daniel Levine, Susi Lehtola, Hugh Burton, Evgeny Epifanovsky
 -----------------------------------------------------------------------
 Exchange:     0.2220 Hartree-Fock + 1.0000 wB97X-D + LR-HF
 Correlation:  1.0000 wB97X-D
 Using SG-3 standard quadrature grid
 Dispersion:   Grimme D
 using 32 threads for integral computing
 -------------------------------------------------------
 OpenMP Integral computing Module                
 Release: version 1.0, May 2013, Q-Chem Inc. Pittsburgh 
 -------------------------------------------------------
 using 32 threads for integral computing
 -------------------------------------------------------
 OpenMP Integral computing Module                
 Release: version 1.0, May 2013, Q-Chem Inc. Pittsburgh 
 -------------------------------------------------------
 -------------------------------------------------------
 OpenMP BLAS3 based DFT computing Module                
 Release: version 1.0, May 2013, Q-Chem Inc. Pittsburgh 
 -------------------------------------------------------
 A restricted SCF calculation will be
 performed using DIIS, GDM
 SCF converges when RMS gradient is below 1.0e-08
 ---------------------------------------
  Cycle       Energy         DIIS error
 ---------------------------------------
    1    -784.9218423436      7.60e-04  
    2    -784.9254914469      2.35e-04  Done DIIS. Switching to GDM
 ---------------------------------------
  Cycle       Energy        RMS Gradient
 ---------------------------------------
    1    -784.9254914469      3.65e-03   Normal BFGS step
    2    -784.9256973656      1.86e-03   Normal BFGS step
    3    -784.9258034823      4.97e-04   Normal BFGS step
    4    -784.9258037401      4.88e-04   Normal BFGS step
    5    -784.9258084922      3.65e-05   Normal BFGS step
    6    -784.9258085216      3.00e-05   Normal BFGS step
    7    -784.9258085425      8.13e-06   Normal BFGS step
    8    -784.9258085437      3.47e-06   Normal BFGS step
    9    -784.9258085442      1.09e-06   Normal BFGS step
   10    -784.9258085442      8.78e-07   Normal BFGS step
   11    -784.9258085443      1.10e-07   Normal BFGS step
   12    -784.9258085443      4.42e-08   Normal BFGS step
   13    -784.9258085443      1.01e-08   Normal BFGS step
   14    -784.9258085443      4.01e-09  Convergence criterion met
 ---------------------------------------
 SCF time:   CPU 576.30s  wall 22.00s 
(0)  E-EN(g) gas-phase elect-nuc energy                    0.000000000 a.u.
(3)  G-ENP(liq) elect-nuc-pol free energy of system     -784.925808544 a.u.
(4)  G-CDS(liq) cavity-dispersion-solvent structure 
     free energy                                               -0.3980 kcal/mol
(6)  G-S(liq) free energy of system                     -784.926442848 a.u.
(9)  DeltaG-S(liq) free energy of  solvation
     (9) = (6) - (0)                                      -492548.7769 kcal/mol
 SCF   energy in the final basis set =     -784.9258085443
 Total energy in the final basis set =     -784.9264428479
 
 --------------------------------------------------------------
 
                    Orbital Energies (a.u.)
 --------------------------------------------------------------
 
 Alpha MOs
 -- Occupied --
-89.382 -19.390 -19.390 -19.347 -19.345 -10.410 -10.399  -8.366
 -6.318  -6.317  -6.316  -2.164  -1.353  -1.227  -1.207  -1.178
 -0.924  -0.811  -0.778  -0.675  -0.670  -0.634  -0.621  -0.593
 -0.565  -0.540  -0.523  -0.510  -0.491  -0.487  -0.481  -0.441
 -0.424
 -- Virtual --
  0.008   0.017   0.017   0.019   0.042   0.061   0.065   0.068
  0.070   0.085   0.089   0.089   0.093   0.115   0.119   0.133
  0.133   0.135   0.139   0.148   0.171   0.175   0.178   0.192
  0.195   0.202   0.211   0.213   0.216   0.220   0.239   0.249
  0.266   0.271   0.275   0.278   0.290   0.304   0.315   0.341
  0.344   0.347   0.353   0.362   0.380   0.391   0.395   0.404
  0.412   0.420   0.427   0.443   0.469   0.498   0.567   0.580
  0.608   0.643   0.665   0.674   0.684   0.732   0.745   0.766
  0.771   0.783   0.824   0.850   0.865   0.902   1.011   1.021
  1.065   1.092   1.108   1.135   1.137   1.173   1.180   1.234
  1.246   1.252   1.306   1.321   1.330   1.375   1.381   1.404
  1.409   1.424   1.450   1.490   1.493   1.530   1.583   1.646
  1.658   1.672   1.698   1.755   1.795   1.838   1.848   1.859
  1.904   1.912   1.952   1.965   1.982   1.994   2.007   2.032
  2.075   2.093   2.171   2.181   2.213   2.258   2.268   2.353
  2.387   2.418   2.502   2.589   2.592   2.636   2.655   2.703
  2.731   2.766   2.823   2.910   2.916   2.940   2.957   3.090
  3.253   3.391   3.484   3.574   4.063   4.210   4.296   4.308
  4.377   4.521   4.747
 --------------------------------------------------------------
 
          Ground-State Mulliken Net Atomic Charges

     Atom                 Charge (a.u.)
  ----------------------------------------
      1 Li                    0.767935
      2 C                    -0.172774
      3 O                    -0.534158
      4 C                    -0.113057
      5 S                     1.786529
      6 O                    -0.528625
      7 O                    -0.589800
      8 O                    -0.594655
      9 H                     0.256444
     10 H                     0.236256
     11 H                     0.221289
     12 H                     0.264616
  ----------------------------------------
  Sum of atomic charges =     1.000000

 -----------------------------------------------------------------
                    Cartesian Multipole Moments
 -----------------------------------------------------------------
    Charge (ESU x 10^10)
                 4.8032
    Dipole Moment (Debye)
         X       3.4898      Y       0.1376      Z      -0.1042
       Tot       3.4940
    Quadrupole Moments (Debye-Ang)
        XX       6.3520     XY      -0.0116     YY     -46.6025
        XZ       0.1473     YZ       0.5655     ZZ     -50.1565
    Octopole Moments (Debye-Ang^2)
       XXX     112.3424    XXY       0.8364    XYY      -1.7249
       YYY       1.7587    XXZ      -0.2320    XYZ       2.7503
       YYZ      -0.2348    XZZ      -6.9679    YZZ       0.1986
       ZZZ       1.0879
    Hexadecapole Moments (Debye-Ang^3)
      XXXX       1.1302   XXXY      -0.2861   XXYY     -99.5518
      XYYY      -1.9555   YYYY    -192.1772   XXXZ       0.7966
      XXYZ       9.5185   XYYZ       1.0349   YYYZ       1.0192
      XXZZ    -109.7580   XYZZ       0.1143   YYZZ     -55.9031
      XZZZ      -0.9892   YZZZ       1.3407   ZZZZ    -161.4822
 -----------------------------------------------------------------
 Calculating analytic gradient of the SCF energy
 Gradient of CDS energy
            1           2           3           4           5           6
    1   0.0000599  -0.0004626   0.0001883  -0.0004327  -0.0000190   0.0001877
    2   0.0000001   0.0010642  -0.0001535  -0.0010743   0.0000114   0.0001569
    3  -0.0000011  -0.0000527  -0.0000853   0.0000836  -0.0000200   0.0000813
            7           8           9          10          11          12
    1  -0.0001297  -0.0001319   0.0001855   0.0002095   0.0001584   0.0001867
    2  -0.0000256   0.0000248  -0.0001068  -0.0001277   0.0001301   0.0001004
    3   0.0000943  -0.0000913   0.0000365   0.0000537  -0.0000727  -0.0000263
 Gradient of SCF Energy
            1           2           3           4           5           6
    1   0.0061227   0.0437212  -0.0213870   0.0395785  -0.0057697  -0.0233382
    2   0.0000859  -0.0324696   0.0252645   0.0250431   0.0022400  -0.0262378
    3  -0.0001127   0.0204493   0.0066877  -0.0751052  -0.0031150  -0.0057143
            7           8           9          10          11          12
    1   0.0208441   0.0193493  -0.0314079  -0.0067531  -0.0100859  -0.0308742
    2   0.0166293  -0.0152739   0.0145662   0.0154338  -0.0098811  -0.0154004
    3  -0.0393758   0.0420489   0.0327803  -0.0385449   0.0973319  -0.0373302
 Max gradient component =       9.733E-02
 RMS gradient           =       3.102E-02
 Computing VTN gradient.
 Updating gradient with PCM contributions...
 -- total gradient after adding PCM contribution --
---------------------------------------------------
  Atom         X              Y              Z     
---------------------------------------------------
   1      -0.000034      -0.000011      -0.000133
   2       0.000230       0.000157       0.000242
   3       0.004524       0.000886       0.000968
   4      -0.000952       0.002030      -0.053357
   5       0.000169       0.002955      -0.002419
   6       0.001952      -0.003056      -0.000976
   7       0.000350       0.001344       0.001463
   8      -0.000313      -0.000174       0.000626
   9      -0.000608      -0.000530       0.001417
  10      -0.000406      -0.000361       0.001925
  11      -0.004888      -0.004678       0.054910
  12      -0.000023       0.001438      -0.004666
---------------------------------------------------
 Number of fixed atoms: 0
 Gradient time:  CPU 77.26 s  wall 3.49 s
 Geometry Optimization Parameters
   NAtoms,    NIC,     NZ,  NCons,   NDum,   NFix, NCnnct, MaxDiis
       12     104       0       0       0       0       0       0

 Cartesian Hessian Update
 Hessian Updated using BFGS Update


** GEOMETRY OPTIMIZATION IN DELOCALIZED INTERNAL COORDINATES **
   Searching for a Minimum

   Optimization Cycle:   2

                       Coordinates (Angstroms)
     ATOM                X               Y               Z
      1  Li        3.1334322491    0.0074509001   -0.0008284195
      2  C        -1.8585767232    0.7523155682   -0.0292207067
      3  O        -0.5056867281    1.0910370431    0.4515344003
      4  C        -1.8624119325   -0.7702166474   -0.0244720282
      5  S         0.5239310061   -0.0047253094   -0.0059890795
      6  O        -0.5007026860   -1.1233134598   -0.4591300042
      7  O         1.3514075098    0.4201361195   -1.1302649589
      8  O         1.3459832084   -0.4176642213    1.1278257328
      9  H        -2.5510334542    1.1644406042    0.7022418393
     10  H        -1.9882057688    1.2006034605   -1.0111823766
     11  H        -2.0026371868   -1.1017450414    1.1214369494
     12  H        -2.5470719552   -1.2182127545   -0.7426222374
   Point Group: c1    Number of degrees of freedom:    30


   Energy is   -784.926442848

 Hessian Updated using BFGS Update

 30 Hessian modes will be used to form the next step
  Hessian Eigenvalues:
    -0.000308    0.006184    0.009023    0.009707    0.019408    0.039609
     0.041285    0.049444    0.060006    0.063423    0.071488    0.077072
     0.083222    0.093214    0.098165    0.102046    0.166014    0.196999
     0.229102    0.243630    0.251236    0.282153    0.329966    0.344416
     0.349954    0.362601    0.363817    0.533436    0.540260    1.278113
**WARNING** Hessian does not have the Desired Local Structure

 Minimum Search - Taking Simple RFO Step
 Searching for Lamda that Minimizes Along All modes
 Value Taken    Lamda =  -0.01376272
 Step Taken.  Stepsize is  0.269854

                             Maximum     Tolerance    Cnvgd?
         Gradient           0.028869      0.000300      NO
         Displacement       0.129273      0.001200      NO
         Energy change      0.007842      0.000001      NO


 New Cartesian Coordinates Obtained by Inverse Iteration

 Displacement from previous Coordinates is:  0.271886
 ----------------------------------------------------------------
             Standard Nuclear Orientation (Angstroms)
    I     Atom           X                Y                Z
 ----------------------------------------------------------------
    1      Li      3.1327541767     0.0023672390    -0.0153437197
    2      C      -1.8579615927     0.7574018495    -0.0159025264
    3      O      -0.5083599704     1.1017504575     0.4555467759
    4      C      -1.8601117017    -0.7598797097     0.0083828121
    5      S       0.5229356245    -0.0014241824     0.0061793986
    6      O      -0.5040257084    -1.1128781757    -0.4346013718
    7      O       1.3417098191     0.3986450726    -1.1345655704
    8      O       1.3543043157    -0.3955430496     1.1391864299
    9      H      -2.5508502828     1.1952928723     0.6979227751
   10      H      -1.9849768201     1.1748333029    -1.0142682692
   11      H      -2.0031769405    -1.1574379993     1.0176216582
   12      H      -2.5438133807    -1.2030214156    -0.7108292812
 ----------------------------------------------------------------
 Nuclear Repulsion Energy =   484.1872776998 hartrees
 There are       33 alpha and       33 beta electrons
 Discretize the solute cavity surface with Lebedev spheres
	Using 302 Lebedev grid points for each H atom
	Using 302 Lebedev grid points for other atoms
	Atomic van der Waals radii will be scaled by 1.20
 Removing interior tesserae...
 Keep 1151 surface tesserae and discard 2473 interior tesserae
 Molecular Surface Area = 164.777 Angst**2
 Nucleus-field energy     =     0.0000000004 hartrees
 Requested basis set is 6-31++G(d,p)
 There are 57 shells and 180 basis functions
 A cutoff of  1.0D-12 yielded   1573 shell pairs
 There are     16202 function pairs
 Smallest overlap matrix eigenvalue = 1.31E-04

 -----------------------------------------------------------------------
  General SCF calculation program by
  Eric Jon Sundstrom, Paul Horn, Yuezhi Mao, Dmitri Zuev, Alec White,
  David Stuck, Shaama M.S., Shane Yost, Joonho Lee, David Small,
  Daniel Levine, Susi Lehtola, Hugh Burton, Evgeny Epifanovsky
 -----------------------------------------------------------------------
 Exchange:     0.2220 Hartree-Fock + 1.0000 wB97X-D + LR-HF
 Correlation:  1.0000 wB97X-D
 Using SG-3 standard quadrature grid
 Dispersion:   Grimme D
 using 32 threads for integral computing
 -------------------------------------------------------
 OpenMP Integral computing Module                
 Release: version 1.0, May 2013, Q-Chem Inc. Pittsburgh 
 -------------------------------------------------------
 using 32 threads for integral computing
 -------------------------------------------------------
 OpenMP Integral computing Module                
 Release: version 1.0, May 2013, Q-Chem Inc. Pittsburgh 
 -------------------------------------------------------
 -------------------------------------------------------
 OpenMP BLAS3 based DFT computing Module                
 Release: version 1.0, May 2013, Q-Chem Inc. Pittsburgh 
 -------------------------------------------------------
 A restricted SCF calculation will be
 performed using DIIS, GDM
 SCF converges when RMS gradient is below 1.0e-08
 ---------------------------------------
  Cycle       Energy         DIIS error
 ---------------------------------------
    1    -784.9309194726      6.81e-04  
    2    -784.9334262868      2.16e-04  Done DIIS. Switching to GDM
 ---------------------------------------
  Cycle       Energy        RMS Gradient
 ---------------------------------------
    1    -784.9334262868      3.60e-03   Normal BFGS step
    2    -784.9335931245      1.55e-03   Normal BFGS step
    3    -784.9336782046      4.75e-04   Normal BFGS step
    4    -784.9336784026      5.51e-04   Normal BFGS step
    5    -784.9336827712      2.76e-05   Normal BFGS step
    6    -784.9336827903      2.92e-05   Normal BFGS step
    7    -784.9336828137      5.03e-06   Normal BFGS step
    8    -784.9336828143      3.32e-06   Normal BFGS step
    9    -784.9336828148      8.79e-07   Normal BFGS step
   10    -784.9336828148      6.80e-07   Normal BFGS step
   11    -784.9336828148      9.14e-08   Normal BFGS step
   12    -784.9336828148      3.10e-08   Normal BFGS step
   13    -784.9336828148      1.29e-08   Normal BFGS step
   14    -784.9336828148      5.95e-09  Convergence criterion met
 ---------------------------------------
 SCF time:   CPU 578.04s  wall 22.00s 
(0)  E-EN(g) gas-phase elect-nuc energy                    0.000000000 a.u.
(3)  G-ENP(liq) elect-nuc-pol free energy of system     -784.933682815 a.u.
(4)  G-CDS(liq) cavity-dispersion-solvent structure 
     free energy                                               -0.3980 kcal/mol
(6)  G-S(liq) free energy of system                     -784.934317118 a.u.
(9)  DeltaG-S(liq) free energy of  solvation
     (9) = (6) - (0)                                      -492553.7181 kcal/mol
 SCF   energy in the final basis set =     -784.9336828148
 Total energy in the final basis set =     -784.9343171184
 
 --------------------------------------------------------------
 
                    Orbital Energies (a.u.)
 --------------------------------------------------------------
 
 Alpha MOs
 -- Occupied --
-89.382 -19.389 -19.389 -19.346 -19.346 -10.400 -10.399  -8.366
 -6.318  -6.316  -6.315  -2.163  -1.354  -1.228  -1.208  -1.177
 -0.926  -0.814  -0.778  -0.678  -0.671  -0.637  -0.623  -0.593
 -0.571  -0.540  -0.523  -0.510  -0.490  -0.486  -0.486  -0.440
 -0.428
 -- Virtual --
  0.008   0.017   0.017   0.019   0.042   0.062   0.066   0.068
  0.070   0.085   0.089   0.089   0.093   0.115   0.121   0.133
  0.135   0.135   0.140   0.149   0.171   0.175   0.179   0.195
  0.203   0.203   0.212   0.215   0.216   0.220   0.239   0.248
  0.266   0.272   0.277   0.277   0.293   0.306   0.320   0.342
  0.346   0.351   0.354   0.364   0.383   0.393   0.404   0.404
  0.414   0.422   0.427   0.444   0.471   0.500   0.568   0.581
  0.609   0.644   0.665   0.674   0.684   0.733   0.744   0.766
  0.769   0.782   0.828   0.849   0.865   0.902   1.014   1.018
  1.063   1.103   1.112   1.132   1.142   1.176   1.180   1.239
  1.247   1.250   1.307   1.321   1.331   1.378   1.381   1.405
  1.409   1.426   1.448   1.490   1.493   1.522   1.585   1.643
  1.655   1.667   1.695   1.756   1.797   1.839   1.847   1.862
  1.904   1.915   1.958   1.983   1.994   1.996   2.034   2.059
  2.089   2.105   2.176   2.192   2.213   2.266   2.278   2.346
  2.393   2.411   2.509   2.600   2.641   2.648   2.664   2.738
  2.753   2.808   2.832   2.916   2.934   2.940   2.970   3.113
  3.369   3.394   3.527   3.589   4.063   4.211   4.295   4.309
  4.377   4.529   4.756
 --------------------------------------------------------------
 
          Ground-State Mulliken Net Atomic Charges

     Atom                 Charge (a.u.)
  ----------------------------------------
      1 Li                    0.768488
      2 C                    -0.154509
      3 O                    -0.531906
      4 C                    -0.147353
      5 S                     1.796127
      6 O                    -0.533104
      7 O                    -0.592244
      8 O                    -0.591377
      9 H                     0.255287
     10 H                     0.237841
     11 H                     0.237262
     12 H                     0.255488
  ----------------------------------------
  Sum of atomic charges =     1.000000

 -----------------------------------------------------------------
                    Cartesian Multipole Moments
 -----------------------------------------------------------------
    Charge (ESU x 10^10)
                 4.8032
    Dipole Moment (Debye)
         X       3.4770      Y       0.0206      Z      -0.0839
       Tot       3.4781
    Quadrupole Moments (Debye-Ang)
        XX       6.4218     XY       0.0195     YY     -46.2185
        XZ      -0.2032     YZ       0.3603     ZZ     -50.3674
    Octopole Moments (Debye-Ang^2)
       XXX     111.7936    XXY       0.1748    XYY      -2.2447
       YYY       0.3130    XXZ      -0.9522    XYZ       2.9110
       YYZ      -0.2550    XZZ      -6.6725    YZZ       0.0218
       ZZZ      -0.5088
    Hexadecapole Moments (Debye-Ang^3)
      XXXX       3.4504   XXXY       0.2405   XXYY     -97.5661
      XYYY      -0.1899   YYYY    -189.4097   XXXZ      -2.7552
      XXYZ       8.4233   XYYZ       0.0604   YYYZ       0.0324
      XXZZ    -110.5704   XYZZ       0.0590   YYZZ     -55.4763
      XZZZ      -0.4070   YZZZ       0.9506   ZZZZ    -161.2963
 -----------------------------------------------------------------
 Calculating analytic gradient of the SCF energy
 Gradient of CDS energy
            1           2           3           4           5           6
    1   0.0000599  -0.0004626   0.0001883  -0.0004327  -0.0000190   0.0001877
    2   0.0000001   0.0010642  -0.0001535  -0.0010743   0.0000114   0.0001569
    3  -0.0000011  -0.0000527  -0.0000853   0.0000836  -0.0000200   0.0000813
            7           8           9          10          11          12
    1  -0.0001297  -0.0001319   0.0001855   0.0002095   0.0001584   0.0001867
    2  -0.0000256   0.0000248  -0.0001068  -0.0001277   0.0001301   0.0001004
    3   0.0000943  -0.0000913   0.0000365   0.0000537  -0.0000727  -0.0000263
 Gradient of SCF Energy
            1           2           3           4           5           6
    1   0.0061202   0.0432129  -0.0262896   0.0434865  -0.0055674  -0.0260682
    2  -0.0000653  -0.0307992   0.0239985   0.0291618  -0.0001860  -0.0239568
    3  -0.0000188   0.0194059   0.0053311  -0.0228308   0.0002465  -0.0051506
            7           8           9          10          11          12
    1   0.0197996   0.0203026  -0.0309626  -0.0064106  -0.0070577  -0.0305657
    2   0.0145931  -0.0142639   0.0167633   0.0141760  -0.0123278  -0.0170937
    3  -0.0413724   0.0412741   0.0304385  -0.0406839   0.0442668  -0.0309064
 Max gradient component =       4.427E-02
 RMS gradient           =       2.480E-02
 Computing VTN gradient.
 Updating gradient with PCM contributions...
 -- total gradient after adding PCM contribution --
---------------------------------------------------
  Atom         X              Y              Z     
---------------------------------------------------
   1      -0.000025      -0.000010      -0.000008
   2       0.000032       0.000080       0.000015
   3       0.000132       0.000036       0.000044
   4       0.000079      -0.000603      -0.003489
   5      -0.000053       0.000000      -0.000016
   6       0.000031      -0.000045       0.000144
   7      -0.000002       0.000279       0.000065
   8       0.000055      -0.000173      -0.000082
   9       0.000026      -0.000125       0.000178
  10      -0.000056       0.000097       0.000159
  11      -0.000310       0.000354       0.003231
  12       0.000090       0.000111      -0.000241
---------------------------------------------------
 Number of fixed atoms: 0
 Gradient time:  CPU 77.00 s  wall 3.48 s
 Geometry Optimization Parameters
   NAtoms,    NIC,     NZ,  NCons,   NDum,   NFix, NCnnct, MaxDiis
       12     104       0       0       0       0       0       0

 Cartesian Hessian Update
 Hessian Updated using BFGS Update


** GEOMETRY OPTIMIZATION IN DELOCALIZED INTERNAL COORDINATES **
   Searching for a Minimum

   Optimization Cycle:   3

                       Coordinates (Angstroms)
     ATOM                X               Y               Z
      1  Li        3.1327541767    0.0023672390   -0.0153437197
      2  C        -1.8579615927    0.7574018495   -0.0159025264
      3  O        -0.5083599704    1.1017504575    0.4555467759
      4  C        -1.8601117017   -0.7598797097    0.0083828121
      5  S         0.5229356245   -0.0014241824    0.0061793986
      6  O        -0.5040257084   -1.1128781757   -0.4346013718
      7  O         1.3417098191    0.3986450726   -1.1345655704
      8  O         1.3543043157   -0.3955430496    1.1391864299
      9  H        -2.5508502828    1.1952928723    0.6979227751
     10  H        -1.9849768201    1.1748333029   -1.0142682692
     11  H        -2.0031769405   -1.1574379993    1.0176216582
     12  H        -2.5438133807   -1.2030214156   -0.7108292812
   Point Group: c1    Number of degrees of freedom:    30


   Energy is   -784.934317118

 Hessian Updated using BFGS Update

 30 Hessian modes will be used to form the next step
  Hessian Eigenvalues:
    -0.000308    0.006184    0.009031    0.009707    0.019409    0.039609
     0.041288    0.049443    0.060291    0.063493    0.071561    0.077364
     0.083242    0.093218    0.098194    0.102289    0.165769    0.196428
     0.228675    0.243108    0.251234    0.282002    0.329951    0.344372
     0.349956    0.362597    0.363806    0.533436    0.540260    1.277520
**WARNING** Hessian does not have the Desired Local Structure

 Minimum Search - Taking Simple RFO Step
 Searching for Lamda that Minimizes Along All modes
 Value Taken    Lamda =  -0.00030810
 Calculated Step too Large.  Step scaled by  0.014755
 Step Taken.  Stepsize is  0.300000

                             Maximum     Tolerance    Cnvgd?
         Gradient           0.001722      0.000300      NO
         Displacement       0.263339      0.001200      NO
         Energy change     -0.007874      0.000001      NO


 New Cartesian Coordinates Obtained by Inverse Iteration

 Displacement from previous Coordinates is:  0.207738
 ----------------------------------------------------------------
             Standard Nuclear Orientation (Angstroms)
    I     Atom           X                Y                Z
 ----------------------------------------------------------------
    1      Li      3.1321283424     0.0117473149    -0.0976643998
    2      C      -1.8585911787     0.7578065935    -0.0197792178
    3      O      -0.5117241991     1.1050342368     0.4587897359
    4      C      -1.8599762411    -0.7595865370     0.0045742404
    5      S       0.5230667130    -0.0051198137     0.0352370208
    6      O      -0.5006719250    -1.1100271320    -0.4300340261
    7      O       1.3610539441     0.3920554365    -1.0960177483
    8      O       1.3341917539    -0.4016395727     1.1793481798
    9      H      -2.5565142674     1.1943631363     0.6899934275
   10      H      -1.9788219300     1.1763067120    -1.0186382441
   11      H      -2.0074977238    -1.1573857706     1.0128712297
   12      H      -2.5382157496    -1.2034483422    -0.7193510871
 ----------------------------------------------------------------
 Nuclear Repulsion Energy =   484.1136984950 hartrees
 There are       33 alpha and       33 beta electrons
 Discretize the solute cavity surface with Lebedev spheres
	Using 302 Lebedev grid points for each H atom
	Using 302 Lebedev grid points for other atoms
	Atomic van der Waals radii will be scaled by 1.20
 Removing interior tesserae...
 Keep 1149 surface tesserae and discard 2475 interior tesserae
 Molecular Surface Area = 164.829 Angst**2
 Nucleus-field energy     =     0.0000000004 hartrees
 Requested basis set is 6-31++G(d,p)
 There are 57 shells and 180 basis functions
 A cutoff of  1.0D-12 yielded   1573 shell pairs
 There are     16202 function pairs
 Smallest overlap matrix eigenvalue = 1.31E-04

 -----------------------------------------------------------------------
  General SCF calculation program by
  Eric Jon Sundstrom, Paul Horn, Yuezhi Mao, Dmitri Zuev, Alec White,
  David Stuck, Shaama M.S., Shane Yost, Joonho Lee, David Small,
  Daniel Levine, Susi Lehtola, Hugh Burton, Evgeny Epifanovsky
 -----------------------------------------------------------------------
 Exchange:     0.2220 Hartree-Fock + 1.0000 wB97X-D + LR-HF
 Correlation:  1.0000 wB97X-D
 Using SG-3 standard quadrature grid
 Dispersion:   Grimme D
 using 32 threads for integral computing
 -------------------------------------------------------
 OpenMP Integral computing Module                
 Release: version 1.0, May 2013, Q-Chem Inc. Pittsburgh 
 -------------------------------------------------------
 using 32 threads for integral computing
 -------------------------------------------------------
 OpenMP Integral computing Module                
 Release: version 1.0, May 2013, Q-Chem Inc. Pittsburgh 
 -------------------------------------------------------
 -------------------------------------------------------
 OpenMP BLAS3 based DFT computing Module                
 Release: version 1.0, May 2013, Q-Chem Inc. Pittsburgh 
 -------------------------------------------------------
 A restricted SCF calculation will be
 performed using DIIS, GDM
 SCF converges when RMS gradient is below 1.0e-08
 ---------------------------------------
  Cycle       Energy         DIIS error
 ---------------------------------------
    1    -784.9331050401      3.84e-04  
    2    -784.9335243971      1.77e-04  Done DIIS. Switching to GDM
 ---------------------------------------
  Cycle       Energy        RMS Gradient
 ---------------------------------------
    1    -784.9335243971      3.59e-03   Normal BFGS step
    2    -784.9334876110      4.57e-03  Line search: overstep
    3    -784.9336282019      7.84e-04   Normal BFGS step
    4    -784.9336510135      2.33e-04   Normal BFGS step
    5    -784.9336518170      4.47e-05   Normal BFGS step
    6    -784.9336518474      2.13e-05   Normal BFGS step
    7    -784.9336518568      8.07e-06   Normal BFGS step
    8    -784.9336518587      2.13e-06   Normal BFGS step
    9    -784.9336518589      6.83e-07   Normal BFGS step
   10    -784.9336518589      4.34e-07   Normal BFGS step
   11    -784.9336518589      2.08e-07   Normal BFGS step
   12    -784.9336518589      3.39e-08   Normal BFGS step
   13    -784.9336518589      2.29e-08   Normal BFGS step
   14    -784.9336518589      8.17e-09  Convergence criterion met
 ---------------------------------------
 SCF time:   CPU 572.64s  wall 22.00s 
(0)  E-EN(g) gas-phase elect-nuc energy                    0.000000000 a.u.
(3)  G-ENP(liq) elect-nuc-pol free energy of system     -784.933651859 a.u.
(4)  G-CDS(liq) cavity-dispersion-solvent structure 
     free energy                                               -0.3980 kcal/mol
(6)  G-S(liq) free energy of system                     -784.934286163 a.u.
(9)  DeltaG-S(liq) free energy of  solvation
     (9) = (6) - (0)                                      -492553.6987 kcal/mol
 SCF   energy in the final basis set =     -784.9336518589
 Total energy in the final basis set =     -784.9342861626
 
 --------------------------------------------------------------
 
                    Orbital Energies (a.u.)
 --------------------------------------------------------------
 
 Alpha MOs
 -- Occupied --
-89.382 -19.389 -19.389 -19.346 -19.345 -10.400 -10.399  -8.366
 -6.318  -6.316  -6.315  -2.163  -1.354  -1.227  -1.208  -1.177
 -0.926  -0.814  -0.778  -0.678  -0.671  -0.637  -0.622  -0.593
 -0.571  -0.540  -0.523  -0.510  -0.490  -0.486  -0.485  -0.440
 -0.428
 -- Virtual --
  0.008   0.017   0.017   0.019   0.042   0.062   0.066   0.068
  0.070   0.085   0.089   0.090   0.093   0.115   0.121   0.133
  0.134   0.135   0.140   0.149   0.172   0.175   0.179   0.195
  0.203   0.203   0.212   0.215   0.216   0.220   0.239   0.247
  0.264   0.273   0.276   0.278   0.292   0.307   0.320   0.342
  0.346   0.351   0.354   0.364   0.383   0.392   0.404   0.404
  0.414   0.422   0.427   0.444   0.471   0.502   0.567   0.581
  0.610   0.644   0.664   0.675   0.686   0.732   0.744   0.765
  0.770   0.785   0.828   0.849   0.865   0.902   1.013   1.019
  1.062   1.103   1.113   1.136   1.142   1.172   1.184   1.238
  1.248   1.250   1.307   1.321   1.332   1.377   1.380   1.404
  1.409   1.424   1.447   1.489   1.494   1.522   1.584   1.643
  1.655   1.667   1.692   1.755   1.799   1.832   1.846   1.861
  1.906   1.913   1.958   1.984   1.984   2.000   2.034   2.060
  2.100   2.119   2.175   2.192   2.213   2.267   2.278   2.346
  2.391   2.412   2.508   2.600   2.641   2.647   2.664   2.739
  2.753   2.808   2.832   2.915   2.934   2.940   2.971   3.114
  3.369   3.394   3.527   3.589   4.063   4.211   4.294   4.309
  4.376   4.529   4.756
 --------------------------------------------------------------
 
          Ground-State Mulliken Net Atomic Charges

     Atom                 Charge (a.u.)
  ----------------------------------------
      1 Li                    0.768418
      2 C                    -0.144991
      3 O                    -0.533905
      4 C                    -0.155470
      5 S                     1.792295
      6 O                    -0.531665
      7 O                    -0.593296
      8 O                    -0.587433
      9 H                     0.255122
     10 H                     0.237772
     11 H                     0.237681
     12 H                     0.255472
  ----------------------------------------
  Sum of atomic charges =     1.000000

 -----------------------------------------------------------------
                    Cartesian Multipole Moments
 -----------------------------------------------------------------
    Charge (ESU x 10^10)
                 4.8032
    Dipole Moment (Debye)
         X       3.4807      Y       0.0403      Z      -0.4504
       Tot       3.5100
    Quadrupole Moments (Debye-Ang)
        XX       6.4081     XY       0.1205     YY     -46.2186
        XZ      -1.2490     YZ       0.3537     ZZ     -50.3311
    Octopole Moments (Debye-Ang^2)
       XXX     111.7537    XXY       0.5107    XYY      -2.2320
       YYY       0.4739    XXZ      -5.2246    XYZ       2.8930
       YYZ      -1.0438    XZZ      -6.5309    YZZ       0.2176
       ZZZ      -3.1772
    Hexadecapole Moments (Debye-Ang^3)
      XXXX       3.0905   XXXY       1.4652   XXYY     -97.5635
      XYYY       0.0480   YYYY    -189.4539   XXXZ     -15.3238
      XXYZ       8.3852   XYYZ      -0.2580   YYYZ       0.0522
      XXZZ    -110.1820   XYZZ       0.3830   YYZZ     -55.5300
      XZZZ      -2.0393   YZZZ       0.9932   ZZZZ    -161.6659
 -----------------------------------------------------------------
 Calculating analytic gradient of the SCF energy
 Gradient of CDS energy
            1           2           3           4           5           6
    1   0.0000599  -0.0004626   0.0001883  -0.0004327  -0.0000190   0.0001877
    2   0.0000001   0.0010642  -0.0001535  -0.0010743   0.0000114   0.0001569
    3  -0.0000011  -0.0000527  -0.0000853   0.0000836  -0.0000200   0.0000813
            7           8           9          10          11          12
    1  -0.0001297  -0.0001319   0.0001855   0.0002095   0.0001584   0.0001867
    2  -0.0000256   0.0000248  -0.0001068  -0.0001277   0.0001301   0.0001004
    3   0.0000943  -0.0000913   0.0000365   0.0000537  -0.0000727  -0.0000263
 Gradient of SCF Energy
            1           2           3           4           5           6
    1   0.0055804   0.0434544  -0.0263781   0.0424756  -0.0062165  -0.0262785
    2  -0.0002317  -0.0309404   0.0242861   0.0289589   0.0002255  -0.0237568
    3  -0.0004694   0.0198068   0.0047028  -0.0222698  -0.0013333  -0.0054292
            7           8           9          10          11          12
    1   0.0213258   0.0203474  -0.0311530  -0.0059468  -0.0068858  -0.0303248
    2   0.0144514  -0.0145696   0.0165707   0.0144435  -0.0123159  -0.0171217
    3  -0.0401318   0.0431549   0.0301667  -0.0408862   0.0439922  -0.0313036
 Max gradient component =       4.399E-02
 RMS gradient           =       2.483E-02
 Computing VTN gradient.
 Updating gradient with PCM contributions...
 -- total gradient after adding PCM contribution --
---------------------------------------------------
  Atom         X              Y              Z     
---------------------------------------------------
   1      -0.000491      -0.000074      -0.000671
   2      -0.000015      -0.000046       0.000132
   3       0.000164       0.000250      -0.000259
   4      -0.000409      -0.000856      -0.003478
   5      -0.000238       0.000030       0.000121
   6      -0.000150       0.000080       0.000053
   7       0.000586       0.000406       0.000057
   8       0.000477      -0.000319       0.000773
   9      -0.000004      -0.000194       0.000171
  10       0.000007       0.000203       0.000150
  11      -0.000043       0.000398       0.003241
  12       0.000115       0.000123      -0.000290
---------------------------------------------------
 Number of fixed atoms: 0
 Gradient time:  CPU 78.13 s  wall 3.46 s
 Geometry Optimization Parameters
   NAtoms,    NIC,     NZ,  NCons,   NDum,   NFix, NCnnct, MaxDiis
       12     104       0       0       0       0       0       0

 Cartesian Hessian Update
 Hessian Updated using BFGS Update


** GEOMETRY OPTIMIZATION IN DELOCALIZED INTERNAL COORDINATES **
   Searching for a Minimum

   Optimization Cycle:   4

                       Coordinates (Angstroms)
     ATOM                X               Y               Z
      1  Li        3.1321283424    0.0117473149   -0.0976643998
      2  C        -1.8585911787    0.7578065935   -0.0197792178
      3  O        -0.5117241991    1.1050342368    0.4587897359
      4  C        -1.8599762411   -0.7595865370    0.0045742404
      5  S         0.5230667130   -0.0051198137    0.0352370208
      6  O        -0.5006719250   -1.1100271320   -0.4300340261
      7  O         1.3610539441    0.3920554365   -1.0960177483
      8  O         1.3341917539   -0.4016395727    1.1793481798
      9  H        -2.5565142674    1.1943631363    0.6899934275
     10  H        -1.9788219300    1.1763067120   -1.0186382441
     11  H        -2.0074977238   -1.1573857706    1.0128712297
     12  H        -2.5382157496   -1.2034483422   -0.7193510871
   Point Group: c1    Number of degrees of freedom:    30


   Energy is   -784.934286163

 Hessian Updated using BFGS Update

 30 Hessian modes will be used to form the next step
  Hessian Eigenvalues:
     0.001794    0.006186    0.009052    0.010383    0.019459    0.039613
     0.041294    0.049489    0.060394    0.063495    0.071736    0.077760
     0.083278    0.093219    0.098199    0.102291    0.165809    0.196563
     0.228759    0.243547    0.251442    0.282007    0.330414    0.344385
     0.350143    0.362623    0.363828    0.534596    0.543844    1.277521

 Minimum Search - Taking Simple RFO Step
 Searching for Lamda that Minimizes Along All modes
 Value Taken    Lamda =  -0.00022609
 Step Taken.  Stepsize is  0.259059

                             Maximum     Tolerance    Cnvgd?
         Gradient           0.001768      0.000300      NO
         Displacement       0.224765      0.001200      NO
         Energy change      0.000031      0.000001      NO


 New Cartesian Coordinates Obtained by Inverse Iteration

 Displacement from previous Coordinates is:  0.182709
 ----------------------------------------------------------------
             Standard Nuclear Orientation (Angstroms)
    I     Atom           X                Y                Z
 ----------------------------------------------------------------
    1      Li      3.1346822208     0.0051277588    -0.0252424329
    2      C      -1.8580358055     0.7576247248    -0.0144670779
    3      O      -0.5081963672     1.1034097364     0.4544311817
    4      C      -1.8600553964    -0.7592572779     0.0105213177
    5      S       0.5229863426    -0.0020423094     0.0096923931
    6      O      -0.5043395021    -1.1114187403    -0.4349552828
    7      O       1.3454617246     0.3933802421    -1.1303728742
    8      O       1.3502203199    -0.3937076017     1.1459955288
    9      H      -2.5507566936     1.1976283789     0.6982001556
   10      H      -1.9860124968     1.1717434187    -1.0141022227
   11      H      -2.0033338506    -1.1619285351     1.0092134334
   12      H      -2.5441929569    -1.2004535335    -0.7095850089
 ----------------------------------------------------------------
 Nuclear Repulsion Energy =   484.2096899018 hartrees
 There are       33 alpha and       33 beta electrons
 Discretize the solute cavity surface with Lebedev spheres
	Using 302 Lebedev grid points for each H atom
	Using 302 Lebedev grid points for other atoms
	Atomic van der Waals radii will be scaled by 1.20
 Removing interior tesserae...
 Keep 1149 surface tesserae and discard 2475 interior tesserae
 Molecular Surface Area = 164.563 Angst**2
 Nucleus-field energy     =     0.0000000004 hartrees
 Requested basis set is 6-31++G(d,p)
 There are 57 shells and 180 basis functions
 A cutoff of  1.0D-12 yielded   1573 shell pairs
 There are     16202 function pairs
 Smallest overlap matrix eigenvalue = 1.31E-04

 -----------------------------------------------------------------------
  General SCF calculation program by
  Eric Jon Sundstrom, Paul Horn, Yuezhi Mao, Dmitri Zuev, Alec White,
  David Stuck, Shaama M.S., Shane Yost, Joonho Lee, David Small,
  Daniel Levine, Susi Lehtola, Hugh Burton, Evgeny Epifanovsky
 -----------------------------------------------------------------------
 Exchange:     0.2220 Hartree-Fock + 1.0000 wB97X-D + LR-HF
 Correlation:  1.0000 wB97X-D
 Using SG-3 standard quadrature grid
 Dispersion:   Grimme D
 using 32 threads for integral computing
 -------------------------------------------------------
 OpenMP Integral computing Module                
 Release: version 1.0, May 2013, Q-Chem Inc. Pittsburgh 
 -------------------------------------------------------
 using 32 threads for integral computing
 -------------------------------------------------------
 OpenMP Integral computing Module                
 Release: version 1.0, May 2013, Q-Chem Inc. Pittsburgh 
 -------------------------------------------------------
 -------------------------------------------------------
 OpenMP BLAS3 based DFT computing Module                
 Release: version 1.0, May 2013, Q-Chem Inc. Pittsburgh 
 -------------------------------------------------------
 A restricted SCF calculation will be
 performed using DIIS, GDM
 SCF converges when RMS gradient is below 1.0e-08
 ---------------------------------------
  Cycle       Energy         DIIS error
 ---------------------------------------
    1    -784.9318607546      3.30e-04  
    2    -784.9336016848      1.52e-04  Done DIIS. Switching to GDM
 ---------------------------------------
  Cycle       Energy        RMS Gradient
 ---------------------------------------
    1    -784.9336016848      2.99e-03   Normal BFGS step
    2    -784.9335760369      3.69e-03  Line search: overstep
    3    -784.9336784885      7.05e-04   Normal BFGS step
    4    -784.9336954744      1.81e-04   Normal BFGS step
    5    -784.9336960733      4.16e-05   Normal BFGS step
    6    -784.9336961270      3.00e-05   Normal BFGS step
    7    -784.9336961425      7.92e-06   Normal BFGS step
    8    -784.9336961439      4.98e-06   Normal BFGS step
    9    -784.9336961446      9.55e-07   Normal BFGS step
   10    -784.9336961446      8.67e-07   Normal BFGS step
   11    -784.9336961446      1.36e-07   Normal BFGS step
   12    -784.9336961446      4.24e-08   Normal BFGS step
   13    -784.9336961446      1.50e-08   Normal BFGS step
   14    -784.9336961446      1.13e-08   Normal BFGS step
   15    -784.9336961446      1.55e-09  Convergence criterion met
 ---------------------------------------
 SCF time:   CPU 608.88s  wall 24.00s 
(0)  E-EN(g) gas-phase elect-nuc energy                    0.000000000 a.u.
(3)  G-ENP(liq) elect-nuc-pol free energy of system     -784.933696145 a.u.
(4)  G-CDS(liq) cavity-dispersion-solvent structure 
     free energy                                               -0.3980 kcal/mol
(6)  G-S(liq) free energy of system                     -784.934330448 a.u.
(9)  DeltaG-S(liq) free energy of  solvation
     (9) = (6) - (0)                                      -492553.7265 kcal/mol
 SCF   energy in the final basis set =     -784.9336961446
 Total energy in the final basis set =     -784.9343304482
 
 --------------------------------------------------------------
 
                    Orbital Energies (a.u.)
 --------------------------------------------------------------
 
 Alpha MOs
 -- Occupied --
-89.382 -19.389 -19.389 -19.346 -19.345 -10.399 -10.399  -8.366
 -6.318  -6.316  -6.315  -2.164  -1.354  -1.228  -1.208  -1.177
 -0.926  -0.814  -0.778  -0.678  -0.671  -0.637  -0.623  -0.593
 -0.571  -0.540  -0.523  -0.510  -0.490  -0.486  -0.486  -0.440
 -0.428
 -- Virtual --
  0.008   0.017   0.017   0.019   0.042   0.062   0.066   0.068
  0.070   0.085   0.089   0.089   0.093   0.115   0.122   0.133
  0.135   0.135   0.140   0.149   0.171   0.175   0.179   0.195
  0.203   0.204   0.212   0.216   0.216   0.220   0.239   0.248
  0.266   0.272   0.277   0.277   0.293   0.306   0.320   0.342
  0.346   0.351   0.354   0.364   0.383   0.393   0.404   0.405
  0.415   0.422   0.426   0.444   0.471   0.501   0.568   0.581
  0.609   0.644   0.665   0.674   0.684   0.733   0.744   0.766
  0.769   0.781   0.828   0.849   0.865   0.902   1.014   1.018
  1.063   1.103   1.113   1.131   1.143   1.176   1.180   1.239
  1.247   1.250   1.307   1.321   1.331   1.379   1.381   1.405
  1.409   1.426   1.447   1.490   1.493   1.521   1.584   1.642
  1.655   1.667   1.694   1.756   1.797   1.839   1.846   1.862
  1.904   1.915   1.958   1.983   1.993   1.997   2.034   2.061
  2.089   2.109   2.176   2.193   2.213   2.267   2.279   2.346
  2.392   2.410   2.509   2.601   2.642   2.648   2.667   2.740
  2.756   2.809   2.835   2.916   2.935   2.941   2.972   3.116
  3.375   3.395   3.533   3.592   4.063   4.211   4.295   4.309
  4.377   4.530   4.756
 --------------------------------------------------------------
 
          Ground-State Mulliken Net Atomic Charges

     Atom                 Charge (a.u.)
  ----------------------------------------
      1 Li                    0.769264
      2 C                    -0.151581
      3 O                    -0.532016
      4 C                    -0.150447
      5 S                     1.795358
      6 O                    -0.532985
      7 O                    -0.592621
      8 O                    -0.591073
      9 H                     0.255130
     10 H                     0.237905
     11 H                     0.238254
     12 H                     0.254811
  ----------------------------------------
  Sum of atomic charges =     1.000000

 -----------------------------------------------------------------
                    Cartesian Multipole Moments
 -----------------------------------------------------------------
    Charge (ESU x 10^10)
                 4.8032
    Dipole Moment (Debye)
         X       3.4877      Y       0.0230      Z      -0.1218
       Tot       3.4899
    Quadrupole Moments (Debye-Ang)
        XX       6.4953     XY       0.0619     YY     -46.1907
        XZ      -0.3376     YZ       0.3390     ZZ     -50.3901
    Octopole Moments (Debye-Ang^2)
       XXX     112.0227    XXY       0.2651    XYY      -2.2606
       YYY       0.2587    XXZ      -1.4327    XYZ       2.9040
       YYZ      -0.3212    XZZ      -6.6579    YZZ       0.0581
       ZZZ      -0.8886
    Hexadecapole Moments (Debye-Ang^3)
      XXXX       4.7818   XXXY       0.7133   XXYY     -97.4280
      XYYY      -0.0537   YYYY    -189.1181   XXXZ      -4.2315
      XXYZ       8.3075   XYYZ      -0.0498   YYYZ      -0.1349
      XXZZ    -110.6411   XYZZ       0.0851   YYZZ     -55.4596
      XZZZ      -0.5100   YZZZ       0.8268   ZZZZ    -161.4524
 -----------------------------------------------------------------
 Calculating analytic gradient of the SCF energy
 Gradient of CDS energy
            1           2           3           4           5           6
    1   0.0000599  -0.0004626   0.0001883  -0.0004327  -0.0000190   0.0001877
    2   0.0000001   0.0010642  -0.0001535  -0.0010743   0.0000114   0.0001569
    3  -0.0000011  -0.0000527  -0.0000853   0.0000836  -0.0000200   0.0000813
            7           8           9          10          11          12
    1  -0.0001297  -0.0001319   0.0001855   0.0002095   0.0001584   0.0001867
    2  -0.0000256   0.0000248  -0.0001068  -0.0001277   0.0001301   0.0001004
    3   0.0000943  -0.0000913   0.0000365   0.0000537  -0.0000727  -0.0000263
 Gradient of SCF Energy
            1           2           3           4           5           6
    1   0.0062351   0.0432852  -0.0263603   0.0433810  -0.0055158  -0.0260957
    2  -0.0000501  -0.0306729   0.0238922   0.0286046  -0.0000976  -0.0239162
    3  -0.0000649   0.0193884   0.0053614  -0.0172991  -0.0000307  -0.0054496
            7           8           9          10          11          12
    1   0.0198403   0.0200295  -0.0309659  -0.0064347  -0.0067348  -0.0306640
    2   0.0141498  -0.0139791   0.0169507   0.0138756  -0.0116710  -0.0170859
    3  -0.0412242   0.0414951   0.0302271  -0.0407952   0.0389940  -0.0306024
 Max gradient component =       4.338E-02
 RMS gradient           =       2.437E-02
 Computing VTN gradient.
 Updating gradient with PCM contributions...
 -- total gradient after adding PCM contribution --
---------------------------------------------------
  Atom         X              Y              Z     
---------------------------------------------------
   1       0.000050       0.000078       0.000034
   2       0.000016      -0.000043       0.000074
   3       0.000024      -0.000027       0.000108
   4      -0.000264      -0.001633       0.001644
   5       0.000042      -0.000021       0.000045
   6       0.000022       0.000025      -0.000060
   7      -0.000063      -0.000026       0.000010
   8      -0.000073      -0.000007      -0.000116
   9       0.000005      -0.000059       0.000083
  10      -0.000016       0.000073       0.000050
  11       0.000252       0.001616      -0.001843
  12       0.000004       0.000024      -0.000027
---------------------------------------------------
 Number of fixed atoms: 0
 Gradient time:  CPU 77.78 s  wall 3.46 s
 Geometry Optimization Parameters
   NAtoms,    NIC,     NZ,  NCons,   NDum,   NFix, NCnnct, MaxDiis
       12     104       0       0       0       0       0       0

 Cartesian Hessian Update
 Hessian Updated using BFGS Update


** GEOMETRY OPTIMIZATION IN DELOCALIZED INTERNAL COORDINATES **
   Searching for a Minimum

   Optimization Cycle:   5

                       Coordinates (Angstroms)
     ATOM                X               Y               Z
      1  Li        3.1346822208    0.0051277588   -0.0252424329
      2  C        -1.8580358055    0.7576247248   -0.0144670779
      3  O        -0.5081963672    1.1034097364    0.4544311817
      4  C        -1.8600553964   -0.7592572779    0.0105213177
      5  S         0.5229863426   -0.0020423094    0.0096923931
      6  O        -0.5043395021   -1.1114187403   -0.4349552828
      7  O         1.3454617246    0.3933802421   -1.1303728742
      8  O         1.3502203199   -0.3937076017    1.1459955288
      9  H        -2.5507566936    1.1976283789    0.6982001556
     10  H        -1.9860124968    1.1717434187   -1.0141022227
     11  H        -2.0033338506   -1.1619285351    1.0092134334
     12  H        -2.5441929569   -1.2004535335   -0.7095850089
   Point Group: c1    Number of degrees of freedom:    30


   Energy is   -784.934330448

 Hessian Updated using BFGS Update

 30 Hessian modes will be used to form the next step
  Hessian Eigenvalues:
     0.001898    0.006198    0.009032    0.010392    0.019588    0.039651
     0.041295    0.049487    0.060246    0.063722    0.071737    0.077374
     0.083257    0.093221    0.098191    0.102221    0.171032    0.204120
     0.231324    0.246426    0.251498    0.282890    0.330940    0.344798
     0.350107    0.362695    0.364060    0.534659    0.543973    1.308544

 Minimum Search - Taking Simple RFO Step
 Searching for Lamda that Minimizes Along All modes
 Value Taken    Lamda =  -0.00000919
 Step Taken.  Stepsize is  0.008867

                             Maximum     Tolerance    Cnvgd?
         Gradient           0.001182      0.000300      NO
         Displacement       0.004663      0.001200      NO
         Energy change     -0.000044      0.000001      NO


 New Cartesian Coordinates Obtained by Inverse Iteration

 Displacement from previous Coordinates is:  0.009322
 ----------------------------------------------------------------
             Standard Nuclear Orientation (Angstroms)
    I     Atom           X                Y                Z
 ----------------------------------------------------------------
    1      Li      3.1341055964     0.0032865466    -0.0256526538
    2      C      -1.8582113226     0.7575749055    -0.0148875280
    3      O      -0.5085101808     1.1037192250     0.4544935872
    4      C      -1.8595343366    -0.7592777623     0.0103861625
    5      S       0.5229894567    -0.0013666479     0.0096702684
    6      O      -0.5041241781    -1.1106497559    -0.4360668081
    7      O       1.3459232923     0.3958575578    -1.1294593492
    8      O       1.3498448810    -0.3950073887     1.1456587315
    9      H      -2.5513608280     1.1975859555     0.6973517560
   10      H      -1.9857320422     1.1713230966    -1.0146809628
   11      H      -2.0029969755    -1.1618421879     1.0116196965
   12      H      -2.5439658239    -1.2010972827    -0.7091037891
 ----------------------------------------------------------------
 Nuclear Repulsion Energy =   484.2056061509 hartrees
 There are       33 alpha and       33 beta electrons
 Discretize the solute cavity surface with Lebedev spheres
	Using 302 Lebedev grid points for each H atom
	Using 302 Lebedev grid points for other atoms
	Atomic van der Waals radii will be scaled by 1.20
 Removing interior tesserae...
 Keep 1150 surface tesserae and discard 2474 interior tesserae
 Molecular Surface Area = 164.626 Angst**2
 Nucleus-field energy     =     0.0000000004 hartrees
 Requested basis set is 6-31++G(d,p)
 There are 57 shells and 180 basis functions
 A cutoff of  1.0D-12 yielded   1573 shell pairs
 There are     16202 function pairs
 Smallest overlap matrix eigenvalue = 1.31E-04

 -----------------------------------------------------------------------
  General SCF calculation program by
  Eric Jon Sundstrom, Paul Horn, Yuezhi Mao, Dmitri Zuev, Alec White,
  David Stuck, Shaama M.S., Shane Yost, Joonho Lee, David Small,
  Daniel Levine, Susi Lehtola, Hugh Burton, Evgeny Epifanovsky
 -----------------------------------------------------------------------
 Exchange:     0.2220 Hartree-Fock + 1.0000 wB97X-D + LR-HF
 Correlation:  1.0000 wB97X-D
 Using SG-3 standard quadrature grid
 Dispersion:   Grimme D
 using 32 threads for integral computing
 -------------------------------------------------------
 OpenMP Integral computing Module                
 Release: version 1.0, May 2013, Q-Chem Inc. Pittsburgh 
 -------------------------------------------------------
 using 32 threads for integral computing
 -------------------------------------------------------
 OpenMP Integral computing Module                
 Release: version 1.0, May 2013, Q-Chem Inc. Pittsburgh 
 -------------------------------------------------------
 -------------------------------------------------------
 OpenMP BLAS3 based DFT computing Module                
 Release: version 1.0, May 2013, Q-Chem Inc. Pittsburgh 
 -------------------------------------------------------
 A restricted SCF calculation will be
 performed using DIIS, GDM
 SCF converges when RMS gradient is below 1.0e-08
 ---------------------------------------
  Cycle       Energy         DIIS error
 ---------------------------------------
    1    -784.9337125002      2.69e-05  
    2    -784.9337049187      6.28e-06  Done DIIS. Switching to GDM
 ---------------------------------------
  Cycle       Energy        RMS Gradient
 ---------------------------------------
    1    -784.9337049187      9.93e-05   Normal BFGS step
[...]
    I     Atom           X                Y                Z
 ----------------------------------------------------------------
    1      Li      3.1363248309     0.0204339684    -0.0854314542
    2      C      -1.8550148150     0.7574588382    -0.0166357913
    3      O      -0.5109658361     1.0979653044     0.4720945387
    4      C      -1.8631937726    -0.7594697741     0.0088339634
    5      S       0.5230183782    -0.0067313227     0.0318602857
    6      O      -0.5018942310    -1.1181541048    -0.4138509288
    7      O       1.3424977048     0.3905444236    -1.1114809438
    8      O       1.3515840613    -0.3951759689     1.1664567189
    9      H      -2.5566597853     1.2010870734     0.6849607822
   10      H      -1.9652995791     1.1721956793    -1.0182718757
   11      H      -2.0249748379    -1.1630190386     1.0040410558
   12      H      -2.5369945796    -1.1970288166    -0.7232472399
 ----------------------------------------------------------------
 Nuclear Repulsion Energy =   484.1595460300 hartrees
 There are       33 alpha and       33 beta electrons
 Discretize the solute cavity surface with Lebedev spheres
	Using 302 Lebedev grid points for each H atom
	Using 302 Lebedev grid points for other atoms
	Atomic van der Waals radii will be scaled by 1.20
 Removing interior tesserae...
 Keep 1147 surface tesserae and discard 2477 interior tesserae
 Molecular Surface Area = 164.475 Angst**2
 Nucleus-field energy     =     0.0000000004 hartrees
 Requested basis set is 6-31++G(d,p)
 There are 57 shells and 180 basis functions
 A cutoff of  1.0D-12 yielded   1574 shell pairs
 There are     16206 function pairs
 Smallest overlap matrix eigenvalue = 1.31E-04

 -----------------------------------------------------------------------
  General SCF calculation program by
  Eric Jon Sundstrom, Paul Horn, Yuezhi Mao, Dmitri Zuev, Alec White,
  David Stuck, Shaama M.S., Shane Yost, Joonho Lee, David Small,
  Daniel Levine, Susi Lehtola, Hugh Burton, Evgeny Epifanovsky
 -----------------------------------------------------------------------
 Exchange:     0.2220 Hartree-Fock + 1.0000 wB97X-D + LR-HF
 Correlation:  1.0000 wB97X-D
 Using SG-3 standard quadrature grid
 Dispersion:   Grimme D
 using 32 threads for integral computing
 -------------------------------------------------------
 OpenMP Integral computing Module                
 Release: version 1.0, May 2013, Q-Chem Inc. Pittsburgh 
 -------------------------------------------------------
 using 32 threads for integral computing
 -------------------------------------------------------
 OpenMP Integral computing Module                
 Release: version 1.0, May 2013, Q-Chem Inc. Pittsburgh 
 -------------------------------------------------------
 -------------------------------------------------------
 OpenMP BLAS3 based DFT computing Module                
 Release: version 1.0, May 2013, Q-Chem Inc. Pittsburgh 
 -------------------------------------------------------
 A restricted SCF calculation will be
 performed using DIIS, GDM
 SCF converges when RMS gradient is below 1.0e-08
 ---------------------------------------
  Cycle       Energy         DIIS error
 ---------------------------------------
    1    -784.9336541648      1.23e-05  
    2    -784.9336954534      5.77e-06  Done DIIS. Switching to GDM
 ---------------------------------------
  Cycle       Energy        RMS Gradient
 ---------------------------------------
    1    -784.9336954534      9.62e-05   Normal BFGS step
    2    -784.9336954271      1.51e-04   Normal BFGS step
    3    -784.9336955982      3.98e-06   Normal BFGS step
    4    -784.9336955993      1.44e-06   Normal BFGS step
    5    -784.9336955994      1.23e-06   Normal BFGS step
    6    -784.9336955994      5.31e-07   Normal BFGS step
    7    -784.9336955994      1.13e-07   Normal BFGS step
    8    -784.9336955994      7.81e-08   Normal BFGS step
    9    -784.9336955994      1.66e-08   Normal BFGS step
   10    -784.9336955994      8.06e-09  Convergence criterion met
 ---------------------------------------
 SCF time:   CPU 426.74s  wall 17.00s 
(0)  E-EN(g) gas-phase elect-nuc energy                    0.000000000 a.u.
(3)  G-ENP(liq) elect-nuc-pol free energy of system     -784.933695599 a.u.
(4)  G-CDS(liq) cavity-dispersion-solvent structure 
     free energy                                               -0.3980 kcal/mol
(6)  G-S(liq) free energy of system                     -784.934329903 a.u.
(9)  DeltaG-S(liq) free energy of  solvation
     (9) = (6) - (0)                                      -492553.7261 kcal/mol
 SCF   energy in the final basis set =     -784.9336955994
 Total energy in the final basis set =     -784.9343299030
 
 --------------------------------------------------------------
 
                    Orbital Energies (a.u.)
 --------------------------------------------------------------
 
 Alpha MOs
 -- Occupied --
-89.382 -19.389 -19.389 -19.346 -19.345 -10.399 -10.399  -8.366
 -6.318  -6.316  -6.315  -2.163  -1.354  -1.227  -1.208  -1.177
 -0.926  -0.814  -0.778  -0.678  -0.671  -0.637  -0.622  -0.593
 -0.571  -0.540  -0.523  -0.510  -0.489  -0.487  -0.485  -0.440
 -0.428
 -- Virtual --
  0.008   0.017   0.017   0.019   0.042   0.062   0.066   0.068
  0.070   0.086   0.089   0.090   0.093   0.115   0.122   0.133
  0.135   0.135   0.140   0.149   0.171   0.175   0.179   0.195
  0.203   0.204   0.212   0.215   0.216   0.220   0.239   0.247
  0.265   0.272   0.276   0.278   0.292   0.307   0.320   0.342
  0.346   0.351   0.354   0.364   0.383   0.393   0.404   0.405
  0.415   0.422   0.427   0.444   0.471   0.501   0.568   0.581
  0.610   0.644   0.665   0.675   0.684   0.732   0.743   0.764
  0.770   0.783   0.828   0.849   0.865   0.901   1.014   1.018
  1.062   1.103   1.114   1.132   1.143   1.173   1.183   1.238
  1.248   1.251   1.307   1.321   1.332   1.378   1.381   1.405
  1.409   1.425   1.447   1.489   1.493   1.522   1.584   1.642
  1.655   1.667   1.692   1.756   1.798   1.836   1.846   1.862
  1.904   1.914   1.958   1.983   1.987   2.000   2.034   2.062
  2.096   2.111   2.176   2.194   2.213   2.267   2.280   2.346
  2.392   2.411   2.509   2.601   2.641   2.648   2.667   2.741
  2.756   2.809   2.835   2.916   2.935   2.940   2.973   3.116
  3.375   3.395   3.533   3.593   4.063   4.211   4.294   4.309
  4.377   4.529   4.756
 --------------------------------------------------------------
 
          Ground-State Mulliken Net Atomic Charges

     Atom                 Charge (a.u.)
  ----------------------------------------
      1 Li                    0.770764
      2 C                    -0.150364
      3 O                    -0.531552
      4 C                    -0.150933
      5 S                     1.793563
      6 O                    -0.534374
      7 O                    -0.593699
      8 O                    -0.589012
      9 H                     0.255392
     10 H                     0.237665
     11 H                     0.238102
     12 H                     0.254448
  ----------------------------------------
  Sum of atomic charges =     1.000000

 -----------------------------------------------------------------
                    Cartesian Multipole Moments
 -----------------------------------------------------------------
    Charge (ESU x 10^10)
                 4.8032
    Dipole Moment (Debye)
         X       3.5130      Y       0.0914      Z      -0.4054
       Tot       3.5374
    Quadrupole Moments (Debye-Ang)
        XX       6.5682     XY       0.2627     YY     -46.1923
        XZ      -1.1454     YZ       0.3338     ZZ     -50.3675
    Octopole Moments (Debye-Ang^2)
       XXX     112.3609    XXY       1.0476    XYY      -2.2355
       YYY       0.7415    XXZ      -4.7786    XYZ       2.8787
       YYZ      -0.9855    XZZ      -6.5401    YZZ       0.1767
       ZZZ      -3.0101
    Hexadecapole Moments (Debye-Ang^3)
      XXXX       5.9550   XXXY       2.8078   XXYY     -97.3840
      XYYY      -0.1327   YYYY    -189.2151   XXXZ     -14.0761
      XXYZ       8.2312   XYYZ      -0.3368   YYYZ      -0.0821
      XXZZ    -110.3571   XYZZ       0.3384   YYZZ     -55.5050
      XZZZ      -1.5269   YZZZ       0.8974   ZZZZ    -161.6885
 -----------------------------------------------------------------
 Calculating analytic gradient of the SCF energy
 Gradient of CDS energy
            1           2           3           4           5           6
    1   0.0000599  -0.0004626   0.0001883  -0.0004327  -0.0000190   0.0001877
    2   0.0000001   0.0010642  -0.0001535  -0.0010743   0.0000114   0.0001569
    3  -0.0000011  -0.0000527  -0.0000853   0.0000836  -0.0000200   0.0000813
            7           8           9          10          11          12
    1  -0.0001297  -0.0001319   0.0001855   0.0002095   0.0001584   0.0001867
    2  -0.0000256   0.0000248  -0.0001068  -0.0001277   0.0001301   0.0001004
    3   0.0000943  -0.0000913   0.0000365   0.0000537  -0.0000727  -0.0000263
 Gradient of SCF Energy
            1           2           3           4           5           6
    1   0.0062739   0.0426017  -0.0265886   0.0437911  -0.0058302  -0.0259504
    2  -0.0001157  -0.0308811   0.0238330   0.0285385  -0.0001226  -0.0239212
    3  -0.0003147   0.0200847   0.0048670  -0.0157520  -0.0005276  -0.0055914
            7           8           9          10          11          12
    1   0.0198018   0.0203277  -0.0313810  -0.0055039  -0.0074097  -0.0301325
    2   0.0142098  -0.0140103   0.0171420   0.0140473  -0.0118469  -0.0168728
    3  -0.0408804   0.0421820   0.0296898  -0.0409532   0.0384075  -0.0312118
 Max gradient component =       4.379E-02
 RMS gradient           =       2.436E-02
 Computing VTN gradient.
 Updating gradient with PCM contributions...
 -- total gradient after adding PCM contribution --
---------------------------------------------------
  Atom         X              Y              Z     
---------------------------------------------------
   1       0.000011      -0.000045      -0.000062
   2      -0.000022      -0.000002       0.000050
   3      -0.000006      -0.000053       0.000102
   4       0.000006      -0.000032      -0.000066
   5      -0.000050       0.000039      -0.000010
   6       0.000011       0.000022      -0.000055
   7      -0.000004       0.000071       0.000040
   8       0.000025      -0.000049      -0.000031
   9       0.000010      -0.000038       0.000073
  10       0.000018       0.000074       0.000034
  11       0.000002      -0.000026      -0.000020
  12      -0.000001       0.000038      -0.000055
---------------------------------------------------
 Number of fixed atoms: 0
 Gradient time:  CPU 77.25 s  wall 3.52 s
 Geometry Optimization Parameters
   NAtoms,    NIC,     NZ,  NCons,   NDum,   NFix, NCnnct, MaxDiis
       12     104       0       0       0       0       0       0

 Cartesian Hessian Update
 Hessian Updated using BFGS Update


** GEOMETRY OPTIMIZATION IN DELOCALIZED INTERNAL COORDINATES **
   Searching for a Minimum

   Optimization Cycle:  20

                       Coordinates (Angstroms)
     ATOM                X               Y               Z
      1  Li        3.1363248309    0.0204339684   -0.0854314542
      2  C        -1.8550148150    0.7574588382   -0.0166357913
      3  O        -0.5109658361    1.0979653044    0.4720945387
      4  C        -1.8631937726   -0.7594697741    0.0088339634
      5  S         0.5230183782   -0.0067313227    0.0318602857
      6  O        -0.5018942310   -1.1181541048   -0.4138509288
      7  O         1.3424977048    0.3905444236   -1.1114809438
      8  O         1.3515840613   -0.3951759689    1.1664567189
      9  H        -2.5566597853    1.2010870734    0.6849607822
     10  H        -1.9652995791    1.1721956793   -1.0182718757
     11  H        -2.0249748379   -1.1630190386    1.0040410558
     12  H        -2.5369945796   -1.1970288166   -0.7232472399
   Point Group: c1    Number of degrees of freedom:    30


   Energy is   -784.934329903

 Hessian Updated using BFGS Update

 30 Hessian modes will be used to form the next step
  Hessian Eigenvalues:
     0.001352    0.006368    0.008903    0.010495    0.018015    0.040424
     0.043297    0.050625    0.059094    0.065262    0.071123    0.083266
     0.088456    0.096779    0.103970    0.115565    0.178166    0.219823
     0.234928    0.251457    0.262046    0.291283    0.331452    0.347593
     0.362523    0.364362    0.366239    0.535149    0.547134    1.739980

 Minimum Search - Taking Simple RFO Step
 Searching for Lamda that Minimizes Along All modes
 Value Taken    Lamda =  -0.00000115
 Step Taken.  Stepsize is  0.020627

                             Maximum     Tolerance    Cnvgd?
         Gradient           0.000088      0.000300     YES
         Displacement       0.014658      0.001200      NO
         Energy change     -0.000001      0.000001     YES


                       Distance Matrix (Angstroms)
             Li(  1)   C (  2)   O (  3)   C (  4)   S (  5)   O (  6)
   C (  2)  5.045930
   O (  3)  3.843779  1.470126
   C (  4)  5.060862  1.517164  2.343757
   S (  5)  2.616078  2.498275  1.575844  2.502230
   O (  6)  3.826340  2.346623  2.386664  1.469848  1.576187
   O (  7)  2.099423  3.399617  2.538402  3.585261  1.461713  2.482869
   O (  8)  2.219292  3.607014  2.486102  3.436218  1.457642  2.540758
   H (  9)  5.864940  1.086899  2.059323  2.186739  3.371911  3.287602
   H ( 10)  5.312562  1.089699  2.083696  2.190138  2.946926  2.784346
   H ( 11)  5.406156  2.181491  2.772587  1.086031  2.962162  2.081395
   H ( 12)  5.837429  2.187331  3.286432  1.086926  3.369076  2.059995
             O (  7)   O (  8)   H (  9)   H ( 10)   H ( 11)
   O (  8)  2.409655
   H (  9)  4.368937  4.249031
   H ( 10)  3.400175  4.269826  1.803204
   H ( 11)  4.269527  3.466571  2.444074  3.089747
   H ( 12)  4.209700  4.397157  2.781078  2.455015  1.801901
 
 Final energy is   -784.934329903025     


 ******************************
 **  OPTIMIZATION CONVERGED  **
 ******************************

                       Coordinates (Angstroms)
     ATOM                X               Y               Z
      1  Li        3.1363248309    0.0204339684   -0.0854314542
      2  C        -1.8550148150    0.7574588382   -0.0166357913
      3  O        -0.5109658361    1.0979653044    0.4720945387
      4  C        -1.8631937726   -0.7594697741    0.0088339634
      5  S         0.5230183782   -0.0067313227    0.0318602857
      6  O        -0.5018942310   -1.1181541048   -0.4138509288
      7  O         1.3424977048    0.3905444236   -1.1114809438
      8  O         1.3515840613   -0.3951759689    1.1664567189
      9  H        -2.5566597853    1.2010870734    0.6849607822
     10  H        -1.9652995791    1.1721956793   -1.0182718757
     11  H        -2.0249748379   -1.1630190386    1.0040410558
     12  H        -2.5369945796   -1.1970288166   -0.7232472399

Z-matrix Print:
$molecule
1 1
S 
O  1 1.457642
O  1 1.461713 2 111.259473
O  1 1.575844 2 110.019203 3 -126.428561 0
C  4 1.470126 1 110.159549 2 -132.752519 0
H  5 1.086899 4 106.323321 1 151.693278 0
H  5 1.089699 4 108.056188 1 -88.048392 0
C  5 1.517164 4 103.351768 1 32.272018 0
H  8 1.086031 5 112.812145 4 78.948710 0
H  8 1.086926 5 113.237153 4 -152.467572 0
O  8 1.469848 5 103.542687 4 -37.675560 0
Li 3 2.099423 1 92.798800 2 0.581542 0
$end

 
 --------------------------------------------------------------
 
                    Orbital Energies (a.u.)
 --------------------------------------------------------------
 
 Alpha MOs
 -- Occupied --
-89.382 -19.389 -19.389 -19.346 -19.345 -10.399 -10.399  -8.366
 -6.318  -6.316  -6.315  -2.163  -1.354  -1.227  -1.208  -1.177
 -0.926  -0.814  -0.778  -0.678  -0.671  -0.637  -0.622  -0.593
 -0.571  -0.540  -0.523  -0.510  -0.489  -0.487  -0.485  -0.440
 -0.428
 -- Virtual --
  0.008   0.017   0.017   0.019   0.042   0.062   0.066   0.068
  0.070   0.086   0.089   0.090   0.093   0.115   0.122   0.133
  0.135   0.135   0.140   0.149   0.171   0.175   0.179   0.195
  0.203   0.204   0.212   0.215   0.216   0.220   0.239   0.247
  0.265   0.272   0.276   0.278   0.292   0.307   0.320   0.342
  0.346   0.351   0.354   0.364   0.383   0.393   0.404   0.405
  0.415   0.422   0.427   0.444   0.471   0.501   0.568   0.581
  0.610   0.644   0.665   0.675   0.684   0.732   0.743   0.764
  0.770   0.783   0.828   0.849   0.865   0.901   1.014   1.018
  1.062   1.103   1.114   1.132   1.143   1.173   1.183   1.238
  1.248   1.251   1.307   1.321   1.332   1.378   1.381   1.405
  1.409   1.425   1.447   1.489   1.493   1.522   1.584   1.642
  1.655   1.667   1.692   1.756   1.798   1.836   1.846   1.862
  1.904   1.914   1.958   1.983   1.987   2.000   2.034   2.062
  2.096   2.111   2.176   2.194   2.213   2.267   2.280   2.346
  2.392   2.411   2.509   2.601   2.641   2.648   2.667   2.741
  2.756   2.809   2.835   2.916   2.935   2.940   2.973   3.116
  3.375   3.395   3.533   3.593   4.063   4.211   4.294   4.309
  4.377   4.529   4.756
 --------------------------------------------------------------
 
          Ground-State Mulliken Net Atomic Charges

     Atom                 Charge (a.u.)
  ----------------------------------------
      1 Li                    0.770764
      2 C                    -0.150364
      3 O                    -0.531552
      4 C                    -0.150933
      5 S                     1.793563
      6 O                    -0.534374
      7 O                    -0.593699
      8 O                    -0.589012
      9 H                     0.255392
     10 H                     0.237665
     11 H                     0.238102
     12 H                     0.254448
  ----------------------------------------
  Sum of atomic charges =     1.000000

 -----------------------------------------------------------------
                    Cartesian Multipole Moments
 -----------------------------------------------------------------
    Charge (ESU x 10^10)
                 4.8032
    Dipole Moment (Debye)
         X       3.5130      Y       0.0914      Z      -0.4054
       Tot       3.5374
    Quadrupole Moments (Debye-Ang)
        XX       6.5682     XY       0.2627     YY     -46.1923
        XZ      -1.1454     YZ       0.3338     ZZ     -50.3675
    Octopole Moments (Debye-Ang^2)
       XXX     112.3609    XXY       1.0476    XYY      -2.2355
       YYY       0.7415    XXZ      -4.7786    XYZ       2.8787
       YYZ      -0.9855    XZZ      -6.5401    YZZ       0.1767
       ZZZ      -3.0101
    Hexadecapole Moments (Debye-Ang^3)
      XXXX       5.9550   XXXY       2.8078   XXYY     -97.3840
      XYYY      -0.1327   YYYY    -189.2151   XXXZ     -14.0761
      XXYZ       8.2312   XYYZ      -0.3368   YYYZ      -0.0821
      XXZZ    -110.3571   XYZZ       0.3384   YYZZ     -55.5050
      XZZZ      -1.5269   YZZZ       0.8974   ZZZZ    -161.6885
 -----------------------------------------------------------------
Archival summary:
1\1\nid01014\OPT\ProcedureUnspecified\BasisUnspecified\142i14(1+,1)\sblau\FriDec2813:05:252018FriDec2813:05:252018\0\\#,OPT,ProcedureUnspecified,BasisUnspecified,\\1,1\S\O,1,1.45764\O,1,1.46171,2,111.259\O,1,1.57584,2,110.019,3,-126.429,0\C,4,1.47013,1,110.16,2,-132.753,0\H,5,1.0869,4,106.323,1,151.693,0\H,5,1.0897,4,108.056,1,-88.0484,0\C,5,1.51716,4,103.352,1,32.272,0\H,8,1.08603,5,112.812,4,78.9487,0\H,8,1.08693,5,113.237,4,-152.468,0\O,8,1.46985,5,103.543,4,-37.6756,0\Li,3,2.09942,1,92.7988,2,0.581542,0\\\@

 Total job time:  493.14s(wall), 12442.52s(cpu) 
 Fri Dec 28 13:05:25 2018

        *************************************************************
        *                                                           *
        *  Thank you very much for using Q-Chem.  Have a nice day.  *
        *                                                           *
        *************************************************************


