
Running Job 1 of 1 mol.qin
qchem mol.qin_25377.0 /tmp/chain_scratch/ 1
/global/common/cori/software/qchem/5.1/exe/qcprog.exe mol.qin_25377.0 /tmp/chain_scratch/
Check license passed

                  Welcome to Q-Chem
     A Quantum Leap Into The Future Of Chemistry


 Q-Chem 5.1, Q-Chem, Inc., Pleasanton, CA (2018)

 Yihan Shao,  Zhengting Gan,  E. Epifanovsky,  A. T. B. Gilbert,  M. Wormit,  
 J. Kussmann,  A. W. Lange,  A. Behn,  Jia Deng,  Xintian Feng,  D. Ghosh,  
 M. Goldey,  P. R. Horn,  L. D. Jacobson,  I. Kaliman,  T. Kus,  A. Landau,  
 Jie Liu,  E. I. Proynov,  R. M. Richard,  R. P. Steele,  E. J. Sundstrom,  
 H. L. Woodcock III,  P. M. Zimmerman,  D. Zuev,  B. Albrecht,  E. Alguire,  
 S. A. Baeppler,  D. Barton,  Z. Benda,  Y. A. Bernard,  E. J. Berquist,  
 K. B. Bravaya,  H. Burton,  D. Casanova,  Chun-Min Chang,  Yunqing Chen,  
 A. Chien,  K. D. Closser,  M. P. Coons,  S. Coriani,  S. Dasgupta,  
 A. L. Dempwolff,  M. Diedenhofen,  Hainam Do,  R. G. Edgar,  Po-Tung Fang,  
 S. Faraji,  S. Fatehi,  Qingguo Feng,  K. D. Fenk,  J. Fosso-Tande,  
 Qinghui Ge,  A. Ghysels,  G. Gidofalvi,  J. Gomes,  J. Gonthier,  A. Gunina,  
 D. Hait,  M. W. D. Hanson-Heine,  P. H. P. Harbach,  A. W. Hauser,  
 J. E. Herr,  E. G. Hohenstein,  Z. C. Holden,  Kerwin Hui,  B. C. Huynh,  
 T.-C. Jagau,  Hyunjun Ji,  B. Kaduk,  K. Khistyaev,  Jaehoon Kim,  
 P. Klunzinger,  K. Koh,  D. Kosenkov,  L. Koulias,  T. Kowalczyk,  
 C. M. Krauter,  A. Kunitsa,  Ka Un Lao,  A. Laurent,  K. V. Lawler,  
 Joonho Lee,  D. Lefrancois,  S. Lehtola,  D. S. Levine,  Yi-Pei Li,  
 You-Sheng Lin,  Fenglai Liu,  E. Livshits,  A. Luenser,  P. Manohar,  
 E. Mansoor,  S. F. Manzer,  Shan-Ping Mao,  Yuezhi Mao,  N. Mardirossian,  
 A. V. Marenich,  T. Markovich,  L. A. Martinez-Martinez,  S. A. Maurer,  
 N. J. Mayhall,  S. C. McKenzie,  J.-M. Mewes,  A. F. Morrison,  
 J. W. Mullinax,  K. Nanda,  T. S. Nguyen-Beck,  R. Olivares-Amaya,  
 J. A. Parkhill,  T. M. Perrine,  F. Plasser,  P. Pokhilko,  S. Prager,  
 A. Prociuk,  E. Ramos,  D. R. Rehn,  F. Rob,  M. Schneider,  N. Sergueev,  
 S. M. Sharada,  S. Sharma,  D. W. Small,  T. Stauch,  T. Stein,  
 Yu-Chuan Su,  A. J. W. Thom,  A. Tkatchenko,  T. Tsuchimochi,  N. M. Tubman,  
 L. Vogt,  M. L. Vidal,  O. Vydrov,  M. A. Watson,  J. Wenzel,  
 M. de Wergifosse,  T. A. Wesolowski,  A. White,  J. Witte,  A. Yamada,  
 Jun Yang,  K. Yao,  S. Yeganeh,  S. R. Yost,  Zhi-Qiang You,  A. Zech,  
 Igor Ying Zhang,  Xing Zhang,  Yan Zhao,  Ying Zhu,  B. R. Brooks,  
 G. K. L. Chan,  C. J. Cramer,  M. S. Gordon,  W. J. Hehre,  A. Klamt,  
 M. W. Schmidt,  C. D. Sherrill,  D. G. Truhlar,  A. Aspuru-Guzik,  R. Baer,  
 A. T. Bell,  N. A. Besley,  Jeng-Da Chai,  R. A. DiStasio Jr.,  A. Dreuw,  
 B. D. Dunietz,  T. R. Furlani,  Chao-Ping Hsu,  Yousung Jung,  Jing Kong,  
 D. S. Lambrecht,  WanZhen Liang,  C. Ochsenfeld,  V. A. Rassolov,  
 L. V. Slipchenko,  J. E. Subotnik,  T. Van Voorhis,  J. M. Herbert,  
 A. I. Krylov,  P. M. W. Gill,  M. Head-Gordon

 Contributors to earlier versions of Q-Chem not listed above: 
 R. D. Adamson,  B. Austin,  J. Baker,  G. J. O. Beran,  K. Brandhorst,  
 S. T. Brown,  E. F. C. Byrd,  A. K. Chakraborty,  C.-L. Cheng,  
 Siu Hung Chien,  D. M. Chipman,  D. L. Crittenden,  H. Dachsel,  
 R. J. Doerksen,  A. D. Dutoi,  L. Fusti-Molnar,  W. A. Goddard III,  
 A. Golubeva-Zadorozhnaya,  S. R. Gwaltney,  G. Hawkins,  A. Heyden,  
 S. Hirata,  G. Kedziora,  F. J. Keil,  C. Kelley,  Jihan Kim,  R. A. King,  
 R. Z. Khaliullin,  P. P. Korambath,  W. Kurlancheek,  A. M. Lee,  M. S. Lee,  
 S. V. Levchenko,  Ching Yeh Lin,  D. Liotard,  R. C. Lochan,  I. Lotan,  
 P. E. Maslen,  N. Nair,  D. P. O'Neill,  D. Neuhauser,  E. Neuscamman,  
 C. M. Oana,  R. Olson,  B. Peters,  R. Peverati,  P. A. Pieniazek,  
 Y. M. Rhee,  J. Ritchie,  M. A. Rohrdanz,  E. Rosta,  N. J. Russ,  
 H. F. Schaefer III,  N. E. Schultz,  N. Shenvi,  A. C. Simmonett,  A. Sodt,  
 D. Stuck,  K. S. Thanthiriwatte,  V. Vanovschi,  Tao Wang,  A. Warshel,  
 C. F. Williams,  Q. Wu,  X. Xu,  W. Zhang

 Please cite Q-Chem as follows:
 Y. Shao et al., Mol. Phys. 113, 184-215 (2015)
 DOI: 10.1080/00268976.2014.952696

 Q-Chem 5.1.0 for Intel X86 EM64T Linux

 Parts of Q-Chem use Armadillo 8.300.2 (Tropical Shenanigans).
 http://arma.sourceforge.net/

 Q-Chem begins on Fri Dec 28 17:13:08 2018  

Host: cori08
0

     Scratch files written to /tmp/chain_scratch//
 Jun2518 |scratch|qcdevops|jenkins|workspace|build_RNUM -1
Processing $rem in /global/common/cori/software/qchem/5.1/config/preferences.
 MEM_TOTAL  96000 
The previous job contains 0 fragments, simply inherited here
Symmetry turned off for PCM/SM12/SMD calculation

Checking the input file for inconsistencies... 	...done.

--------------------------------------------------------------
User input:
--------------------------------------------------------------
$molecule
read
$end

$rem
job_type = freq
basis = 6-31++g**
max_scf_cycles = 200
gen_scfman = true
xc_grid = 3
scf_algorithm = diis_gdm
method = wb97xd
geom_opt_max_cycles = 200
solvent_method = smd
ideriv = 1
scf_guess = read
$end

$smx
solvent acetonitrile
$end
--------------------------------------------------------------
 ----------------------------------------------------------------
             Standard Nuclear Orientation (Angstroms)
    I     Atom           X                Y                Z
 ----------------------------------------------------------------
    1      Li      3.1371203112     0.0394016823    -0.0978027054
    2      C      -1.8531765649     0.7562423702    -0.0172320906
    3      O      -0.5140025809     1.0889770017     0.4908754598
    4      C      -1.8654066493    -0.7604552786     0.0020048718
    5      S       0.5218835662    -0.0106646945     0.0420427380
    6      O      -0.5017897691    -1.1197094821    -0.4131465849
    7      O       1.3395174445     0.3983297074    -1.0990645032
    8      O       1.3512782765    -0.4071415222     1.1725062341
    9      H      -2.5622474970     1.1992891385     0.6771967296
   10      H      -1.9468667680     1.1758687226    -1.0176150558
   11      H      -2.0322879030    -1.1657172014     0.9951036390
   12      H      -2.5355943273    -1.1943141826    -0.7355396215
 ----------------------------------------------------------------
 Nuclear Repulsion Energy =   484.1809085600 hartrees
 There are       33 alpha and       33 beta electrons
 Requested basis set is 6-31++G(d,p)
 There are 57 shells and 180 basis functions

 Total QAlloc Memory Limit  96000 MB
 Mega-Array Size       188 MB
 MEM_STATIC part       192 MB

                       Distance Matrix (Angstroms)
             Li(  1)   C (  2)   O (  3)   C (  4)   S (  5)   O (  6)
   C (  2)  5.042164
   O (  3)  3.844327  1.470467
   C (  4)  5.067051  1.516869  2.342154
   S (  5)  2.619452  2.496512  1.575983  2.502587
   O (  6)  3.832055  2.345675  2.386567  1.469988  1.576415
   O (  7)  2.088715  3.389950  2.537802  3.581435  1.462165  2.483010
   O (  8)  2.236586  3.610744  2.486416  3.441216  1.457065  2.540848
   H (  9)  5.867602  1.086878  2.059658  2.186794  3.373318  3.288174
   H ( 10)  5.290041  1.088866  2.082353  2.189888  2.936914  2.779084
   H ( 11)  5.419367  2.179641  2.764613  1.085510  2.960788  2.080315
   H ( 12)  5.840244  2.187768  3.286996  1.086902  3.369545  2.060549
             O (  7)   O (  8)   H (  9)   H ( 10)   H ( 11)
   O (  8)  2.410178
   H (  9)  4.361239  4.259300
   H ( 10)  3.378094  4.263838  1.803227
   H ( 11)  4.266246  3.472093  2.444418  3.088909
   H ( 12)  4.205372  4.400916  2.779545  2.458441  1.802571
 
 A cutoff of  1.0D-12 yielded   1574 shell pairs
 There are     16206 function pairs
 
 -------------------------------------------------------
 OpenMP Integral Computing Module                       
 Release: version 1.0, May 2013, Q-Chem Inc. Pittsburgh 
 -------------------------------------------------------
 Integral Job Info:
 Integral job number is                      11
 Integral operator is                         1
 short-range coefficients              22203600
 long-range coefficients              100000000
 Omega coefficients                         200
 if combine SR and LR in K                    1
 Integral screening is                        0
 Integral computing path is                   2
 max size of driver memory is            800000
 size of driver memory is                593474
 size of scratch memory is             15604072
 max col of scratch BK array               1296
 max len of scratch array in speh3          155
 max len of scratch index in speh4           18
 max int batch size is                      520
 min int batch size is                       52
 fixed nKL is                                52
 max L of basis functions is                  2
 order of int derivative is                   0
 number of shells is                         57
 number of basis is                         180
 number of cartesian basis is               180
 number of contracted shell pairs          1574
 number of primitive shell pairs           5389
 maxK2 (contraction) of shell pair           36
 max number of K2 of shell pair               1
 max number of CS2 of shell pair            176
 max number of PS2 of shell pair           1056
 mem total for path MDJ                  537180
 -------------------------------------------------------
 Smallest overlap matrix eigenvalue = 1.31E-04

 -----------------------------------------------------------------------
  General SCF calculation program by
  Eric Jon Sundstrom, Paul Horn, Yuezhi Mao, Dmitri Zuev, Alec White,
  David Stuck, Shaama M.S., Shane Yost, Joonho Lee, David Small,
  Daniel Levine, Susi Lehtola, Hugh Burton, Evgeny Epifanovsky
 -----------------------------------------------------------------------
 Exchange:     0.2220 Hartree-Fock + 1.0000 wB97X-D + LR-HF
 Correlation:  1.0000 wB97X-D
 Using SG-3 standard quadrature grid
 Dispersion:   Grimme D
 
 Citation of the SMD model:
 Marenich, A.V.; Cramer, C.J.; Truhlar, D.G.
 J. Phys. Chem. B 2009, 113, 6378-6396.
 iSolventCode=          53
 Solvent: acetonitrile                                                    
 
 vradii
            1           2           3           4           5           6
    1   2.1476001   1.8500000   2.1680000   1.8500000   2.4900000   2.1680000
            7           8           9          10          11          12
    1   2.1680000   2.1680000   1.2000000   1.2000000   1.2000000   1.2000000
Changing PCM_TESSEL_METHOD to VTN
Changing PCM_VDW_RADII to SMD_RADIUS
 Discretize the solute cavity surface with Lebedev spheres
	Using 302 Lebedev grid points for each H atom
	Using 302 Lebedev grid points for other atoms
	Atomic van der Waals radii will be scaled by 1.20
 Removing interior tesserae...
 Keep 1146 surface tesserae and discard 2478 interior tesserae
 Molecular Surface Area = 164.426 Angst**2
 
 Citation of the SMD model:
 Marenich, A.V.; Cramer, C.J.; Truhlar, D.G.
 J. Phys. Chem. B 2009, 113, 6378-6396.
 iSolventCode=          53
 Solvent: acetonitrile                                                    
 
 vradii
            1           2           3           4           5           6
    1   2.1476001   1.8500000   2.1680000   1.8500000   2.4900000   2.1680000
            7           8           9          10          11          12
    1   2.1680000   2.1680000   1.2000000   1.2000000   1.2000000   1.2000000
 using 32 threads for integral computing
 -------------------------------------------------------
 OpenMP Integral computing Module                
 Release: version 1.0, May 2013, Q-Chem Inc. Pittsburgh 
 -------------------------------------------------------
 using 32 threads for integral computing
 -------------------------------------------------------
 OpenMP Integral computing Module                
 Release: version 1.0, May 2013, Q-Chem Inc. Pittsburgh 
 -------------------------------------------------------
 -------------------------------------------------------
 OpenMP BLAS3 based DFT computing Module                
 Release: version 1.0, May 2013, Q-Chem Inc. Pittsburgh 
 -------------------------------------------------------
 A restricted SCF calculation will be
 performed using DIIS, GDM
 SCF converges when RMS gradient is below 1.0e-08
 ---------------------------------------
  Cycle       Energy         DIIS error
 ---------------------------------------
    1    -784.8384737028      4.04e-04  
    2    -784.9323264749      4.43e-04  Done DIIS. Switching to GDM
 ---------------------------------------
  Cycle       Energy        RMS Gradient
 ---------------------------------------
    1    -784.9323264749      6.44e-03   Normal BFGS step
    2    -784.9332984505      2.93e-03   Normal BFGS step
    3    -784.9335375317      1.17e-03   Normal BFGS step
    4    -784.9335777016      5.92e-04   Normal BFGS step
    5    -784.9335821572      2.94e-04   Normal BFGS step
    6    -784.9335836911      1.07e-04   Normal BFGS step
    7    -784.9335838716      5.67e-05   Normal BFGS step
    8    -784.9335839266      9.05e-06   Normal BFGS step
    9    -784.9335839287      7.97e-06   Normal BFGS step
   10    -784.9335839293      2.82e-06   Normal BFGS step
   11    -784.9335839295      8.67e-07   Normal BFGS step
   12    -784.9335839295      1.43e-07   Normal BFGS step
   13    -784.9335839295      3.42e-08   Normal BFGS step
   14    -784.9335839295      9.99e-09  Convergence criterion met
 ---------------------------------------
 SCF time:   CPU 579.22s  wall 22.00s 
(0)  E-EN(g) gas-phase elect-nuc energy                    0.000000000 a.u.
(3)  G-ENP(liq) elect-nuc-pol free energy of system     -784.933583930 a.u.
(4)  G-CDS(liq) cavity-dispersion-solvent structure 
     free energy                                               -0.3957 kcal/mol
(6)  G-S(liq) free energy of system                     -784.934214511 a.u.
(9)  DeltaG-S(liq) free energy of  solvation
     (9) = (6) - (0)                                      -492553.6537 kcal/mol
 SCF   energy in the final basis set =     -784.9335839295
 Total energy in the final basis set =     -784.9342145107
 
 --------------------------------------------------------------
 
                    Orbital Energies (a.u.)
 --------------------------------------------------------------
 
 Alpha MOs
 -- Occupied --
-89.382 -19.389 -19.389 -19.346 -19.345 -10.399 -10.399  -8.366
 -6.318  -6.316  -6.315  -2.164  -1.354  -1.227  -1.207  -1.177
 -0.926  -0.814  -0.778  -0.678  -0.671  -0.637  -0.622  -0.593
 -0.571  -0.540  -0.523  -0.510  -0.490  -0.487  -0.485  -0.440
 -0.428
 -- Virtual --
  0.008   0.017   0.017   0.019   0.042   0.062   0.066   0.068
  0.070   0.085   0.089   0.089   0.093   0.115   0.122   0.133
  0.135   0.135   0.140   0.149   0.171   0.175   0.179   0.195
  0.203   0.204   0.212   0.216   0.216   0.220   0.239   0.247
  0.264   0.273   0.276   0.278   0.292   0.307   0.321   0.342
  0.346   0.351   0.354   0.365   0.383   0.393   0.404   0.405
  0.415   0.422   0.427   0.444   0.471   0.501   0.567   0.581
  0.610   0.644   0.665   0.675   0.684   0.731   0.744   0.764
  0.769   0.784   0.827   0.849   0.865   0.901   1.013   1.018
  1.062   1.103   1.114   1.133   1.142   1.171   1.185   1.238
  1.248   1.251   1.307   1.321   1.332   1.377   1.382   1.405
  1.409   1.424   1.448   1.489   1.493   1.522   1.583   1.642
  1.655   1.667   1.691   1.755   1.798   1.834   1.846   1.861
  1.904   1.914   1.959   1.983   1.986   2.001   2.033   2.063
  2.098   2.113   2.176   2.193   2.214   2.267   2.279   2.346
  2.391   2.411   2.508   2.601   2.642   2.648   2.667   2.740
  2.757   2.810   2.835   2.916   2.935   2.941   2.973   3.116
  3.377   3.395   3.535   3.592   4.063   4.212   4.295   4.308
  4.378   4.530   4.757
 --------------------------------------------------------------
 
          Ground-State Mulliken Net Atomic Charges

     Atom                 Charge (a.u.)
  ----------------------------------------
      1 Li                    0.771569
      2 C                    -0.150750
      3 O                    -0.530582
      4 C                    -0.148835
      5 S                     1.789949
      6 O                    -0.535265
      7 O                    -0.593935
      8 O                    -0.588265
      9 H                     0.256081
     10 H                     0.237595
     11 H                     0.237489
     12 H                     0.254949
  ----------------------------------------
  Sum of atomic charges =     1.000000

 -----------------------------------------------------------------
                    Cartesian Multipole Moments
 -----------------------------------------------------------------
    Charge (ESU x 10^10)
                 4.8032
    Dipole Moment (Debye)
         X       3.5261      Y       0.1749      Z      -0.4932
       Tot       3.5647
    Quadrupole Moments (Debye-Ang)
        XX       6.6236     XY       0.5282     YY     -46.1954
        XZ      -1.2950     YZ       0.3545     ZZ     -50.3538
    Octopole Moments (Debye-Ang^2)
       XXX     112.6089    XXY       2.0028    XYY      -2.2305
       YYY       1.1728    XXZ      -5.6802    XYZ       2.8781
       YYZ      -1.3043    XZZ      -6.3736    YZZ       0.2947
       ZZZ      -3.9929
    Hexadecapole Moments (Debye-Ang^3)
      XXXX       7.1376   XXXY       5.4740   XXYY     -97.3459
      XYYY      -0.2735   YYYY    -189.2051   XXXZ     -16.6426
      XXYZ       8.3143   XYYZ      -0.5209   YYYZ      -0.0859
      XXZZ    -110.1450   XYZZ       0.4616   YYZZ     -55.5699
      XZZZ      -2.2531   YZZZ       0.9564   ZZZZ    -161.8012
 -----------------------------------------------------------------
 Calculating analytic gradient of the SCF energy
 Gradient of CDS energy
            1           2           3           4           5           6
    1   0.0000589  -0.0004744   0.0001895  -0.0004526  -0.0000279   0.0001871
    2   0.0000023   0.0010606  -0.0001524  -0.0010674   0.0000147   0.0001544
    3  -0.0000075  -0.0000454  -0.0000860   0.0000536  -0.0000255   0.0000893
            7           8           9          10          11          12
    1  -0.0001265  -0.0001337   0.0001843   0.0002308   0.0001766   0.0001877
    2  -0.0000279   0.0000240  -0.0001062  -0.0001251   0.0001287   0.0000944
    3   0.0000974  -0.0000882   0.0000387   0.0000558  -0.0000646  -0.0000176
 Gradient of SCF Energy
            1           2           3           4           5           6
    1   0.0063563   0.0419834  -0.0266250   0.0436960  -0.0060335  -0.0260976
    2   0.0000385  -0.0309187   0.0237692   0.0279225  -0.0003198  -0.0236864
    3  -0.0003308   0.0200364   0.0048450  -0.0150810  -0.0005009  -0.0057339
            7           8           9          10          11          12
    1   0.0197518   0.0203896  -0.0317523  -0.0044325  -0.0072733  -0.0299630
    2   0.0145670  -0.0143671   0.0171123   0.0141081  -0.0115345  -0.0166910
    3  -0.0405729   0.0419279   0.0294549  -0.0404474   0.0379360  -0.0315334
 Max gradient component =       4.370E-02
 RMS gradient           =       2.423E-02
 Computing VTN gradient.
 Updating gradient with PCM contributions...
 -- total gradient after adding PCM contribution --
---------------------------------------------------
  Atom         X              Y              Z     
---------------------------------------------------
   1      -0.000011       0.000087      -0.000011
   2       0.000013      -0.000004       0.000068
   3      -0.000012      -0.000038       0.000091
   4      -0.000010      -0.000009      -0.000075
   5       0.000059      -0.000042      -0.000014
   6      -0.000015       0.000029      -0.000092
   7      -0.000025       0.000095      -0.000000
   8      -0.000005      -0.000102      -0.000067
   9       0.000001      -0.000067       0.000124
  10      -0.000035       0.000080       0.000118
  11       0.000045      -0.000082      -0.000069
  12      -0.000005       0.000051      -0.000074
---------------------------------------------------
 Number of fixed atoms: 0
 Gradient time:  CPU 77.39 s  wall 3.77 s
 ######################################################
 ######################################################
 # Starting finite difference calculation for IDERIV  #
 Finite diff step size:  1.88973e-03 a.u.
 ----------------------------------------------------------------
             Standard Nuclear Orientation (Angstroms)
    I     Atom           X                Y                Z
 ----------------------------------------------------------------
    1      Li      3.1381203112     0.0394016823    -0.0978027054
    2      C      -1.8531765649     0.7562423702    -0.0172320906
    3      O      -0.5140025809     1.0889770017     0.4908754598
    4      C      -1.8654066493    -0.7604552786     0.0020048718
    5      S       0.5218835662    -0.0106646945     0.0420427380
    6      O      -0.5017897691    -1.1197094821    -0.4131465849
    7      O       1.3395174445     0.3983297074    -1.0990645032
    8      O       1.3512782765    -0.4071415222     1.1725062341
    9      H      -2.5622474970     1.1992891385     0.6771967296
   10      H      -1.9468667680     1.1758687226    -1.0176150558
   11      H      -2.0322879030    -1.1657172014     0.9951036390
   12      H      -2.5355943273    -1.1943141826    -0.7355396215
 ----------------------------------------------------------------
 Nuclear Repulsion Energy =   484.1701105516 hartrees
 There are       33 alpha and       33 beta electrons
 Discretize the solute cavity surface with Lebedev spheres
	Using 302 Lebedev grid points for each H atom
	Using 302 Lebedev grid points for other atoms
	Atomic van der Waals radii will be scaled by 1.20
 Removing interior tesserae...
 Keep 1146 surface tesserae and discard 2478 interior tesserae
 Molecular Surface Area = 164.426 Angst**2

                       Distance Matrix (Angstroms)
             Li(  1)   C (  2)   O (  3)   C (  4)   S (  5)   O (  6)
   C (  2)  5.043153
   O (  3)  3.845277  1.470467
   C (  4)  5.068039  1.516869  2.342154
   S (  5)  2.620450  2.496512  1.575983  2.502587
   O (  6)  3.833005  2.345675  2.386567  1.469988  1.576415
   O (  7)  2.089576  3.389950  2.537802  3.581435  1.462165  2.483010
   O (  8)  2.237385  3.610744  2.486416  3.441216  1.457065  2.540848
   H (  9)  5.868574  1.086878  2.059658  2.186794  3.373318  3.288174
   H ( 10)  5.291002  1.088866  2.082353  2.189888  2.936914  2.779084
   H ( 11)  5.420321  2.179641  2.764613  1.085510  2.960788  2.080315
   H ( 12)  5.841216  2.187768  3.286996  1.086902  3.369545  2.060549
             O (  7)   O (  8)   H (  9)   H ( 10)   H ( 11)
   O (  8)  2.410178
   H (  9)  4.361239  4.259300
   H ( 10)  3.378094  4.263838  1.803227
   H ( 11)  4.266246  3.472093  2.444418  3.088909
   H ( 12)  4.205372  4.400916  2.779545  2.458441  1.802571
 
 Requested basis set is 6-31++G(d,p)
 There are 57 shells and 180 basis functions
 A cutoff of  1.0D-12 yielded   1574 shell pairs
 There are     16206 function pairs
 Smallest overlap matrix eigenvalue = 1.31E-04

 -----------------------------------------------------------------------
  General SCF calculation program by
  Eric Jon Sundstrom, Paul Horn, Yuezhi Mao, Dmitri Zuev, Alec White,
  David Stuck, Shaama M.S., Shane Yost, Joonho Lee, David Small,
  Daniel Levine, Susi Lehtola, Hugh Burton, Evgeny Epifanovsky
 -----------------------------------------------------------------------
 Exchange:     0.2220 Hartree-Fock + 1.0000 wB97X-D + LR-HF
 Correlation:  1.0000 wB97X-D
 Using SG-3 standard quadrature grid
 Dispersion:   Grimme D
 using 32 threads for integral computing
 -------------------------------------------------------
 OpenMP Integral computing Module                
 Release: version 1.0, May 2013, Q-Chem Inc. Pittsburgh 
 -------------------------------------------------------
 using 32 threads for integral computing
 -------------------------------------------------------
 OpenMP Integral computing Module                
 Release: version 1.0, May 2013, Q-Chem Inc. Pittsburgh 
 -------------------------------------------------------
 -------------------------------------------------------
 OpenMP BLAS3 based DFT computing Module                
 Release: version 1.0, May 2013, Q-Chem Inc. Pittsburgh 
 -------------------------------------------------------
 A restricted SCF calculation will be
 performed using DIIS, GDM
 SCF converges when RMS gradient is below 1.0e-08
 ---------------------------------------
  Cycle       Energy         DIIS error
 ---------------------------------------
    1    -784.9335447999      1.99e-06  
    2    -784.9335840111      6.70e-07  Done DIIS. Switching to GDM
 ---------------------------------------
  Cycle       Energy        RMS Gradient
 ---------------------------------------
    1    -784.9335840111      8.40e-06   Normal BFGS step
    2    -784.9335840117      1.04e-05   Normal BFGS step
    3    -784.9335840130      1.19e-06   Normal BFGS step
    4    -784.9335840130      9.67e-07   Normal BFGS step
    5    -784.9335840130      1.71e-07   Normal BFGS step
    6    -784.9335840130      1.61e-07   Normal BFGS step
    7    -784.9335840130      2.96e-08   Normal BFGS step
    8    -784.9335840130      1.74e-08   Normal BFGS step
    9    -784.9335840130      3.01e-09  Convergence criterion met
 ---------------------------------------
 SCF time:   CPU 389.78s  wall 14.00s 
(0)  E-EN(g) gas-phase elect-nuc energy                    0.000000000 a.u.
(3)  G-ENP(liq) elect-nuc-pol free energy of system     -784.933584013 a.u.
(4)  G-CDS(liq) cavity-dispersion-solvent structure 
     free energy                                               -0.3957 kcal/mol
(6)  G-S(liq) free energy of system                     -784.934214594 a.u.
(9)  DeltaG-S(liq) free energy of  solvation
     (9) = (6) - (0)                                      -492553.6538 kcal/mol
 SCF   energy in the final basis set =     -784.9335840130
 Total energy in the final basis set =     -784.9342145942
 
 --------------------------------------------------------------
 
                    Orbital Energies (a.u.)
 --------------------------------------------------------------
 
 Alpha MOs
 -- Occupied --
-89.382 -19.389 -19.389 -19.346 -19.345 -10.399 -10.399  -8.366
 -6.318  -6.316  -6.315  -2.164  -1.354  -1.227  -1.207  -1.177
 -0.926  -0.814  -0.778  -0.678  -0.671  -0.637  -0.622  -0.592
 -0.571  -0.540  -0.523  -0.510  -0.490  -0.487  -0.485  -0.440
 -0.428
 -- Virtual --
  0.008   0.017   0.017   0.019   0.042   0.061   0.066   0.068
  0.070   0.085   0.089   0.089   0.093   0.115   0.122   0.133
  0.135   0.135   0.140   0.149   0.171   0.175   0.179   0.195
  0.203   0.204   0.212   0.216   0.216   0.220   0.239   0.247
  0.264   0.273   0.276   0.278   0.292   0.307   0.321   0.342
  0.346   0.351   0.354   0.365   0.383   0.393   0.404   0.405
  0.415   0.422   0.427   0.444   0.471   0.501   0.567   0.581
  0.610   0.644   0.665   0.675   0.684   0.731   0.743   0.764
  0.769   0.783   0.827   0.849   0.865   0.901   1.013   1.018
  1.062   1.103   1.114   1.132   1.142   1.171   1.185   1.238
  1.248   1.251   1.307   1.321   1.332   1.377   1.382   1.405
  1.409   1.424   1.448   1.489   1.493   1.522   1.583   1.642
  1.655   1.667   1.690   1.755   1.798   1.834   1.846   1.861
  1.904   1.914   1.959   1.983   1.986   2.001   2.033   2.063
  2.098   2.113   2.176   2.193   2.214   2.267   2.279   2.346
  2.391   2.411   2.508   2.601   2.642   2.648   2.667   2.740
  2.757   2.810   2.835   2.916   2.935   2.941   2.973   3.116
  3.377   3.395   3.535   3.592   4.063   4.212   4.295   4.308
  4.378   4.530   4.757
 --------------------------------------------------------------
 
          Ground-State Mulliken Net Atomic Charges

     Atom                 Charge (a.u.)
  ----------------------------------------
      1 Li                    0.771965
      2 C                    -0.150733
      3 O                    -0.530568
      4 C                    -0.148806
      5 S                     1.789734
      6 O                    -0.535250
      7 O                    -0.594064
      8 O                    -0.588363
      9 H                     0.256076
     10 H                     0.237585
     11 H                     0.237480
     12 H                     0.254944
  ----------------------------------------
  Sum of atomic charges =     1.000000

 -----------------------------------------------------------------
                    Cartesian Multipole Moments
 -----------------------------------------------------------------
    Charge (ESU x 10^10)
                 4.8032
    Dipole Moment (Debye)
         X       3.5320      Y       0.1750      Z      -0.4933
       Tot       3.5705
    Quadrupole Moments (Debye-Ang)
        XX       6.6534     XY       0.5285     YY     -46.1963
        XZ      -1.2956     YZ       0.3547     ZZ     -50.3551
    Octopole Moments (Debye-Ang^2)
       XXX     112.7529    XXY       2.0040    XYY      -2.2301
       YYY       1.1729    XXZ      -5.6833    XYZ       2.8784
       YYZ      -1.3043    XZZ      -6.3741    YZZ       0.2947
       ZZZ      -3.9931
    Hexadecapole Moments (Debye-Ang^3)
      XXXX       7.7051   XXXY       5.4795   XXYY     -97.3506
      XYYY      -0.2735   YYYY    -189.2082   XXXZ     -16.6562
      XXYZ       8.3143   XYYZ      -0.5208   YYYZ      -0.0856
      XXZZ    -110.1493   XYZZ       0.4617   YYZZ     -55.5715
      XZZZ      -2.2532   YZZZ       0.9574   ZZZZ    -161.8073
 -----------------------------------------------------------------
 Calculating analytic gradient of the SCF energy
 Gradient of CDS energy
            1           2           3           4           5           6
    1   0.0000589  -0.0004744   0.0001895  -0.0004526  -0.0000279   0.0001871
    2   0.0000023   0.0010606  -0.0001524  -0.0010674   0.0000147   0.0001544
    3  -0.0000075  -0.0000454  -0.0000860   0.0000536  -0.0000255   0.0000893
            7           8           9          10          11          12
    1  -0.0001265  -0.0001337   0.0001843   0.0002308   0.0001766   0.0001877
    2  -0.0000279   0.0000240  -0.0001062  -0.0001251   0.0001287   0.0000944
    3   0.0000974  -0.0000882   0.0000387   0.0000558  -0.0000646  -0.0000176
 Gradient of SCF Energy
            1           2           3           4           5           6
    1   0.0064298   0.0419753  -0.0266061   0.0436881  -0.0061373  -0.0260790
    2   0.0000368  -0.0309148   0.0237635   0.0279188  -0.0003223  -0.0236800
    3  -0.0003262   0.0200301   0.0048434  -0.0150751  -0.0004932  -0.0057334
            7           8           9          10          11          12
    1   0.0197423   0.0203965  -0.0317476  -0.0044318  -0.0072718  -0.0299585
    2   0.0145658  -0.0143624   0.0171099   0.0141065  -0.0115330  -0.0166887
    3  -0.0405712   0.0419149   0.0294516  -0.0404412   0.0379301  -0.0315298
 Max gradient component =       4.369E-02
 RMS gradient           =       2.423E-02
 Computing VTN gradient.
 Updating gradient with PCM contributions...
 -- total gradient after adding PCM contribution --
---------------------------------------------------
  Atom         X              Y              Z     
---------------------------------------------------
   1       0.000041       0.000085      -0.000007
   2       0.000009      -0.000005       0.000066
   3      -0.000001      -0.000041       0.000090
   4      -0.000014      -0.000008      -0.000072
   5      -0.000012      -0.000044      -0.000009
   6      -0.000004       0.000033      -0.000092
   7      -0.000029       0.000097      -0.000004
   8       0.000002      -0.000100      -0.000071
   9       0.000002      -0.000067       0.000124
  10      -0.000034       0.000080       0.000118
  11       0.000046      -0.000082      -0.000070
  12      -0.000004       0.000051      -0.000074
---------------------------------------------------
 Number of fixed atoms: 0
 Gradient time:  CPU 76.60 s  wall 3.44 s
 ----------------------------------------------------------------
             Standard Nuclear Orientation (Angstroms)
    I     Atom           X                Y                Z
 ----------------------------------------------------------------
    1      Li      3.1361203112     0.0394016823    -0.0978027054
    2      C      -1.8531765649     0.7562423702    -0.0172320906
    3      O      -0.5140025809     1.0889770017     0.4908754598
    4      C      -1.8654066493    -0.7604552786     0.0020048718
    5      S       0.5218835662    -0.0106646945     0.0420427380
    6      O      -0.5017897691    -1.1197094821    -0.4131465849
    7      O       1.3395174445     0.3983297074    -1.0990645032
    8      O       1.3512782765    -0.4071415222     1.1725062341
    9      H      -2.5622474970     1.1992891385     0.6771967296
   10      H      -1.9468667680     1.1758687226    -1.0176150558
   11      H      -2.0322879030    -1.1657172014     0.9951036390
   12      H      -2.5355943273    -1.1943141826    -0.7355396215
 ----------------------------------------------------------------
 Nuclear Repulsion Energy =   484.1917132382 hartrees
 There are       33 alpha and       33 beta electrons
 Discretize the solute cavity surface with Lebedev spheres
	Using 302 Lebedev grid points for each H atom
	Using 302 Lebedev grid points for other atoms
	Atomic van der Waals radii will be scaled by 1.20
 Removing interior tesserae...
 Keep 1146 surface tesserae and discard 2478 interior tesserae
 Molecular Surface Area = 164.426 Angst**2

                       Distance Matrix (Angstroms)
             Li(  1)   C (  2)   O (  3)   C (  4)   S (  5)   O (  6)
   C (  2)  5.041174
   O (  3)  3.843377  1.470467
   C (  4)  5.066064  1.516869  2.342154
   S (  5)  2.618453  2.496512  1.575983  2.502587
   O (  6)  3.831106  2.345675  2.386567  1.469988  1.576415
   O (  7)  2.087854  3.389950  2.537802  3.581435  1.462165  2.483010
   O (  8)  2.235788  3.610744  2.486416  3.441216  1.457065  2.540848
   H (  9)  5.866631  1.086878  2.059658  2.186794  3.373318  3.288174
   H ( 10)  5.289080  1.088866  2.082353  2.189888  2.936914  2.779084
   H ( 11)  5.418413  2.179641  2.764613  1.085510  2.960788  2.080315
   H ( 12)  5.839273  2.187768  3.286996  1.086902  3.369545  2.060549
             O (  7)   O (  8)   H (  9)   H ( 10)   H ( 11)
   O (  8)  2.410178
   H (  9)  4.361239  4.259300
   H ( 10)  3.378094  4.263838  1.803227
   H ( 11)  4.266246  3.472093  2.444418  3.088909
   H ( 12)  4.205372  4.400916  2.779545  2.458441  1.802571
 
 Requested basis set is 6-31++G(d,p)
 There are 57 shells and 180 basis functions
 A cutoff of  1.0D-12 yielded   1574 shell pairs
 There are     16206 function pairs
 Smallest overlap matrix eigenvalue = 1.31E-04

 -----------------------------------------------------------------------
  General SCF calculation program by
  Eric Jon Sundstrom, Paul Horn, Yuezhi Mao, Dmitri Zuev, Alec White,
  David Stuck, Shaama M.S., Shane Yost, Joonho Lee, David Small,
  Daniel Levine, Susi Lehtola, Hugh Burton, Evgeny Epifanovsky
 -----------------------------------------------------------------------
 Exchange:     0.2220 Hartree-Fock + 1.0000 wB97X-D + LR-HF
 Correlation:  1.0000 wB97X-D
 Using SG-3 standard quadrature grid
 Dispersion:   Grimme D
 using 32 threads for integral computing
 -------------------------------------------------------
 OpenMP Integral computing Module                
 Release: version 1.0, May 2013, Q-Chem Inc. Pittsburgh 
 -------------------------------------------------------
 using 32 threads for integral computing
 -------------------------------------------------------
 OpenMP Integral computing Module                
 Release: version 1.0, May 2013, Q-Chem Inc. Pittsburgh 
 -------------------------------------------------------
 -------------------------------------------------------
 OpenMP BLAS3 based DFT computing Module                
 Release: version 1.0, May 2013, Q-Chem Inc. Pittsburgh 
 -------------------------------------------------------
 A restricted SCF calculation will be
 performed using DIIS, GDM
 SCF converges when RMS gradient is below 1.0e-08
 ---------------------------------------
  Cycle       Energy         DIIS error
 ---------------------------------------
    1    -784.9336620803      3.97e-06  
    2    -784.9335837402      1.34e-06  Done DIIS. Switching to GDM
 ---------------------------------------
  Cycle       Energy        RMS Gradient
 ---------------------------------------
    1    -784.9335837402      1.68e-05   Normal BFGS step
    2    -784.9335837425      2.09e-05   Normal BFGS step
    3    -784.9335837475      2.39e-06   Normal BFGS step
    4    -784.9335837476      1.93e-06   Normal BFGS step
    5    -784.9335837477      3.43e-07   Normal BFGS step
    6    -784.9335837477      3.22e-07   Normal BFGS step
    7    -784.9335837477      5.94e-08   Normal BFGS step
    8    -784.9335837477      3.49e-08   Normal BFGS step
    9    -784.9335837477      6.03e-09  Convergence criterion met
 ---------------------------------------
 SCF time:   CPU 390.30s  wall 14.00s 
(0)  E-EN(g) gas-phase elect-nuc energy                    0.000000000 a.u.
(3)  G-ENP(liq) elect-nuc-pol free energy of system     -784.933583748 a.u.
(4)  G-CDS(liq) cavity-dispersion-solvent structure 
     free energy                                               -0.3957 kcal/mol
(6)  G-S(liq) free energy of system                     -784.934214329 a.u.
(9)  DeltaG-S(liq) free energy of  solvation
     (9) = (6) - (0)                                      -492553.6536 kcal/mol
 SCF   energy in the final basis set =     -784.9335837477
 Total energy in the final basis set =     -784.9342143289
 
 --------------------------------------------------------------
 
                    Orbital Energies (a.u.)
 --------------------------------------------------------------
 
 Alpha MOs
 -- Occupied --
-89.382 -19.389 -19.389 -19.346 -19.345 -10.399 -10.399  -8.366
 -6.318  -6.316  -6.315  -2.164  -1.354  -1.227  -1.207  -1.177
 -0.926  -0.814  -0.778  -0.678  -0.671  -0.637  -0.622  -0.593
 -0.571  -0.540  -0.523  -0.510  -0.490  -0.487  -0.485  -0.440
 -0.428
 -- Virtual --
  0.008   0.017   0.017   0.019   0.042   0.062   0.066   0.068
  0.070   0.085   0.089   0.089   0.093   0.115   0.122   0.133
  0.135   0.135   0.140   0.149   0.171   0.175   0.179   0.195
  0.203   0.204   0.212   0.216   0.216   0.220   0.239   0.247
  0.264   0.273   0.276   0.278   0.292   0.307   0.321   0.342
  0.346   0.351   0.354   0.365   0.383   0.393   0.404   0.405
  0.415   0.422   0.427   0.444   0.471   0.501   0.567   0.581
  0.610   0.644   0.665   0.675   0.685   0.731   0.744   0.764
  0.769   0.784   0.827   0.849   0.865   0.901   1.013   1.018
  1.062   1.103   1.114   1.133   1.142   1.171   1.185   1.238
  1.248   1.251   1.307   1.321   1.332   1.377   1.382   1.405
  1.409   1.424   1.448   1.489   1.493   1.522   1.583   1.642
  1.655   1.667   1.691   1.755   1.798   1.834   1.846   1.861
  1.904   1.914   1.959   1.983   1.986   2.001   2.033   2.063
  2.099   2.113   2.176   2.193   2.214   2.267   2.279   2.346
  2.391   2.411   2.508   2.601   2.642   2.648   2.667   2.740
  2.757   2.810   2.835   2.916   2.935   2.941   2.973   3.116
  3.377   3.395   3.535   3.592   4.063   4.212   4.295   4.308
  4.378   4.530   4.757
 --------------------------------------------------------------
 
          Ground-State Mulliken Net Atomic Charges

     Atom                 Charge (a.u.)
  ----------------------------------------
      1 Li                    0.771172
      2 C                    -0.150768
      3 O                    -0.530596
      4 C                    -0.148864
      5 S                     1.790165
      6 O                    -0.535280
      7 O                    -0.593806
      8 O                    -0.588168
      9 H                     0.256087
     10 H                     0.237606
     11 H                     0.237498
     12 H                     0.254954
  ----------------------------------------
  Sum of atomic charges =     1.000000

 -----------------------------------------------------------------
                    Cartesian Multipole Moments
 -----------------------------------------------------------------
    Charge (ESU x 10^10)
                 4.8032
    Dipole Moment (Debye)
         X       3.5202      Y       0.1749      Z      -0.4931
       Tot       3.5588
    Quadrupole Moments (Debye-Ang)
        XX       6.5937     XY       0.5280     YY     -46.1945
        XZ      -1.2944     YZ       0.3543     ZZ     -50.3526
    Octopole Moments (Debye-Ang^2)
       XXX     112.4649    XXY       2.0015    XYY      -2.2309
       YYY       1.1728    XXZ      -5.6772    XYZ       2.8778
       YYZ      -1.3043    XZZ      -6.3731    YZZ       0.2946
       ZZZ      -3.9927
    Hexadecapole Moments (Debye-Ang^3)
      XXXX       6.5707   XXXY       5.4685   XXYY     -97.3413
      XYYY      -0.2734   YYYY    -189.2020   XXXZ     -16.6291
      XXYZ       8.3142   XYYZ      -0.5209   YYYZ      -0.0863
      XXZZ    -110.1407   XYZZ       0.4615   YYZZ     -55.5683
      XZZZ      -2.2530   YZZZ       0.9553   ZZZZ    -161.7950
 -----------------------------------------------------------------
 Calculating analytic gradient of the SCF energy
 Gradient of CDS energy
            1           2           3           4           5           6
    1   0.0000589  -0.0004744   0.0001895  -0.0004526  -0.0000279   0.0001871
    2   0.0000023   0.0010606  -0.0001524  -0.0010674   0.0000147   0.0001544
    3  -0.0000075  -0.0000454  -0.0000860   0.0000536  -0.0000255   0.0000893
            7           8           9          10          11          12
    1  -0.0001265  -0.0001337   0.0001843   0.0002308   0.0001766   0.0001877
    2  -0.0000279   0.0000240  -0.0001062  -0.0001251   0.0001287   0.0000944
    3   0.0000974  -0.0000882   0.0000387   0.0000558  -0.0000646  -0.0000176
 Gradient of SCF Energy
            1           2           3           4           5           6
    1   0.0062827   0.0419916  -0.0266440   0.0437038  -0.0059296  -0.0261163
    2   0.0000402  -0.0309227   0.0237748   0.0279261  -0.0003172  -0.0236928
    3  -0.0003357   0.0200428   0.0048467  -0.0150869  -0.0005086  -0.0057345
            7           8           9          10          11          12
    1   0.0197615   0.0203827  -0.0317569  -0.0044333  -0.0072748  -0.0299674
    2   0.0145682  -0.0143718   0.0171147   0.0141098  -0.0115360  -0.0166933
    3  -0.0405744   0.0419410   0.0294583  -0.0404536   0.0379419  -0.0315371
 Max gradient component =       4.370E-02
 RMS gradient           =       2.423E-02
 Computing VTN gradient.
 Updating gradient with PCM contributions...
 -- total gradient after adding PCM contribution --
---------------------------------------------------
  Atom         X              Y              Z     
---------------------------------------------------
   1      -0.000063       0.000089      -0.000015
   2       0.000016      -0.000003       0.000071
   3      -0.000023      -0.000034       0.000092
   4      -0.000007      -0.000010      -0.000077
   5       0.000130      -0.000040      -0.000018
   6      -0.000026       0.000026      -0.000093
   7      -0.000020       0.000093       0.000004
   8      -0.000013      -0.000104      -0.000064
   9       0.000001      -0.000067       0.000124
  10      -0.000035       0.000080       0.000118
  11       0.000044      -0.000082      -0.000068
  12      -0.000005       0.000051      -0.000073
---------------------------------------------------
 Number of fixed atoms: 0
 Gradient time:  CPU 77.53 s  wall 3.49 s
 ----------------------------------------------------------------
             Standard Nuclear Orientation (Angstroms)
    I     Atom           X                Y                Z
 ----------------------------------------------------------------
    1      Li      3.1371203112     0.0404016823    -0.0978027054
    2      C      -1.8531765649     0.7562423702    -0.0172320906
    3      O      -0.5140025809     1.0889770017     0.4908754598
    4      C      -1.8654066493    -0.7604552786     0.0020048718
    5      S       0.5218835662    -0.0106646945     0.0420427380
    6      O      -0.5017897691    -1.1197094821    -0.4131465849
    7      O       1.3395174445     0.3983297074    -1.0990645032
    8      O       1.3512782765    -0.4071415222     1.1725062341
    9      H      -2.5622474970     1.1992891385     0.6771967296
   10      H      -1.9468667680     1.1758687226    -1.0176150558
   11      H      -2.0322879030    -1.1657172014     0.9951036390
   12      H      -2.5355943273    -1.1943141826    -0.7355396215
 ----------------------------------------------------------------
 Nuclear Repulsion Energy =   484.1807961986 hartrees
 There are       33 alpha and       33 beta electrons
 Discretize the solute cavity surface with Lebedev spheres
	Using 302 Lebedev grid points for each H atom
	Using 302 Lebedev grid points for other atoms
	Atomic van der Waals radii will be scaled by 1.20
 Removing interior tesserae...
 Keep 1146 surface tesserae and discard 2478 interior tesserae
 Molecular Surface Area = 164.426 Angst**2

                       Distance Matrix (Angstroms)
             Li(  1)   C (  2)   O (  3)   C (  4)   S (  5)   O (  6)
   C (  2)  5.042022
   O (  3)  3.844054  1.470467
   C (  4)  5.067209  1.516869  2.342154
   S (  5)  2.619471  2.496512  1.575983  2.502587
   O (  6)  3.832358  2.345675  2.386567  1.469988  1.576415
   O (  7)  2.088543  3.389950  2.537802  3.581435  1.462165  2.483010
   O (  8)  2.236786  3.610744  2.486416  3.441216  1.457065  2.540848
   H (  9)  5.867405  1.086878  2.059658  2.186794  3.373318  3.288174
   H ( 10)  5.289827  1.088866  2.082353  2.189888  2.936914  2.779084
   H ( 11)  5.419589  2.179641  2.764613  1.085510  2.960788  2.080315
   H ( 12)  5.840456  2.187768  3.286996  1.086902  3.369545  2.060549
             O (  7)   O (  8)   H (  9)   H ( 10)   H ( 11)
   O (  8)  2.410178
   H (  9)  4.361239  4.259300
   H ( 10)  3.378094  4.263838  1.803227
   H ( 11)  4.266246  3.472093  2.444418  3.088909
   H ( 12)  4.205372  4.400916  2.779545  2.458441  1.802571
 
 Requested basis set is 6-31++G(d,p)
 There are 57 shells and 180 basis functions
 A cutoff of  1.0D-12 yielded   1574 shell pairs
 There are     16206 function pairs
 Smallest overlap matrix eigenvalue = 1.31E-04

 -----------------------------------------------------------------------
  General SCF calculation program by
  Eric Jon Sundstrom, Paul Horn, Yuezhi Mao, Dmitri Zuev, Alec White,
  David Stuck, Shaama M.S., Shane Yost, Joonho Lee, David Small,
  Daniel Levine, Susi Lehtola, Hugh Burton, Evgeny Epifanovsky
 -----------------------------------------------------------------------
 Exchange:     0.2220 Hartree-Fock + 1.0000 wB97X-D + LR-HF
 Correlation:  1.0000 wB97X-D
 Using SG-3 standard quadrature grid
 Dispersion:   Grimme D
 using 32 threads for integral computing
 -------------------------------------------------------
 OpenMP Integral computing Module                
 Release: version 1.0, May 2013, Q-Chem Inc. Pittsburgh 
 -------------------------------------------------------
 using 32 threads for integral computing
 -------------------------------------------------------
 OpenMP Integral computing Module                
 Release: version 1.0, May 2013, Q-Chem Inc. Pittsburgh 
 -------------------------------------------------------
 -------------------------------------------------------
 OpenMP BLAS3 based DFT computing Module                
 Release: version 1.0, May 2013, Q-Chem Inc. Pittsburgh 
 -------------------------------------------------------
 A restricted SCF calculation will be
 performed using DIIS, GDM
 SCF converges when RMS gradient is below 1.0e-08
 ---------------------------------------
  Cycle       Energy         DIIS error
 ---------------------------------------
    1    -784.9335445998      2.43e-06  
    2    -784.9335837645      8.27e-07  Done DIIS. Switching to GDM
 ---------------------------------------
  Cycle       Energy        RMS Gradient
 ---------------------------------------
    1    -784.9335837645      1.12e-05   Normal BFGS step
    2    -784.9335837662      1.42e-05   Normal BFGS step
    3    -784.9335837680      1.85e-06   Normal BFGS step
    4    -784.9335837681      1.25e-06   Normal BFGS step
    5    -784.9335837681      2.87e-07   Normal BFGS step
    6    -784.9335837681      2.27e-07   Normal BFGS step
    7    -784.9335837681      4.61e-08   Normal BFGS step
    8    -784.9335837681      2.75e-08   Normal BFGS step
    9    -784.9335837681      4.43e-09  Convergence criterion met
 ---------------------------------------
 SCF time:   CPU 389.03s  wall 15.00s 
(0)  E-EN(g) gas-phase elect-nuc energy                    0.000000000 a.u.
(3)  G-ENP(liq) elect-nuc-pol free energy of system     -784.933583768 a.u.
(4)  G-CDS(liq) cavity-dispersion-solvent structure 
     free energy                                               -0.3957 kcal/mol
(6)  G-S(liq) free energy of system                     -784.934214349 a.u.
(9)  DeltaG-S(liq) free energy of  solvation
     (9) = (6) - (0)                                      -492553.6536 kcal/mol
 SCF   energy in the final basis set =     -784.9335837681
 Total energy in the final basis set =     -784.9342143493
 
 --------------------------------------------------------------
 
                    Orbital Energies (a.u.)
 --------------------------------------------------------------
 
 Alpha MOs
 -- Occupied --
-89.382 -19.389 -19.389 -19.346 -19.345 -10.399 -10.399  -8.366
 -6.318  -6.316  -6.315  -2.164  -1.354  -1.227  -1.207  -1.177
 -0.926  -0.814  -0.778  -0.678  -0.671  -0.637  -0.622  -0.593
 -0.571  -0.540  -0.523  -0.510  -0.490  -0.487  -0.485  -0.440
 -0.428
 -- Virtual --
  0.008   0.017   0.017   0.019   0.042   0.062   0.066   0.068
  0.070   0.085   0.089   0.089   0.093   0.115   0.122   0.133
  0.135   0.135   0.140   0.149   0.171   0.175   0.179   0.195
  0.203   0.204   0.212   0.216   0.216   0.220   0.239   0.247
  0.264   0.273   0.276   0.278   0.292   0.307   0.321   0.342
  0.346   0.351   0.354   0.365   0.383   0.393   0.404   0.405
  0.415   0.422   0.427   0.444   0.471   0.501   0.567   0.581
  0.610   0.644   0.665   0.675   0.684   0.731   0.744   0.764
  0.769   0.784   0.827   0.849   0.865   0.901   1.013   1.018
  1.062   1.103   1.114   1.133   1.142   1.171   1.185   1.238
  1.248   1.251   1.307   1.321   1.332   1.377   1.382   1.405
  1.409   1.424   1.448   1.489   1.493   1.522   1.583   1.642
  1.655   1.667   1.691   1.755   1.798   1.834   1.846   1.861
  1.904   1.914   1.959   1.983   1.986   2.001   2.033   2.063
  2.098   2.113   2.176   2.193   2.214   2.267   2.279   2.346
  2.391   2.411   2.508   2.601   2.642   2.648   2.667   2.740
  2.757   2.810   2.835   2.916   2.935   2.941   2.973   3.116
  3.377   3.395   3.535   3.592   4.063   4.212   4.295   4.308
  4.378   4.530   4.757
 --------------------------------------------------------------
 
          Ground-State Mulliken Net Atomic Charges

     Atom                 Charge (a.u.)
  ----------------------------------------
      1 Li                    0.771571
      2 C                    -0.150761
      3 O                    -0.530573
      4 C                    -0.148818
      5 S                     1.789936
      6 O                    -0.535272
      7 O                    -0.593928
      8 O                    -0.588269
      9 H                     0.256082
     10 H                     0.237595
     11 H                     0.237488
     12 H                     0.254949
  ----------------------------------------
  Sum of atomic charges =     1.000000

 -----------------------------------------------------------------
                    Cartesian Multipole Moments
 -----------------------------------------------------------------
    Charge (ESU x 10^10)
                 4.8032
    Dipole Moment (Debye)
         X       3.5261      Y       0.1791      Z      -0.4932
       Tot       3.5649
    Quadrupole Moments (Debye-Ang)
        XX       6.6236     XY       0.5423     YY     -46.1951
        XZ      -1.2948     YZ       0.3541     ZZ     -50.3539
    Octopole Moments (Debye-Ang^2)
       XXX     112.6090    XXY       2.0476    XYY      -2.2293
       YYY       1.1707    XXZ      -5.6798    XYZ       2.8767
       YYZ      -1.3041    XZZ      -6.3736    YZZ       0.2937
       ZZZ      -3.9930
    Hexadecapole Moments (Debye-Ang^3)
      XXXX       7.1379   XXXY       5.6139   XXYY     -97.3423
      XYYY      -0.2789   YYYY    -189.2054   XXXZ     -16.6418
      XXYZ       8.3098   XYYZ      -0.5206   YYYZ      -0.0858
      XXZZ    -110.1450   XYZZ       0.4594   YYZZ     -55.5700
      XZZZ      -2.2531   YZZZ       0.9565   ZZZZ    -161.8012
 -----------------------------------------------------------------
 Calculating analytic gradient of the SCF energy
 Gradient of CDS energy
            1           2           3           4           5           6
    1   0.0000589  -0.0004744   0.0001895  -0.0004526  -0.0000279   0.0001871
    2   0.0000023   0.0010606  -0.0001524  -0.0010674   0.0000147   0.0001544
    3  -0.0000075  -0.0000454  -0.0000860   0.0000536  -0.0000255   0.0000893
            7           8           9          10          11          12
    1  -0.0001265  -0.0001337   0.0001843   0.0002308   0.0001766   0.0001877
    2  -0.0000279   0.0000240  -0.0001062  -0.0001251   0.0001287   0.0000944
    3   0.0000974  -0.0000882   0.0000387   0.0000558  -0.0000646  -0.0000176
 Gradient of SCF Energy
            1           2           3           4           5           6
    1   0.0063549   0.0419852  -0.0266233   0.0436942  -0.0060363  -0.0260998
    2   0.0000491  -0.0309185   0.0237681   0.0279225  -0.0003028  -0.0236876
    3  -0.0003302   0.0200368   0.0048472  -0.0150804  -0.0005130  -0.0057313
            7           8           9          10          11          12
    1   0.0197536   0.0203925  -0.0317524  -0.0044323  -0.0072736  -0.0299628
    2   0.0145529  -0.0143802   0.0171126   0.0141087  -0.0115340  -0.0166907
    3  -0.0405686   0.0419298   0.0294553  -0.0404480   0.0379354  -0.0315329
 Max gradient component =       4.369E-02
 RMS gradient           =       2.423E-02
 Computing VTN gradient.
 Updating gradient with PCM contributions...
 -- total gradient after adding PCM contribution --
---------------------------------------------------
  Atom         X              Y              Z     
---------------------------------------------------
   1      -0.000013       0.000088      -0.000010
   2       0.000013      -0.000004       0.000068
   3      -0.000011      -0.000039       0.000092
   4      -0.000011      -0.000009      -0.000074
   5       0.000057      -0.000026      -0.000024
   6      -0.000016       0.000028      -0.000091
   7      -0.000024       0.000087       0.000004
   8      -0.000002      -0.000108      -0.000065
   9       0.000001      -0.000067       0.000124
  10      -0.000034       0.000080       0.000118
  11       0.000045      -0.000082      -0.000069
  12      -0.000005       0.000051      -0.000074
---------------------------------------------------
 Number of fixed atoms: 0
 Gradient time:  CPU 77.80 s  wall 3.45 s
 ----------------------------------------------------------------
             Standard Nuclear Orientation (Angstroms)
    I     Atom           X                Y                Z
 ----------------------------------------------------------------
    1      Li      3.1371203112     0.0384016823    -0.0978027054
    2      C      -1.8531765649     0.7562423702    -0.0172320906
    3      O      -0.5140025809     1.0889770017     0.4908754598
    4      C      -1.8654066493    -0.7604552786     0.0020048718
    5      S       0.5218835662    -0.0106646945     0.0420427380
    6      O      -0.5017897691    -1.1197094821    -0.4131465849
    7      O       1.3395174445     0.3983297074    -1.0990645032
    8      O       1.3512782765    -0.4071415222     1.1725062341
    9      H      -2.5622474970     1.1992891385     0.6771967296
   10      H      -1.9468667680     1.1758687226    -1.0176150558
   11      H      -2.0322879030    -1.1657172014     0.9951036390
   12      H      -2.5355943273    -1.1943141826    -0.7355396215
 ----------------------------------------------------------------
 Nuclear Repulsion Energy =   484.1810167325 hartrees
 There are       33 alpha and       33 beta electrons
 Discretize the solute cavity surface with Lebedev spheres
	Using 302 Lebedev grid points for each H atom
	Using 302 Lebedev grid points for other atoms
	Atomic van der Waals radii will be scaled by 1.20
 Removing interior tesserae...
 Keep 1146 surface tesserae and discard 2478 interior tesserae
 Molecular Surface Area = 164.426 Angst**2

                       Distance Matrix (Angstroms)
             Li(  1)   C (  2)   O (  3)   C (  4)   S (  5)   O (  6)
   C (  2)  5.042306
   O (  3)  3.844600  1.470467
   C (  4)  5.066894  1.516869  2.342154
   S (  5)  2.619433  2.496512  1.575983  2.502587
   O (  6)  3.831753  2.345675  2.386567  1.469988  1.576415
   O (  7)  2.088887  3.389950  2.537802  3.581435  1.462165  2.483010
   O (  8)  2.236387  3.610744  2.486416  3.441216  1.457065  2.540848
   H (  9)  5.867800  1.086878  2.059658  2.186794  3.373318  3.288174
   H ( 10)  5.290256  1.088866  2.082353  2.189888  2.936914  2.779084
   H ( 11)  5.419145  2.179641  2.764613  1.085510  2.960788  2.080315
   H ( 12)  5.840033  2.187768  3.286996  1.086902  3.369545  2.060549
             O (  7)   O (  8)   H (  9)   H ( 10)   H ( 11)
   O (  8)  2.410178
   H (  9)  4.361239  4.259300
   H ( 10)  3.378094  4.263838  1.803227
   H ( 11)  4.266246  3.472093  2.444418  3.088909
   H ( 12)  4.205372  4.400916  2.779545  2.458441  1.802571
 
 Requested basis set is 6-31++G(d,p)
 There are 57 shells and 180 basis functions
 A cutoff of  1.0D-12 yielded   1574 shell pairs
 There are     16206 function pairs
 Smallest overlap matrix eigenvalue = 1.31E-04

 -----------------------------------------------------------------------
  General SCF calculation program by
  Eric Jon Sundstrom, Paul Horn, Yuezhi Mao, Dmitri Zuev, Alec White,
  David Stuck, Shaama M.S., Shane Yost, Joonho Lee, David Small,
  Daniel Levine, Susi Lehtola, Hugh Burton, Evgeny Epifanovsky
 -----------------------------------------------------------------------
 Exchange:     0.2220 Hartree-Fock + 1.0000 wB97X-D + LR-HF
 Correlation:  1.0000 wB97X-D
 Using SG-3 standard quadrature grid
 Dispersion:   Grimme D
 using 32 threads for integral computing
 -------------------------------------------------------
 OpenMP Integral computing Module                
 Release: version 1.0, May 2013, Q-Chem Inc. Pittsburgh 
 -------------------------------------------------------
 using 32 threads for integral computing
 -------------------------------------------------------
 OpenMP Integral computing Module                
 Release: version 1.0, May 2013, Q-Chem Inc. Pittsburgh 
 -------------------------------------------------------
 -------------------------------------------------------
 OpenMP BLAS3 based DFT computing Module                
 Release: version 1.0, May 2013, Q-Chem Inc. Pittsburgh 
 -------------------------------------------------------
 A restricted SCF calculation will be
 performed using DIIS, GDM
 SCF converges when RMS gradient is below 1.0e-08
 ---------------------------------------
  Cycle       Energy         DIIS error
 ---------------------------------------
    1    -784.9335839516      2.89e-06  
    2    -784.9335840798      1.27e-06  Done DIIS. Switching to GDM
 ---------------------------------------
  Cycle       Energy        RMS Gradient
 ---------------------------------------
    1    -784.9335840798      2.20e-05   Normal BFGS step
    2    -784.9335840817      2.58e-05   Normal BFGS step
    3    -784.9335840884      2.97e-06   Normal BFGS step
    4    -784.9335840886      1.06e-06   Normal BFGS step
    5    -784.9335840886      4.31e-07   Normal BFGS step
    6    -784.9335840886      3.13e-07   Normal BFGS step
    7    -784.9335840886      1.66e-08   Normal BFGS step
    8    -784.9335840886      1.56e-08   Normal BFGS step
    9    -784.9335840886      1.47e-09  Convergence criterion met
 ---------------------------------------
 SCF time:   CPU 388.82s  wall 15.00s 
(0)  E-EN(g) gas-phase elect-nuc energy                    0.000000000 a.u.
(3)  G-ENP(liq) elect-nuc-pol free energy of system     -784.933584089 a.u.
(4)  G-CDS(liq) cavity-dispersion-solvent structure 
     free energy                                               -0.3957 kcal/mol
(6)  G-S(liq) free energy of system                     -784.934214670 a.u.
(9)  DeltaG-S(liq) free energy of  solvation
     (9) = (6) - (0)                                      -492553.6538 kcal/mol
 SCF   energy in the final basis set =     -784.9335840886
 Total energy in the final basis set =     -784.9342146698
 
 --------------------------------------------------------------
 
                    Orbital Energies (a.u.)
 --------------------------------------------------------------
 
 Alpha MOs
 -- Occupied --
-89.382 -19.389 -19.389 -19.346 -19.345 -10.399 -10.399  -8.366
 -6.318  -6.316  -6.315  -2.164  -1.354  -1.227  -1.207  -1.177
 -0.926  -0.814  -0.778  -0.678  -0.671  -0.637  -0.622  -0.593
 -0.571  -0.540  -0.523  -0.510  -0.490  -0.487  -0.485  -0.440
 -0.428
 -- Virtual --
  0.008   0.017   0.017   0.019   0.042   0.062   0.066   0.068
  0.070   0.085   0.089   0.089   0.093   0.115   0.122   0.133
  0.135   0.135   0.140   0.149   0.171   0.175   0.179   0.195
  0.203   0.204   0.212   0.216   0.216   0.220   0.239   0.247
  0.264   0.273   0.276   0.278   0.292   0.307   0.321   0.342
  0.346   0.351   0.354   0.365   0.383   0.393   0.404   0.405
  0.415   0.422   0.427   0.444   0.471   0.501   0.567   0.581
  0.610   0.644   0.665   0.675   0.684   0.731   0.743   0.764
  0.769   0.784   0.827   0.849   0.865   0.901   1.013   1.018
  1.062   1.103   1.114   1.133   1.142   1.171   1.185   1.238
  1.248   1.251   1.307   1.321   1.332   1.377   1.382   1.405
  1.409   1.424   1.448   1.489   1.493   1.522   1.583   1.642
  1.655   1.667   1.691   1.755   1.798   1.834   1.846   1.861
  1.904   1.914   1.959   1.983   1.986   2.001   2.033   2.063
  2.098   2.113   2.176   2.193   2.214   2.267   2.279   2.346
  2.391   2.411   2.508   2.601   2.642   2.648   2.667   2.740
  2.757   2.810   2.835   2.916   2.935   2.941   2.973   3.116
  3.377   3.395   3.535   3.592   4.063   4.212   4.295   4.308
  4.378   4.530   4.757
 --------------------------------------------------------------
 
          Ground-State Mulliken Net Atomic Charges

     Atom                 Charge (a.u.)
  ----------------------------------------
      1 Li                    0.771567
      2 C                    -0.150740
      3 O                    -0.530591
      4 C                    -0.148852
      5 S                     1.789963
      6 O                    -0.535258
      7 O                    -0.593942
      8 O                    -0.588261
      9 H                     0.256080
     10 H                     0.237596
     11 H                     0.237490
     12 H                     0.254949
  ----------------------------------------
  Sum of atomic charges =     1.000000

 -----------------------------------------------------------------
                    Cartesian Multipole Moments
 -----------------------------------------------------------------
    Charge (ESU x 10^10)
                 4.8032
    Dipole Moment (Debye)
         X       3.5261      Y       0.1707      Z      -0.4933
       Tot       3.5645
    Quadrupole Moments (Debye-Ang)
        XX       6.6235     XY       0.5142     YY     -46.1958
        XZ      -1.2952     YZ       0.3549     ZZ     -50.3538
    Octopole Moments (Debye-Ang^2)
       XXX     112.6088    XXY       1.9580    XYY      -2.2316
       YYY       1.1750    XXZ      -5.6807    XYZ       2.8795
       YYZ      -1.3045    XZZ      -6.3736    YZZ       0.2956
       ZZZ      -3.9927
    Hexadecapole Moments (Debye-Ang^3)
      XXXX       7.1374   XXXY       5.3340   XXYY     -97.3495
      XYYY      -0.2680   YYYY    -189.2048   XXXZ     -16.6435
      XXYZ       8.3188   XYYZ      -0.5211   YYYZ      -0.0861
      XXZZ    -110.1450   XYZZ       0.4638   YYZZ     -55.5699
      XZZZ      -2.2531   YZZZ       0.9562   ZZZZ    -161.8011
 -----------------------------------------------------------------
 Calculating analytic gradient of the SCF energy
 Gradient of CDS energy
            1           2           3           4           5           6
    1   0.0000589  -0.0004744   0.0001895  -0.0004526  -0.0000279   0.0001871
    2   0.0000023   0.0010606  -0.0001524  -0.0010674   0.0000147   0.0001544
    3  -0.0000075  -0.0000454  -0.0000860   0.0000536  -0.0000255   0.0000893
            7           8           9          10          11          12
    1  -0.0001265  -0.0001337   0.0001843   0.0002308   0.0001766   0.0001877
    2  -0.0000279   0.0000240  -0.0001062  -0.0001251   0.0001287   0.0000944
    3   0.0000974  -0.0000882   0.0000387   0.0000558  -0.0000646  -0.0000176
 Gradient of SCF Energy
            1           2           3           4           5           6
    1   0.0063577   0.0419817  -0.0266267   0.0436978  -0.0060307  -0.0260954
    2   0.0000279  -0.0309189   0.0237703   0.0279224  -0.0003367  -0.0236852
    3  -0.0003315   0.0200361   0.0048429  -0.0150816  -0.0004887  -0.0057365
            7           8           9          10          11          12
    1   0.0197500   0.0203868  -0.0317522  -0.0044328  -0.0072730  -0.0299631
    2   0.0145812  -0.0143539   0.0171120   0.0141075  -0.0115350  -0.0166913
    3  -0.0405771   0.0419259   0.0294546  -0.0404468   0.0379366  -0.0315339
 Max gradient component =       4.370E-02
 RMS gradient           =       2.423E-02
 Computing VTN gradient.
 Updating gradient with PCM contributions...
 -- total gradient after adding PCM contribution --
---------------------------------------------------
  Atom         X              Y              Z     
---------------------------------------------------
   1      -0.000009       0.000086      -0.000012
   2       0.000013      -0.000004       0.000068
   3      -0.000014      -0.000037       0.000090
   4      -0.000010      -0.000008      -0.000075
   5       0.000061      -0.000058      -0.000004
   6      -0.000013       0.000031      -0.000094
   7      -0.000026       0.000103      -0.000004
   8      -0.000008      -0.000095      -0.000070
   9       0.000001      -0.000067       0.000124
  10      -0.000035       0.000080       0.000118
  11       0.000045      -0.000082      -0.000069
  12      -0.000005       0.000051      -0.000074
---------------------------------------------------
 Number of fixed atoms: 0
 Gradient time:  CPU 77.27 s  wall 3.44 s
 ----------------------------------------------------------------
             Standard Nuclear Orientation (Angstroms)
    I     Atom           X                Y                Z
 ----------------------------------------------------------------
    1      Li      3.1371203112     0.0394016823    -0.0968027054
    2      C      -1.8531765649     0.7562423702    -0.0172320906
    3      O      -0.5140025809     1.0889770017     0.4908754598
    4      C      -1.8654066493    -0.7604552786     0.0020048718
    5      S       0.5218835662    -0.0106646945     0.0420427380
    6      O      -0.5017897691    -1.1197094821    -0.4131465849
    7      O       1.3395174445     0.3983297074    -1.0990645032
    8      O       1.3512782765    -0.4071415222     1.1725062341
    9      H      -2.5622474970     1.1992891385     0.6771967296
   10      H      -1.9468667680     1.1758687226    -1.0176150558
   11      H      -2.0322879030    -1.1657172014     0.9951036390
   12      H      -2.5355943273    -1.1943141826    -0.7355396215
 ----------------------------------------------------------------
 Nuclear Repulsion Energy =   484.1812273368 hartrees
 There are       33 alpha and       33 beta electrons
 Discretize the solute cavity surface with Lebedev spheres
	Using 302 Lebedev grid points for each H atom
	Using 302 Lebedev grid points for other atoms
	Atomic van der Waals radii will be scaled by 1.20
 Removing interior tesserae...
 Keep 1146 surface tesserae and discard 2478 interior tesserae
 Molecular Surface Area = 164.426 Angst**2

                       Distance Matrix (Angstroms)
             Li(  1)   C (  2)   O (  3)   C (  4)   S (  5)   O (  6)
   C (  2)  5.042148
   O (  3)  3.844174  1.470467
   C (  4)  5.067032  1.516869  2.342154
   S (  5)  2.619398  2.496512  1.575983  2.502587
   O (  6)  3.832138  2.345675  2.386567  1.469988  1.576415
   O (  7)  2.089195  3.389950  2.537802  3.581435  1.462165  2.483010
   O (  8)  2.236018  3.610744  2.486416  3.441216  1.457065  2.540848
   H (  9)  5.867470  1.086878  2.059658  2.186794  3.373318  3.288174
   H ( 10)  5.290215  1.088866  2.082353  2.189888  2.936914  2.779084
   H ( 11)  5.419165  2.179641  2.764613  1.085510  2.960788  2.080315
   H ( 12)  5.840354  2.187768  3.286996  1.086902  3.369545  2.060549
             O (  7)   O (  8)   H (  9)   H ( 10)   H ( 11)
   O (  8)  2.410178
   H (  9)  4.361239  4.259300
   H ( 10)  3.378094  4.263838  1.803227
   H ( 11)  4.266246  3.472093  2.444418  3.088909
   H ( 12)  4.205372  4.400916  2.779545  2.458441  1.802571
 
 Requested basis set is 6-31++G(d,p)
 There are 57 shells and 180 basis functions
 A cutoff of  1.0D-12 yielded   1574 shell pairs
 There are     16206 function pairs
 Smallest overlap matrix eigenvalue = 1.31E-04

 -----------------------------------------------------------------------
  General SCF calculation program by
  Eric Jon Sundstrom, Paul Horn, Yuezhi Mao, Dmitri Zuev, Alec White,
  David Stuck, Shaama M.S., Shane Yost, Joonho Lee, David Small,
  Daniel Levine, Susi Lehtola, Hugh Burton, Evgeny Epifanovsky
 -----------------------------------------------------------------------
 Exchange:     0.2220 Hartree-Fock + 1.0000 wB97X-D + LR-HF
 Correlation:  1.0000 wB97X-D
 Using SG-3 standard quadrature grid
 Dispersion:   Grimme D
 using 32 threads for integral computing
 -------------------------------------------------------
 OpenMP Integral computing Module                
 Release: version 1.0, May 2013, Q-Chem Inc. Pittsburgh 
 -------------------------------------------------------
 using 32 threads for integral computing
 -------------------------------------------------------
 OpenMP Integral computing Module                
 Release: version 1.0, May 2013, Q-Chem Inc. Pittsburgh 
 -------------------------------------------------------
 -------------------------------------------------------
 OpenMP BLAS3 based DFT computing Module                
 Release: version 1.0, May 2013, Q-Chem Inc. Pittsburgh 
 -------------------------------------------------------
 A restricted SCF calculation will be
 performed using DIIS, GDM
 SCF converges when RMS gradient is below 1.0e-08
 ---------------------------------------
  Cycle       Energy         DIIS error
 ---------------------------------------
    1    -784.9335857908      2.08e-06  
    2    -784.9335839305      9.59e-07  Done DIIS. Switching to GDM
 ---------------------------------------
  Cycle       Energy        RMS Gradient
 ---------------------------------------
    1    -784.9335839305      1.81e-05   Normal BFGS step
    2    -784.9335839310      2.03e-05   Normal BFGS step
    3    -784.9335839352      1.87e-06   Normal BFGS step
    4    -784.9335839353      6.16e-07   Normal BFGS step
    5    -784.9335839353      2.07e-07   Normal BFGS step
    6    -784.9335839353      1.74e-07   Normal BFGS step
    7    -784.9335839353      1.18e-08   Normal BFGS step
    8    -784.9335839353      1.13e-08   Normal BFGS step
    9    -784.9335839353      1.31e-09  Convergence criterion met
 ---------------------------------------
 SCF time:   CPU 389.12s  wall 16.00s 
(0)  E-EN(g) gas-phase elect-nuc energy                    0.000000000 a.u.
(3)  G-ENP(liq) elect-nuc-pol free energy of system     -784.933583935 a.u.
(4)  G-CDS(liq) cavity-dispersion-solvent structure 
     free energy                                               -0.3957 kcal/mol
(6)  G-S(liq) free energy of system                     -784.934214516 a.u.
(9)  DeltaG-S(liq) free energy of  solvation
     (9) = (6) - (0)                                      -492553.6537 kcal/mol
 SCF   energy in the final basis set =     -784.9335839353
 Total energy in the final basis set =     -784.9342145165
 
 --------------------------------------------------------------
 
                    Orbital Energies (a.u.)
 --------------------------------------------------------------
 
 Alpha MOs
 -- Occupied --
-89.382 -19.389 -19.389 -19.346 -19.345 -10.399 -10.399  -8.366
 -6.318  -6.316  -6.315  -2.164  -1.354  -1.227  -1.207  -1.177
 -0.926  -0.814  -0.778  -0.678  -0.671  -0.637  -0.622  -0.593
 -0.571  -0.540  -0.523  -0.510  -0.490  -0.487  -0.485  -0.440
 -0.428
 -- Virtual --
  0.008   0.017   0.017   0.019   0.042   0.062   0.066   0.068
  0.070   0.085   0.089   0.089   0.093   0.115   0.122   0.133
  0.135   0.135   0.140   0.149   0.171   0.175   0.179   0.195
  0.203   0.204   0.212   0.216   0.216   0.220   0.239   0.247
  0.264   0.273   0.276   0.278   0.292   0.307   0.321   0.342
  0.346   0.351   0.354   0.365   0.383   0.393   0.404   0.405
  0.415   0.422   0.427   0.444   0.471   0.501   0.567   0.581
  0.610   0.644   0.665   0.675   0.684   0.731   0.744   0.764
  0.769   0.784   0.827   0.849   0.865   0.901   1.013   1.018
  1.062   1.103   1.114   1.133   1.142   1.171   1.185   1.238
  1.248   1.251   1.307   1.321   1.332   1.377   1.382   1.405
  1.409   1.424   1.448   1.489   1.493   1.522   1.583   1.642
  1.655   1.667   1.691   1.755   1.798   1.834   1.846   1.861
  1.904   1.914   1.959   1.983   1.986   2.001   2.033   2.063
  2.098   2.113   2.176   2.193   2.214   2.267   2.279   2.346
  2.391   2.411   2.508   2.601   2.642   2.648   2.667   2.740
  2.757   2.810   2.835   2.916   2.935   2.941   2.973   3.116
  3.377   3.395   3.535   3.592   4.063   4.212   4.295   4.308
  4.378   4.530   4.757
 --------------------------------------------------------------
 
          Ground-State Mulliken Net Atomic Charges

     Atom                 Charge (a.u.)
  ----------------------------------------
      1 Li                    0.771559
      2 C                    -0.150799
      3 O                    -0.530581
      4 C                    -0.148805
      5 S                     1.789998
      6 O                    -0.535269
      7 O                    -0.593960
      8 O                    -0.588258
      9 H                     0.256080
     10 H                     0.237595
     11 H                     0.237488
     12 H                     0.254951
  ----------------------------------------
  Sum of atomic charges =     1.000000

 -----------------------------------------------------------------
                    Cartesian Multipole Moments
 -----------------------------------------------------------------
    Charge (ESU x 10^10)
                 4.8032
    Dipole Moment (Debye)
         X       3.5260      Y       0.1750      Z      -0.4891
       Tot       3.5641
    Quadrupole Moments (Debye-Ang)
        XX       6.6234     XY       0.5284     YY     -46.1954
        XZ      -1.2814     YZ       0.3546     ZZ     -50.3546
    Octopole Moments (Debye-Ang^2)
       XXX     112.6082    XXY       2.0032    XYY      -2.2306
       YYY       1.1727    XXZ      -5.6366    XYZ       2.8787
       YYZ      -1.3049    XZZ      -6.3765    YZZ       0.2947
       ZZZ      -3.9954
    Hexadecapole Moments (Debye-Ang^3)
      XXXX       7.1367   XXXY       5.4748   XXYY     -97.3459
      XYYY      -0.2735   YYYY    -189.2050   XXXZ     -16.5047
      XXYZ       8.3161   XYYZ      -0.5226   YYYZ      -0.0860
      XXZZ    -110.1541   XYZZ       0.4619   YYZZ     -55.5698
      XZZZ      -2.2596   YZZZ       0.9563   ZZZZ    -161.8003
 -----------------------------------------------------------------
 Calculating analytic gradient of the SCF energy
 Gradient of CDS energy
            1           2           3           4           5           6
    1   0.0000589  -0.0004744   0.0001895  -0.0004526  -0.0000279   0.0001871
    2   0.0000023   0.0010606  -0.0001524  -0.0010674   0.0000147   0.0001544
    3  -0.0000075  -0.0000454  -0.0000860   0.0000536  -0.0000255   0.0000893
            7           8           9          10          11          12
    1  -0.0001265  -0.0001337   0.0001843   0.0002308   0.0001766   0.0001877
    2  -0.0000279   0.0000240  -0.0001062  -0.0001251   0.0001287   0.0000944
    3   0.0000974  -0.0000882   0.0000387   0.0000558  -0.0000646  -0.0000176
 Gradient of SCF Energy
            1           2           3           4           5           6
    1   0.0063599   0.0419819  -0.0266249   0.0436970  -0.0060196  -0.0260982
    2   0.0000403  -0.0309186   0.0237723   0.0279226  -0.0003344  -0.0236834
    3  -0.0003258   0.0200356   0.0048372  -0.0150821  -0.0004458  -0.0057414
            7           8           9          10          11          12
    1   0.0197458   0.0203798  -0.0317524  -0.0044331  -0.0072728  -0.0299632
    2   0.0145713  -0.0143650   0.0171124   0.0141081  -0.0115347  -0.0166910
    3  -0.0405987   0.0419079   0.0294554  -0.0404465   0.0379373  -0.0315331
 Max gradient component =       4.370E-02
 RMS gradient           =       2.423E-02
 Computing VTN gradient.
 Updating gradient with PCM contributions...
 -- total gradient after adding PCM contribution --
---------------------------------------------------
  Atom         X              Y              Z     
---------------------------------------------------
   1      -0.000007       0.000088      -0.000010
   2       0.000013      -0.000004       0.000068
   3      -0.000012      -0.000036       0.000086
   4      -0.000010      -0.000008      -0.000075
   5       0.000065      -0.000052       0.000026
   6      -0.000015       0.000031      -0.000097
   7      -0.000026       0.000099      -0.000017
   8      -0.000013      -0.000100      -0.000081
   9       0.000001      -0.000067       0.000124
  10      -0.000035       0.000080       0.000118
  11       0.000045      -0.000082      -0.000069
  12      -0.000005       0.000051      -0.000073
---------------------------------------------------
 Number of fixed atoms: 0
 Gradient time:  CPU 77.44 s  wall 3.49 s
 ----------------------------------------------------------------
             Standard Nuclear Orientation (Angstroms)
    I     Atom           X                Y                Z
 ----------------------------------------------------------------
    1      Li      3.1371203112     0.0394016823    -0.0988027054
    2      C      -1.8531765649     0.7562423702    -0.0172320906
    3      O      -0.5140025809     1.0889770017     0.4908754598
    4      C      -1.8654066493    -0.7604552786     0.0020048718
    5      S       0.5218835662    -0.0106646945     0.0420427380
    6      O      -0.5017897691    -1.1197094821    -0.4131465849
    7      O       1.3395174445     0.3983297074    -1.0990645032
[...]
     6    1.060768374208339e-02   5.742338164144426e-03   8.970793784068081e-03
     7    6.234198211178571e-04   6.947661438092284e-04  -4.070445845812955e-04
     8    9.939074666320432e-04   5.190465647163416e-04   1.033062624121354e-03
     9   -1.180368437568443e-04   3.506929627839712e-05   2.011279553728681e-04
    10    2.912193638381575e-04  -2.015055348579133e-04   5.377186055341111e-04
    11   -1.608661885964324e-02  -1.103400125219003e-02  -1.352170940566774e-02
    12    1.250316849955311e-01   8.668236124951179e-02   1.956733004017169e-01




 # Finishing finite difference calculation for IDERIV #
 ######################################################
 ######################################################
 Requested basis set is 6-31++G(d,p)
 There are 57 shells and 180 basis functions
 **********************************************************************
 **                                                                  **
 **                       VIBRATIONAL ANALYSIS                       **
 **                       --------------------                       **
 **                                                                  **
 **        VIBRATIONAL FREQUENCIES (CM**-1) AND NORMAL MODES         **
 **     FORCE CONSTANTS (mDYN/ANGSTROM) AND REDUCED MASSES (AMU)     **
 **                  INFRARED INTENSITIES (KM/MOL)                   **
 **                                                                  **
 **********************************************************************
 

 Mode:                 1                      2                      3
 Frequency:       -48.75                  75.11                 231.47
 Force Cnst:      0.0116                 0.0246                 0.1845
 Red. Mass:       8.2531                 7.4040                 5.8433
 IR Active:          YES                    YES                    YES
 IR Intens:       78.799                100.165                 22.974
 Raman Active:       YES                    YES                    YES
               X      Y      Z        X      Y      Z        X      Y      Z
 Li        -0.123 -0.416  0.806   -0.004  0.783  0.394   -0.078  0.019 -0.108
 C         -0.015 -0.036  0.067    0.065  0.096  0.042    0.096  0.091 -0.162
 O         -0.006 -0.020  0.046    0.102 -0.023 -0.009   -0.025 -0.128  0.236
 C          0.013 -0.036  0.063   -0.069  0.097  0.045   -0.069  0.083 -0.272
 S         -0.001  0.058 -0.113    0.000 -0.108 -0.055    0.002 -0.032  0.073
 O          0.015 -0.014  0.044   -0.101 -0.032  0.011    0.024 -0.085  0.143
 O         -0.097  0.080 -0.153   -0.017 -0.140 -0.076   -0.194 -0.042 -0.068
 O          0.146  0.087 -0.181    0.022 -0.110 -0.067    0.207  0.141 -0.013
 H         -0.009 -0.043  0.077    0.124  0.152  0.069   -0.021  0.055 -0.256
 H         -0.021 -0.042  0.068    0.052  0.105  0.046    0.222  0.283 -0.127
 H          0.033 -0.043  0.062   -0.076  0.106  0.051   -0.300  0.102 -0.299
 H          0.010 -0.043  0.069   -0.117  0.156  0.056    0.066  0.169 -0.449
 TransDip  -0.082 -0.127  0.241   -0.007  0.287  0.143   -0.031  0.072 -0.132

 Mode:                 4                      5                      6
 Frequency:       302.18                 322.89                 424.37
 Force Cnst:      0.4785                 0.4402                 0.3612
 Red. Mass:       8.8933                 7.1660                 3.4041
 IR Active:          YES                    YES                    YES
 IR Intens:        6.413                247.147                 28.020
 Raman Active:       YES                    YES                    YES
               X      Y      Z        X      Y      Z        X      Y      Z
 Li        -0.176  0.022 -0.038    0.950 -0.033  0.061    0.028 -0.007  0.010
 C          0.070  0.023 -0.254   -0.060  0.006 -0.033    0.149  0.005 -0.169
 O          0.019  0.080 -0.175   -0.084 -0.017  0.012   -0.000 -0.070  0.147
 C         -0.002  0.044  0.097   -0.091  0.010 -0.006    0.104  0.053  0.189
 S         -0.002 -0.018  0.033   -0.014  0.006 -0.015   -0.017 -0.031 -0.014
 O          0.034 -0.140  0.290   -0.074 -0.034  0.090    0.013  0.007 -0.160
 O         -0.093  0.377  0.114   -0.079  0.071 -0.027   -0.107  0.046 -0.041
 O          0.068 -0.349 -0.133   -0.017 -0.033 -0.033   -0.103  0.035  0.061
 H          0.017  0.182 -0.405   -0.079  0.026 -0.063   -0.001  0.188 -0.435
 H          0.028 -0.122 -0.351   -0.062  0.002 -0.043    0.221 -0.138 -0.285
 H         -0.064  0.166  0.180   -0.143  0.028 -0.001    0.305  0.157  0.305
 H          0.037 -0.104  0.148   -0.065  0.003 -0.027   -0.052 -0.143  0.454
 TransDip  -0.072  0.012 -0.034    0.503  0.006 -0.013    0.156 -0.061  0.027

 Mode:                 7                      8                      9
 Frequency:       454.41                 459.15                 517.44
 Force Cnst:      1.3794                 0.8591                 2.3835
 Red. Mass:      11.3380                 6.9163                15.1091
 IR Active:          YES                    YES                    YES
 IR Intens:       40.124                 28.763                 71.077
 Raman Active:       YES                    YES                    YES
               X      Y      Z        X      Y      Z        X      Y      Z
 Li        -0.041 -0.046 -0.052   -0.008  0.041  0.001   -0.092  0.055 -0.106
 C         -0.037  0.070  0.008   -0.176 -0.060 -0.210    0.032  0.012 -0.043
 O         -0.019 -0.270 -0.076   -0.191 -0.017  0.090   -0.127 -0.168  0.395
 C         -0.280  0.110  0.131   -0.057  0.006  0.114   -0.042  0.025  0.032
 S          0.019 -0.192 -0.096    0.010  0.078  0.081    0.011  0.162 -0.254
 O         -0.204 -0.107 -0.075   -0.072  0.222 -0.072    0.076 -0.102  0.394
 O          0.298  0.278  0.242    0.154 -0.192  0.072    0.450 -0.048 -0.087
 O          0.174  0.338 -0.006    0.289 -0.128 -0.165   -0.368 -0.069 -0.124
 H          0.083  0.247  0.025   -0.271  0.099 -0.403   -0.119  0.031 -0.206
 H         -0.053  0.026 -0.013   -0.101 -0.175 -0.305    0.129  0.108 -0.052
 H         -0.172  0.145  0.178    0.086  0.081  0.197   -0.168  0.088  0.059
 H         -0.345  0.073  0.216   -0.063 -0.275  0.285    0.090 -0.047 -0.047
 TransDip  -0.153 -0.128 -0.034   -0.154  0.054  0.054   -0.044  0.160 -0.213

 Mode:                10                     11                     12
 Frequency:       664.94                 680.08                 801.27
 Force Cnst:      3.6478                 1.1767                 3.7396
 Red. Mass:      14.0028                 4.3180                 9.8859
 IR Active:          YES                    YES                    YES
 IR Intens:       27.071                  1.653                 10.532
 Raman Active:       YES                    YES                    YES
               X      Y      Z        X      Y      Z        X      Y      Z
 Li        -0.113 -0.006  0.017   -0.004  0.011 -0.012    0.066  0.002 -0.003
 C         -0.188 -0.050 -0.046    0.232 -0.216 -0.025    0.184 -0.015  0.017
 O         -0.017 -0.373 -0.139    0.165  0.071  0.045    0.098 -0.364 -0.178
 C         -0.204  0.033  0.028   -0.195 -0.206  0.004    0.204  0.003 -0.030
 S          0.319  0.003  0.006   -0.002  0.075  0.013   -0.201 -0.003 -0.000
 O         -0.047  0.382  0.128   -0.185  0.075  0.005    0.057  0.373  0.178
 O         -0.119  0.124 -0.325    0.014  0.021  0.004   -0.071 -0.066  0.206
 O         -0.092 -0.119  0.329   -0.008  0.024 -0.008   -0.071  0.073 -0.202
 H          0.093  0.190  0.095    0.199  0.130 -0.288    0.405  0.037  0.193
 H         -0.223 -0.055 -0.042    0.218 -0.421 -0.160    0.120  0.070  0.066
 H         -0.229  0.020  0.013   -0.344 -0.315 -0.109    0.170 -0.013 -0.049
 H          0.041 -0.212 -0.059   -0.203  0.163 -0.223    0.377 -0.135 -0.095
 TransDip   0.167  0.000  0.003    0.021 -0.006 -0.035   -0.103  0.004 -0.013

 Mode:                13                     14                     15
 Frequency:       841.34                 914.27                 930.35
 Force Cnst:      3.5073                 1.8650                 1.8631
 Red. Mass:       8.4098                 3.7868                 3.6534
 IR Active:          YES                    YES                    YES
 IR Intens:      299.335                 37.016                225.274
 Raman Active:       YES                    YES                    YES
               X      Y      Z        X      Y      Z        X      Y      Z
 Li         0.003  0.013  0.009    0.005  0.001  0.000    0.020  0.000 -0.001
 C         -0.044  0.045 -0.036   -0.228  0.005 -0.144   -0.100  0.152 -0.006
 O          0.133 -0.307 -0.122    0.254  0.046  0.101    0.123 -0.003  0.024
 C          0.021  0.042  0.009    0.122 -0.082 -0.077   -0.256 -0.144  0.045
 S         -0.005  0.309  0.116   -0.009 -0.029 -0.017   -0.040  0.005  0.003
 O         -0.112 -0.317 -0.130   -0.161  0.025  0.050    0.252  0.004 -0.048
 O         -0.005 -0.054 -0.006    0.011  0.037  0.012   -0.023 -0.021  0.021
 O          0.004 -0.059 -0.009   -0.015  0.035  0.009   -0.017  0.001 -0.029
 H          0.362  0.130  0.319   -0.094 -0.259  0.152    0.148  0.667 -0.062
 H          0.030  0.333  0.104   -0.127  0.383  0.019    0.004  0.068 -0.068
 H          0.024  0.188  0.121    0.173  0.078  0.057   -0.101 -0.176  0.052
 H         -0.322  0.103  0.287    0.150 -0.644  0.223    0.014 -0.519  0.012
 TransDip  -0.026  0.527  0.169   -0.141 -0.068 -0.117   -0.480 -0.014  0.027

 Mode:                16                     17                     18
 Frequency:      1027.94                1057.65                1199.57
 Force Cnst:      1.9780                 0.9372                 9.7130
 Red. Mass:       3.1773                 1.4220                11.4565
 IR Active:          YES                    YES                    YES
 IR Intens:      282.172                 47.427                492.835
 Raman Active:       YES                    YES                    YES
               X      Y      Z        X      Y      Z        X      Y      Z
 Li         0.013  0.000 -0.002   -0.002  0.002 -0.005   -0.041  0.002  0.001
 C         -0.141 -0.217 -0.036   -0.109  0.046  0.034   -0.018 -0.010  0.078
 O          0.166 -0.017  0.024    0.032 -0.025  0.012   -0.040  0.033  0.011
 C         -0.084  0.219  0.036    0.123 -0.034  0.030   -0.043  0.038 -0.089
 S         -0.027 -0.002 -0.001    0.004 -0.004 -0.004    0.350  0.021 -0.037
 O          0.144  0.009 -0.007   -0.039 -0.017  0.003   -0.056 -0.045 -0.008
 O         -0.022 -0.011  0.025   -0.003  0.003  0.005   -0.281 -0.140  0.392
 O         -0.023  0.014 -0.026   -0.001  0.006 -0.003   -0.236  0.108 -0.314
 H         -0.316 -0.408 -0.096   -0.107  0.581 -0.289   -0.225  0.142 -0.218
 H         -0.107 -0.275 -0.058   -0.113 -0.345 -0.175   -0.046 -0.195 -0.013
 H         -0.101  0.194  0.008   -0.056 -0.190 -0.125    0.054  0.122 -0.002
 H         -0.227  0.596 -0.051    0.179  0.437 -0.301   -0.161 -0.394  0.268
 TransDip  -0.537  0.018 -0.033    0.081  0.149 -0.141    0.708  0.025 -0.064

 Mode:                19                     20                     21
 Frequency:      1223.46                1271.21                1292.49
 Force Cnst:      1.5130                 1.1182                19.5600
 Red. Mass:       1.7156                 1.1744                19.8731
 IR Active:          YES                    YES                    YES
 IR Intens:        4.564                 11.052                440.068
 Raman Active:       YES                    YES                    YES
               X      Y      Z        X      Y      Z        X      Y      Z
 Li        -0.002 -0.002  0.000    0.000 -0.001  0.002   -0.001 -0.016  0.047
 C         -0.012  0.075 -0.132   -0.016 -0.058 -0.054   -0.012  0.008  0.012
 O         -0.012  0.003  0.010   -0.025  0.029  0.039   -0.004  0.004 -0.030
 C          0.004 -0.102  0.149    0.006  0.062 -0.012    0.006 -0.013 -0.003
 S          0.030 -0.005 -0.005    0.002 -0.008  0.001    0.052 -0.169  0.488
 O          0.014  0.013 -0.023    0.000 -0.012 -0.007   -0.007  0.003 -0.025
 O         -0.024 -0.013  0.033   -0.000 -0.001  0.003    0.263  0.152 -0.425
 O         -0.022  0.012 -0.027   -0.006  0.005 -0.008   -0.343  0.183 -0.524
 H          0.129 -0.422  0.319    0.694  0.216  0.483   -0.088  0.017 -0.064
 H         -0.039  0.366  0.030   -0.256 -0.321 -0.104    0.037  0.049  0.018
 H         -0.329 -0.164  0.037   -0.046  0.082 -0.008   -0.014  0.003  0.006
 H          0.114  0.505 -0.318    0.159 -0.088 -0.060   -0.083  0.039  0.050
 TransDip   0.066 -0.013  0.013    0.092 -0.050 -0.020    0.074 -0.218  0.631

 Mode:                22                     23                     24
 Frequency:      1301.75                1405.64                1589.27
 Force Cnst:      1.1712                 1.5162                 1.6855
 Red. Mass:       1.1731                 1.3024                 1.1326
 IR Active:          YES                    YES                    YES
 IR Intens:        8.420                  1.938                  3.715
 Raman Active:       YES                    YES                    YES
               X      Y      Z        X      Y      Z        X      Y      Z
 Li         0.000  0.001 -0.003   -0.000  0.000 -0.001    0.001 -0.001  0.002
 C          0.019 -0.024  0.037   -0.043 -0.146 -0.004    0.004 -0.012 -0.020
 O          0.010 -0.005 -0.011   -0.026  0.028 -0.008    0.003  0.001 -0.003
 C         -0.013  0.069  0.059    0.023  0.015  0.015   -0.082  0.038  0.030
 S         -0.003  0.011  0.005    0.004 -0.011 -0.006    0.006  0.006  0.005
 O         -0.021 -0.025 -0.039    0.006  0.004 -0.000   -0.023 -0.018  0.009
 O          0.001 -0.001 -0.004   -0.004  0.001  0.005   -0.002 -0.005  0.002
 O          0.001 -0.002 -0.004   -0.002  0.003 -0.002   -0.004  0.002 -0.003
 H         -0.177 -0.093 -0.119    0.213  0.490 -0.135    0.002 -0.041 -0.003
 H          0.066 -0.012  0.032    0.351  0.666  0.285    0.029  0.084  0.020
 H         -0.421  0.138  0.033   -0.061  0.070  0.040    0.830 -0.268 -0.031
 H          0.691 -0.396 -0.309    0.010  0.105 -0.021    0.316  0.039 -0.341
 TransDip   0.030  0.011  0.087    0.021  0.038 -0.008    0.009  0.053 -0.030

 Mode:                25                     26                     27
 Frequency:      1779.17                1964.50                3215.41
 Force Cnst:      2.0958                 2.4370                 6.6341
 Red. Mass:       1.1238                 1.0718                 1.0891
 IR Active:          YES                    YES                    YES
 IR Intens:       10.183                  8.445                  1.667
 Raman Active:       YES                    YES                    YES
               X      Y      Z        X      Y      Z        X      Y      Z
 Li         0.000  0.000  0.001   -0.000  0.004 -0.006    0.000 -0.000 -0.000
 C          0.000  0.007  0.021   -0.064  0.014  0.035   -0.002  0.002  0.002
 O          0.001 -0.001  0.004   -0.007  0.002 -0.005    0.001  0.000  0.000
 C         -0.018 -0.086 -0.047    0.002 -0.001 -0.002   -0.054 -0.037 -0.056
 S          0.001 -0.001 -0.000    0.002 -0.001 -0.002    0.000  0.000  0.000
 O         -0.000  0.009 -0.006   -0.005  0.002  0.004   -0.000  0.000  0.000
 O          0.000  0.004  0.002   -0.003  0.005 -0.000   -0.000  0.000  0.000
 O         -0.000 -0.004 -0.001    0.001 -0.002 -0.004   -0.000 -0.000 -0.000
 H         -0.016  0.024 -0.003    0.054 -0.107  0.255    0.019 -0.014 -0.020
 H         -0.033 -0.063 -0.002    0.827 -0.144 -0.459   -0.000  0.000 -0.004
 H          0.170  0.693  0.601    0.011  0.006  0.006    0.006  0.017 -0.009
 H          0.049  0.177 -0.282   -0.000  0.001 -0.003    0.619  0.401  0.669
 TransDip   0.074  0.014  0.069    0.040 -0.078  0.032    0.006  0.008  0.040

 Mode:                28                     29                     30
 Frequency:      3230.91                3862.79                5978.09
 Force Cnst:      6.6986                 9.5324                22.8039
 Red. Mass:       1.0891                 1.0843                 1.0830
 IR Active:          YES                    YES                    YES
 IR Intens:        8.532                  6.123                 11.759
 Raman Active:       YES                    YES                    YES
               X      Y      Z        X      Y      Z        X      Y      Z
 Li        -0.000  0.000 -0.000   -0.000  0.002 -0.003   -0.000 -0.001 -0.000
 C         -0.058  0.036  0.052   -0.025  0.037 -0.070   -0.000 -0.000 -0.002
 O         -0.000 -0.000 -0.000   -0.001 -0.001  0.002    0.000  0.001 -0.003
 C          0.002  0.001  0.002    0.001 -0.002  0.001    0.013  0.052 -0.063
 S          0.000 -0.000 -0.000    0.000 -0.000 -0.001   -0.000 -0.000 -0.000
 O          0.001 -0.000 -0.000   -0.003  0.001  0.002   -0.000 -0.001  0.002
 O         -0.000  0.000 -0.000   -0.002  0.003 -0.000    0.000 -0.003 -0.001
 O          0.000 -0.000 -0.000    0.001 -0.001 -0.002    0.000  0.003  0.001
 H          0.647 -0.397 -0.643   -0.016  0.006  0.036    0.001  0.002 -0.003
 H          0.031 -0.020  0.032    0.362 -0.457  0.807    0.001 -0.003 -0.002
 H          0.001 -0.000  0.002    0.003 -0.003 -0.001   -0.152 -0.603  0.778
 H         -0.020 -0.011 -0.021    0.001  0.003  0.004    0.003 -0.000  0.008
 TransDip   0.048 -0.011 -0.080   -0.052  0.026 -0.054    0.055 -0.072 -0.062

 STANDARD THERMODYNAMIC QUANTITIES AT   298.15 K  AND     1.00 ATM

   This Molecule has  1 Imaginary Frequencies
   Zero point vibrational energy:       55.781 kcal/mol

   Atom    1 Element Li Has Mass    7.01600
   Atom    2 Element C  Has Mass   12.00000
   Atom    3 Element O  Has Mass   15.99491
   Atom    4 Element C  Has Mass   12.00000
   Atom    5 Element S  Has Mass   31.97207
   Atom    6 Element O  Has Mass   15.99491
   Atom    7 Element O  Has Mass   15.99491
   Atom    8 Element O  Has Mass   15.99491
   Atom    9 Element H  Has Mass    1.00783
   Atom   10 Element H  Has Mass    1.00783
   Atom   11 Element H  Has Mass    1.00783
   Atom   12 Element H  Has Mass    1.00783
   Molecular Mass:   130.999030 amu
   Principal axes and moments of inertia in amu*Bohr^2:
                             1           2           3
    Eigenvalues --      409.53253  1063.86403  1109.18373
          X               0.99999    -0.00413     0.00116
          Y               0.00417     0.99939    -0.03475
          Z              -0.00101     0.03475     0.99940
   Rotational Symmetry Number is   1
   The Molecule is an Asymmetric Top
   Translational Enthalpy:        0.889 kcal/mol
   Rotational Enthalpy:           0.889 kcal/mol
   Vibrational Enthalpy:         58.138 kcal/mol
   gas constant (RT):             0.592 kcal/mol
   Translational Entropy:        40.523  cal/mol.K
   Rotational Entropy:           27.671  cal/mol.K
   Vibrational Entropy:          13.299  cal/mol.K

   Total Enthalpy:               60.507 kcal/mol
   Total Entropy:                81.493  cal/mol.K
Archival summary:
1\1\nid01014\FREQ\ProcedureUnspecified\BasisUnspecified\142i14(1+,1)\sblau\FriDec2817:38:262018FriDec2817:38:262018\0\\#,FREQ,ProcedureUnspecified,BasisUnspecified,\\1,1\S\O,1,1.45706\O,1,1.46217,2,111.303\O,1,1.57598,2,110.063,3,-126.396,0\C,4,1.47047,1,110.018,2,-133.497,0\H,5,1.08688,4,106.328,1,152.384,0\H,5,1.08887,4,107.976,1,-87.3165,0\C,5,1.51687,4,103.251,1,32.9771,0\H,8,1.08551,5,112.714,4,78.4259,0\H,8,1.0869,5,113.297,4,-152.876,0\O,8,1.46999,5,103.492,4,-38.0455,0\Li,3,2.08872,1,93.387,2,0.347244,0\\\@

 Total job time:  1518.37s(wall), 38713.72s(cpu) 
 Fri Dec 28 17:38:26 2018

        *************************************************************
        *                                                           *
        *  Thank you very much for using Q-Chem.  Have a nice day.  *
        *                                                           *
        *************************************************************


