   10   10    1    1
  0.1082883E+02  0.5342032E-09  0.5342032E-09  0.5342032E-09  0.5000000E-15
  1.000000000000000E-004
  CAR
 rLAO
   64   60  192

  0.6250000E-01  0.6250000E-01  0.6250000E-01  0.3906250E-02
   1      -25.026620
   2      -24.738794
   3      -12.729408
   4      -11.503067
   5      -11.503066
   6      -11.436009
   7      -10.880897
   8      -10.880897
   9       -8.200573
  10       -8.021517
  11       -8.021517
  12       -7.537113
  13       -7.500583
  14       -7.500583
  15       -0.993112
  16        2.292030
  17        2.295877
  18        2.295877
  19        4.430597
  20        4.477580
  21        4.477580
  22        5.303381
  23        5.303381
  24        5.324631
  25        5.442696
  26        5.442696
  27        6.572632
  28        6.645643
  29        6.645643
  30        6.780182
  31        6.780182
  32        6.795888
  33       12.436483
  34       12.436484
  35       14.124855
  36       14.423371
  37       14.423371
  38       14.594374
  39       14.594374
  40       14.698031
  41       14.698443
  42       14.829000
  43       14.829000
  44       14.885024
  45       15.038437
  46       15.166611
  47       15.181024
  48       15.181024
  49       15.313709
  50       15.337168
  51       15.337169
  52       15.432744
  53       15.432745
  54       15.461014
  55       15.783083
  56       17.448042
  57       17.448042
  58       18.295587
  59       21.758987
  60       22.238960
  61       22.238960
  62       22.364359
  63       24.236414
  64       24.757687
  65       24.809166
  66       24.809166
  67       25.523356
  68       25.523356
  69       25.661436
  70       26.517895
  71       26.829148
  72       26.829148
  73       28.354455
  74       28.354455
  75       28.933683
  76       29.772411
  77       30.142975
  78       30.142975
  79       31.933904
  80       31.933904
  81       32.343757
  82       33.338662
  83       33.877992
  84       33.877992
  85       34.365091
  86       35.015453
  87       35.015453
  88       35.520052
  89       37.310617
  90       37.310617
  91       38.085032
  92       38.085032
  93       38.327588
  94       38.858219
  95       39.375290
  96       39.375291
  97       39.594333
  98       39.594333
  99       40.212148
 100       40.212148
 101       40.215510
 102       40.356979
 103       40.356979
 104       40.840891
 105       42.147473
 106       43.351362
 107       43.351362
 108       43.551440
 109       43.636431
 110       43.636431
 111       43.835413
 112       43.835413
 113       43.895814
 114       43.895814
 115       44.023843
 116       46.670197
 117       46.670197
 118       47.203951
 119       47.309716
 120       48.315933
 121       48.315933
 122       48.545795
 123       49.806612
 124       49.806612
 125       50.043812
 126       50.211293
 127       50.898761
 128       50.898761
 129       51.012998
 130       51.223194
 131       51.223194
 132       51.688482
 133       53.766043
 134       53.766044
 135       54.853148
 136       55.057172
 137       55.057172
 138       56.628050
 139       56.796538
 140       56.796538
 141       57.389181
 142       57.389181
 143       57.486689
 144       57.810211
 145       57.958304
 146       58.091543
 147       58.250578
 148       58.250578
 149       58.573666
 150       58.622960
 151       58.622961
 152       58.884437
 153       58.913958
 154       58.913958
 155       59.106001
 156       59.109566
 157       59.109566
 158       59.198549
 159       59.753626
 160       59.757423
 161       59.757423
 162       60.017840
 163       60.017840
 164       60.107501
 165       60.323951
 166       60.909382
 167       60.909382
 168       60.963068
 169       61.209319
 170       61.209319
 171       62.098162
 172       62.098162
 173       62.196912
 174       62.490682
 175       62.782231
 176       63.420090
 177       63.549543
 178       63.549544
 179       64.012907
 180       64.012907
 181       64.184823
 182       65.182914
 183       65.276348
 184       65.276348
 185       65.698698
 186       66.532580
 187       66.532581
 188       67.043935
 189       67.043936
 190       67.355066
 191       67.885571
 192       68.548789

  0.1875000E+00  0.6250000E-01  0.6250000E-01  0.1171875E-01
   1      -25.009794
   2      -24.751152
   3      -12.768887
   4      -11.735184
   5      -11.498206
   6      -11.435221
   7      -10.963052
   8      -10.887942
   9       -8.058760
  10       -8.006164
  11       -7.784059
  12       -7.499500
  13       -7.413352
  14       -7.331368
  15       -0.799367
  16        2.011467
  17        2.336490
  18        2.473547
  19        4.134646
  20        4.408759
  21        4.435756
  22        4.989977
  23        5.014689
  24        5.236571
  25        5.398476
  26        5.467070
  27        6.228141
  28        6.518414
  29        6.547608
  30        6.613742
  31        6.739660
  32        6.797362
  33       12.654665
  34       12.718080
  35       14.328980
  36       14.561239
  37       14.597864
  38       14.598227
  39       14.657221
  40       14.693284
  41       14.752950
  42       14.839453
  43       14.886471
  44       14.967325
  45       15.080337
  46       15.183803
  47       15.190176
  48       15.307913
  49       15.309017
  50       15.339821
  51       15.514177
  52       15.528242
  53       15.612785
  54       15.630003
  55       16.115918
  56       17.289180
  57       17.492831
  58       18.645384
  59       21.707825
  60       21.997550
  61       22.420378
  62       22.502684
  63       24.209107
  64       24.249051
  65       24.921569
  66       25.035001
  67       25.242814
  68       25.646594
  69       25.779296
  70       26.393737
  71       26.433714
  72       26.826942
  73       27.594976
  74       27.787302
  75       29.060726
  76       30.029805
  77       30.928066
  78       31.076199
  79       31.416717
  80       32.059472
  81       32.929508
  82       33.082978
  83       33.623391
  84       33.694745
  85       34.459291
  86       34.623581
  87       34.829511
  88       35.395345
  89       36.085814
  90       37.210443
  91       37.216251
  92       37.594748
  93       37.881246
  94       38.058498
  95       38.811207
  96       38.911956
  97       39.029944
  98       39.349303
  99       39.827677
 100       40.556190
 101       41.011313
 102       41.088867
 103       41.441718
 104       41.772624
 105       42.795906
 106       42.973911
 107       43.569651
 108       43.707585
 109       43.855684
 110       44.026387
 111       44.301355
 112       44.385019
 113       44.558533
 114       44.728427
 115       44.946781
 116       45.775829
 117       46.654852
 118       47.017086
 119       47.262040
 120       48.009845
 121       48.128137
 122       48.372551
 123       48.715676
 124       49.143022
 125       49.699408
 126       49.830151
 127       51.024248
 128       51.480371
 129       51.908448
 130       51.915054
 131       52.211807
 132       52.761547
 133       53.237227
 134       53.537610
 135       54.783534
 136       54.937432
 137       55.289433
 138       55.685324
 139       55.904574
 140       56.287247
 141       56.520468
 142       56.627742
 143       57.061975
 144       57.062352
 145       57.401794
 146       57.438438
 147       57.799292
 148       57.865154
 149       58.011715
 150       58.517260
 151       58.703858
 152       58.999187
 153       59.173116
 154       59.193553
 155       59.222182
 156       59.251558
 157       59.265408
 158       59.523993
 159       59.657334
 160       59.671236
 161       59.944734
 162       59.982282
 163       60.299281
 164       60.376309
 165       60.545620
 166       60.709538
 167       60.909164
 168       61.145653
 169       61.362578
 170       61.889157
 171       61.898302
 172       62.069146
 173       62.600852
 174       62.654608
 175       62.817710
 176       62.978986
 177       63.761109
 178       63.848265
 179       64.494527
 180       65.230974
 181       65.337856
 182       65.697047
 183       65.892614
 184       66.294251
 185       66.411520
 186       66.814043
 187       67.304494
 188       67.712292
 189       68.297777
 190       68.446693
 191       69.470188
 192       69.734075

  0.3125000E+00  0.6250000E-01  0.6250000E-01  0.1171875E-01
   1      -24.971188
   2      -24.781106
   3      -12.820514
   4      -12.132072
   5      -11.533333
   6      -11.360968
   7      -11.099602
   8      -10.957292
   9       -7.896221
  10       -7.849085
  11       -7.404881
  12       -7.329761
  13       -7.286873
  14       -7.041338
  15       -0.372043
  16        1.468764
  17        2.542198
  18        2.795538
  19        3.648351
  20        4.244113
  21        4.313470
  22        4.506462
  23        4.578734
  24        4.835523
  25        5.178852
  26        5.387788
  27        5.606085
  28        6.328514
  29        6.399489
  30        6.470198
  31        6.646865
  32        6.769708
  33       13.155190
  34       13.199484
  35       14.510322
  36       14.527835
  37       14.579340
  38       14.708537
  39       14.754838
  40       14.794344
  41       14.815937
  42       14.889222
  43       14.950062
  44       14.990346
  45       15.207075
  46       15.211511
  47       15.281428
  48       15.377822
  49       15.447768
  50       15.607943
  51       15.696798
  52       15.821542
  53       16.065551
  54       16.178682
  55       16.911386
  56       17.140398
  57       17.465641
  58       19.512027
  59       20.793080
  60       22.210850
  61       22.659400
  62       22.986117
  63       23.566372
  64       24.030257
  65       24.975183
  66       25.033634
  67       25.491406
  68       25.526492
  69       25.811762
  70       26.114082
  71       26.333614
  72       26.761701
  73       26.857076
  74       27.242365
  75       29.564004
  76       29.758253
  77       30.225898
  78       30.560627
  79       32.349887
  80       32.544917
  81       32.667474
  82       32.935075
  83       33.063979
  84       33.758388
  85       34.288972
  86       34.339126
  87       34.443546
  88       35.723046
  89       35.772152
  90       35.891521
  91       36.053439
  92       36.703693
  93       37.529441
  94       37.825026
  95       38.606839
  96       38.898406
  97       39.359737
  98       39.428042
  99       40.149312
 100       41.375755
 101       41.574593
 102       41.621365
 103       42.065625
 104       42.130454
 105       42.597589
 106       43.002921
 107       43.674828
 108       44.087358
 109       44.400808
 110       44.416200
 111       44.982946
 112       45.015337
 113       45.196009
 114       45.300178
 115       45.768915
 116       45.846452
 117       46.250235
 118       46.453316
 119       46.833755
 120       47.249325
 121       47.292793
 122       47.697937
 123       48.582039
 124       48.591491
 125       49.788987
 126       50.619978
 127       50.672679
 128       50.949126
 129       52.272383
 130       52.565094
 131       52.892194
 132       53.067957
 133       53.650050
 134       53.853246
 135       54.144774
 136       54.700736
 137       54.992392
 138       55.158843
 139       55.314419
 140       56.118784
 141       56.247025
 142       56.520845
 143       56.651509
 144       56.778426
 145       57.032051
 146       57.260611
 147       57.353944
 148       57.487200
 149       57.498279
 150       58.354914
 151       58.461028
 152       58.548780
 153       58.640692
 154       58.940920
 155       59.221783
 156       59.312730
 157       59.333080
 158       59.465074
 159       59.551103
 160       59.553904
 161       59.907943
 162       60.109875
 163       60.388944
 164       60.448001
 165       60.680566
 166       61.055900
 167       61.301220
 168       61.589727
 169       62.135110
 170       62.171913
 171       62.299204
 172       62.551671
 173       62.740902
 174       63.467315
 175       63.986367
 176       64.163674
 177       64.759166
 178       64.926085
 179       65.123314
 180       65.316221
 181       65.711599
 182       66.296970
 183       66.408395
 184       67.525715
 185       67.627071
 186       67.951781
 187       68.196390
 188       68.941959
 189       68.975874
 190       69.722463
 191       69.727559
 192       69.817714

  0.4375000E+00  0.6250000E-01  0.6250000E-01  0.1171875E-01
   1      -24.918535
   2      -24.825977
   3      -12.800588
   4      -12.493239
   5      -11.538712
   6      -11.291212
   7      -11.234098
   8      -11.046662
   9       -7.739626
  10       -7.654028
  11       -7.356489
  12       -7.202753
  13       -6.920841
  14       -6.800654
  15        0.138050
  16        0.912493
  17        2.898778
  18        3.227086
  19        3.434094
  20        3.847914
  21        4.039241
  22        4.078195
  23        4.347448
  24        4.462551
  25        4.543841
  26        4.763436
  27        5.827006
  28        6.205046
  29        6.281311
  30        6.347442
  31        6.571059
  32        6.711464
  33       13.673346
  34       13.705905
  35       14.305391
  36       14.335270
  37       14.672943
  38       14.703674
  39       14.787533
  40       14.839891
  41       14.897514
  42       14.910073
  43       14.972619
  44       14.987025
  45       15.228250
  46       15.273676
  47       15.313587
  48       15.497555
  49       15.703591
  50       15.726845
  51       15.964518
  52       16.119094
  53       16.695956
  54       16.719021
  55       17.215901
  56       17.382484
  57       17.913788
  58       19.724387
  59       20.705932
  60       22.088796
  61       23.006699
  62       23.016804
  63       23.583241
  64       23.777216
  65       24.507949
  66       24.580047
  67       25.409857
  68       25.660337
  69       26.089762
  70       26.389434
  71       26.491481
  72       26.721283
  73       26.742102
  74       27.221864
  75       28.374794
  76       29.124906
  77       30.116379
  78       30.596297
  79       31.523099
  80       31.852813
  81       32.258468
  82       32.529601
  83       32.926768
  84       33.461412
  85       34.058082
  86       34.480661
  87       34.655777
  88       34.770929
  89       34.990267
  90       35.271254
  91       37.290311
  92       37.626304
  93       38.363835
  94       38.576403
  95       39.315496
  96       39.705502
  97       40.008103
  98       40.026607
  99       40.084882
 100       40.878466
 101       41.517872
 102       41.912674
 103       42.062170
 104       42.094834
 105       42.182126
 106       42.890246
 107       43.117205
 108       43.269836
 109       43.671816
 110       44.072806
 111       44.470346
 112       44.631872
 113       44.904611
 114       45.342132
 115       45.616507
 116       46.619007
 117       46.681127
 118       47.084079
 119       47.264963
 120       47.697909
 121       48.128626
 122       48.271603
 123       48.755971
 124       48.972390
 125       49.321543
 126       49.632999
 127       49.914998
 128       50.411786
 129       50.918360
 130       51.655056
 131       52.834011
 132       52.890812
 133       53.356005
 134       54.139470
 135       54.376554
 136       54.663383
 137       55.567776
 138       55.720512
 139       56.030269
 140       56.301427
 141       56.396914
 142       56.525692
 143       56.717870
 144       56.992074
 145       57.063701
 146       57.316115
 147       57.408700
 148       57.816655
 149       58.000641
 150       58.094003
 151       58.461619
 152       58.562324
 153       58.768580
 154       59.032339
 155       59.048584
 156       59.301282
 157       59.319445
 158       59.530789
 159       59.622715
 160       59.781519
 161       59.936899
 162       60.200487
 163       60.356695
 164       60.404107
 165       60.997465
 166       61.167364
 167       61.215954
 168       61.749986
 169       62.384863
 170       62.534003
 171       63.423240
 172       63.431088
 173       63.638151
 174       63.801244
 175       64.716426
 176       64.975775
 177       65.007809
 178       65.044391
 179       65.240469
 180       65.536995
 181       65.880754
 182       66.221233
 183       66.482047
 184       66.801131
 185       67.150718
 186       67.738555
 187       67.843800
 188       68.280836
 189       68.852983
 190       69.181201
 191       69.620692
 192       69.636309

 -0.4375000E+00  0.6250000E-01  0.6250000E-01  0.1171875E-01
   1      -24.880628
   2      -24.861539
   3      -12.734308
   4      -12.654362
   5      -11.548583
   6      -11.270674
   7      -11.270478
   8      -11.062034
   9       -7.692968
  10       -7.593708
  11       -7.353848
  12       -7.175753
  13       -6.776435
  14       -6.748460
  15        0.445956
  16        0.593969
  17        3.155767
  18        3.428570
  19        3.492745
  20        3.604647
  21        3.788767
  22        3.900204
  23        4.250301
  24        4.320865
  25        4.434848
  26        4.547241
  27        5.985295
  28        6.082361
  29        6.218534
  30        6.372484
  31        6.559488
  32        6.674089
  33       13.953112
  34       13.965275
  35       14.070112
  36       14.202539
  37       14.694249
  38       14.701452
  39       14.810060
  40       14.812863
  41       14.901820
  42       14.945633
  43       14.966571
  44       14.984146
  45       15.229536
  46       15.265658
  47       15.394226
  48       15.540152
  49       15.676226
  50       15.719756
  51       16.126721
  52       16.188251
  53       16.871007
  54       16.984796
  55       17.303923
  56       17.307435
  57       18.650048
  58       18.981116
  59       21.427838
  60       21.744533
  61       23.064080
  62       23.125609
  63       23.455791
  64       23.911775
  65       23.930998
  66       24.520747
  67       25.671797
  68       25.682321
  69       26.035691
  70       26.433105
  71       26.608198
  72       26.650323
  73       26.885715
  74       27.589432
  75       27.995116
  76       28.255575
  77       30.390315
  78       30.739321
  79       31.076665
  80       31.521640
  81       32.056789
  82       32.340612
  83       33.051333
  84       33.453090
  85       33.667522
  86       34.302338
  87       34.574878
  88       34.791958
  89       34.855434
  90       34.946905
  91       38.163897
  92       38.615102
  93       39.145885
  94       39.394004
  95       39.540067
  96       39.840740
  97       39.922127
  98       40.031603
  99       40.507750
 100       40.670379
 101       41.188016
 102       41.511561
 103       41.681904
 104       41.702623
 105       42.004862
 106       42.645904
 107       42.755085
 108       43.024161
 109       43.292213
 110       43.552108
 111       43.909628
 112       44.608565
 113       44.827317
 114       45.247071
 115       46.163185
 116       46.938851
 117       47.108913
 118       47.768714
 119       48.033766
 120       48.065351
 121       48.315348
 122       48.573805
 123       48.660571
 124       48.936379
 125       49.198547
 126       49.329218
 127       49.471738
 128       50.121755
 129       50.415579
 130       50.435727
 131       52.861637
 132       52.972849
 133       53.159405
 134       54.264419
 135       54.709392
 136       54.884321
 137       55.581803
 138       55.834436
 139       55.913408
 140       56.171754
 141       56.237023
 142       56.454452
 143       56.934837
 144       56.957739
 145       57.217631
 146       57.497980
 147       57.667143
 148       57.863932
 149       57.979474
 150       58.089203
 151       58.483789
 152       58.800529
 153       58.955501
 154       59.080390
 155       59.305201
 156       59.381293
 157       59.522348
 158       59.572069
 159       59.844772
 160       59.916417
 161       60.406833
 162       60.412341
 163       60.589298
 164       60.747051
 165       60.838023
 166       61.141804
 167       61.615304
 168       61.799773
 169       62.456428
 170       62.474561
 171       63.020373
 172       63.148620
 173       63.347092
 174       63.874795
 175       64.073874
 176       64.287088
 177       65.051384
 178       65.306176
 179       65.418544
 180       65.744964
 181       65.877932
 182       66.030240
 183       66.410376
 184       66.649339
 185       67.824069
 186       68.122714
 187       68.165730
 188       68.707488
 189       68.994177
 190       68.998634
 191       69.772347
 192       69.779190

 -0.3125000E+00  0.6250000E-01  0.6250000E-01  0.1171875E-01
   1      -24.937251
   2      -24.809425
   3      -12.835097
   4      -12.370383
   5      -11.576142
   6      -11.315028
   7      -11.184334
   8      -10.968678
   9       -7.848523
  10       -7.704575
  11       -7.349650
  12       -7.207660
  13       -7.036554
  14       -6.859610
  15       -0.033620
  16        1.076849
  17        2.727396
  18        3.101489
  19        3.387292
  20        3.966958
  21        4.229178
  22        4.267635
  23        4.395066
  24        4.628185
  25        4.703214
  26        4.893429
  27        5.746461
  28        6.255840
  29        6.297607
  30        6.439154
  31        6.613771
  32        6.705570
  33       13.482151
  34       13.556812
  35       14.357780
  36       14.446287
  37       14.686895
  38       14.705964
  39       14.778648
  40       14.830683
  41       14.838007
  42       14.936203
  43       14.969800
  44       14.977979
  45       15.207566
  46       15.249331
  47       15.335081
  48       15.395288
  49       15.694339
  50       15.760351
  51       15.828540
  52       16.066043
  53       16.393896
  54       16.541442
  55       17.186739
  56       17.458132
  57       17.610732
  58       20.069989
  59       20.289722
  60       22.200950
  61       23.027846
  62       23.194598
  63       23.208649
  64       23.815327
  65       24.409725
  66       25.202589
  67       25.510068
  68       25.574094
  69       25.894862
  70       26.039541
  71       26.461060
  72       26.665339
  73       26.896938
  74       27.195880
  75       28.701799
  76       29.516455
  77       30.163087
  78       30.165755
  79       31.794118
  80       32.209342
  81       32.432399
  82       32.555383
  83       33.495060
  84       33.522461
  85       34.266995
  86       34.308299
  87       34.671913
  88       34.830043
  89       35.105879
  90       35.617696
  91       37.185348
  92       37.548566
  93       37.719937
  94       37.779686
  95       38.971065
  96       39.350420
  97       39.429683
  98       39.650707
  99       40.687780
 100       40.772164
 101       41.595440
 102       41.754941
 103       42.168585
 104       42.510030
 105       42.573755
 106       43.066342
 107       43.243266
 108       43.606883
 109       44.070313
 110       44.262457
 111       44.460184
 112       44.927667
 113       45.250542
 114       45.279157
 115       45.626380
 116       46.058575
 117       46.130633
 118       46.437381
 119       47.079375
 120       47.623164
 121       48.137812
 122       48.149159
 123       48.652250
 124       48.957781
 125       49.561292
 126       49.997807
 127       50.074057
 128       50.913005
 129       51.623620
 130       52.320196
 131       52.566344
 132       53.116317
 133       53.484381
 134       53.572410
 135       54.249855
 136       54.559291
 137       55.238388
 138       55.552843
 139       55.940473
 140       56.060391
 141       56.207736
 142       56.538092
 143       56.556680
 144       56.901398
 145       57.084712
 146       57.338908
 147       57.672416
 148       57.713317
 149       57.869619
 150       58.037019
 151       58.250363
 152       58.290196
 153       58.632757
 154       58.933619
 155       59.088639
 156       59.238811
 157       59.404240
 158       59.516984
 159       59.579097
 160       59.662264
 161       59.903692
 162       60.089514
 163       60.530098
 164       60.612114
 165       60.726862
 166       61.041281
 167       61.197140
 168       61.503892
 169       62.332377
 170       62.791340
 171       63.093042
 172       63.104361
 173       63.944276
 174       64.168173
 175       64.463139
 176       64.630143
 177       64.636170
 178       65.284318
 179       65.531563
 180       65.548271
 181       65.861363
 182       66.542078
 183       66.600724
 184       66.846885
 185       67.494241
 186       67.575574
 187       67.890932
 188       68.397008
 189       69.065406
 190       69.115096
 191       69.268907
 192       69.879614

 -0.1875000E+00  0.6250000E-01  0.6250000E-01  0.1171875E-01
   1      -24.986213
   2      -24.769149
   3      -12.821125
   4      -11.988032
   5      -11.578485
   6      -11.357985
   7      -11.053657
   8      -10.867221
   9       -8.057686
  10       -7.869189
  11       -7.492375
  12       -7.397329
  13       -7.335099
  14       -7.132363
  15       -0.536190
  16        1.645671
  17        2.417096
  18        2.701952
  19        3.753817
  20        4.356533
  21        4.366914
  22        4.492975
  23        4.907611
  24        5.081909
  25        5.118053
  26        5.555196
  27        5.742624
  28        6.410382
  29        6.412696
  30        6.609465
  31        6.689049
  32        6.765785
  33       12.973889
  34       13.029686
  35       14.516506
  36       14.575916
  37       14.592313
  38       14.694906
  39       14.709317
  40       14.735530
  41       14.738378
  42       14.874807
  43       14.953085
  44       14.985231
  45       15.145751
  46       15.210639
  47       15.264075
  48       15.292635
  49       15.451525
  50       15.488392
  51       15.631863
  52       15.674988
  53       15.849602
  54       15.967017
  55       16.646791
  56       17.176632
  57       17.512110
  58       19.181981
  59       21.111601
  60       22.132895
  61       22.566466
  62       22.831131
  63       23.754122
  64       24.132712
  65       24.975676
  66       25.204374
  67       25.259643
  68       25.489935
  69       25.911956
  70       25.964811
  71       26.574892
  72       26.720323
  73       27.082215
  74       27.372316
  75       29.306493
  76       30.081782
  77       30.164784
  78       30.932937
  79       32.311261
  80       32.491077
  81       32.651057
  82       32.859525
  83       33.535847
  84       33.593438
  85       34.137690
  86       34.527671
  87       35.307275
  88       35.500497
  89       35.609914
  90       36.040295
  91       36.495587
  92       36.801625
  93       37.874762
  94       37.960747
  95       38.134695
  96       38.762171
  97       39.412099
  98       39.485283
  99       40.189801
 100       40.360372
 101       41.223636
 102       41.573911
 103       42.237349
 104       42.292325
 105       42.513793
 106       43.118637
 107       43.528836
 108       43.791883
 109       44.028343
 110       44.438964
 111       44.781681
 112       44.824236
 113       45.207036
 114       45.406215
 115       45.553002
 116       46.109720
 117       46.436839
 118       46.454955
 119       46.827003
 120       47.258802
 121       47.852209
 122       47.964073
 123       48.708245
 124       48.938719
 125       49.744802
 126       49.844172
 127       51.067118
 128       51.174073
 129       52.046591
 130       52.499927
 131       52.791727
 132       53.364397
 133       53.826977
 134       53.988223
 135       54.025661
 136       54.291439
 137       54.526309
 138       55.197949
 139       55.460396
 140       55.867616
 141       56.185151
 142       56.509278
 143       56.751567
 144       56.835598
 145       57.038511
 146       57.064413
 147       57.365255
 148       58.052644
 149       58.236867
 150       58.257568
 151       58.498405
 152       58.545472
 153       58.774380
 154       58.996326
 155       59.221419
 156       59.270134
 157       59.317497
 158       59.436104
 159       59.518146
 160       59.599336
 161       59.762232
 162       60.118025
 163       60.496994
 164       60.656324
 165       60.755556
 166       60.761018
 167       61.209137
 168       61.590198
 169       61.671841
 170       61.805375
 171       62.248238
 172       62.335884
 173       62.844314
 174       63.502507
 175       63.584154
 176       64.348792
 177       64.474909
 178       64.558538
 179       65.076721
 180       65.153245
 181       65.190586
 182       65.364462
 183       66.789984
 184       67.271914
 185       67.806153
 186       67.849086
 187       68.364956
 188       68.549957
 189       68.859115
 190       68.921874
 191       69.297669
 192       69.947201

 -0.6250000E-01  0.6250000E-01  0.6250000E-01  0.1171875E-01
   1      -25.018170
   2      -24.744937
   3      -12.757976
   4      -11.623645
   5      -11.551790
   6      -11.394466
   7      -10.941360
   8      -10.833833
   9       -8.195943
  10       -7.977089
  11       -7.895284
  12       -7.504367
  13       -7.486247
  14       -7.380747
  15       -0.896015
  16        2.135053
  17        2.274804
  18        2.423211
  19        4.244842
  20        4.454475
  21        4.456148
  22        5.005602
  23        5.310962
  24        5.322397
  25        5.341655
  26        5.450135
  27        6.429476
  28        6.603084
  29        6.612634
  30        6.698448
  31        6.740428
  32        6.810870
  33       12.564486
  34       12.570706
  35       14.255247
  36       14.487228
  37       14.488751
  38       14.595459
  39       14.640332
  40       14.671189
  41       14.744732
  42       14.801606
  43       14.881248
  44       14.948133
  45       15.051976
  46       15.173879
  47       15.200259
  48       15.214034
  49       15.315498
  50       15.387263
  51       15.422406
  52       15.445850
  53       15.492191