Automatically generated mesh
      60
Reciprocal lattice
    0.06250000000000    0.06250000000000    0.06250000000000             2
    0.18750000000000    0.06250000000000    0.06250000000000             6
    0.31250000000000    0.06250000000000    0.06250000000000             6
    0.43750000000000    0.06250000000000    0.06250000000000             6
   -0.43750000000000    0.06250000000000    0.06250000000000             6
   -0.31250000000000    0.06250000000000    0.06250000000000             6
   -0.18750000000000    0.06250000000000    0.06250000000000             6
   -0.06250000000000    0.06250000000000    0.06250000000000             6
    0.18750000000000    0.18750000000000    0.06250000000000             6
    0.31250000000000    0.18750000000000    0.06250000000000            12
    0.43750000000000    0.18750000000000    0.06250000000000            12
   -0.43750000000000    0.18750000000000    0.06250000000000            12
   -0.31250000000000    0.18750000000000    0.06250000000000            12
   -0.18750000000000    0.18750000000000    0.06250000000000            12
   -0.06250000000000    0.18750000000000    0.06250000000000            12
    0.31250000000000    0.31250000000000    0.06250000000000             6
    0.43750000000000    0.31250000000000    0.06250000000000            12
   -0.43750000000000    0.31250000000000    0.06250000000000            12
   -0.31250000000000    0.31250000000000    0.06250000000000            12
   -0.18750000000000    0.31250000000000    0.06250000000000            12
   -0.06250000000000    0.31250000000000    0.06250000000000            12
    0.43750000000000    0.43750000000000    0.06250000000000             6
   -0.43750000000000    0.43750000000000    0.06250000000000            12
   -0.31250000000000    0.43750000000000    0.06250000000000            12
   -0.18750000000000    0.43750000000000    0.06250000000000            12
   -0.06250000000000    0.43750000000000    0.06250000000000            12
   -0.43750000000000   -0.43750000000000    0.06250000000000             6
   -0.31250000000000   -0.43750000000000    0.06250000000000            12
   -0.18750000000000   -0.43750000000000    0.06250000000000            12
   -0.31250000000000   -0.31250000000000    0.06250000000000             6
   -0.18750000000000   -0.31250000000000    0.06250000000000            12
   -0.18750000000000   -0.18750000000000    0.06250000000000             6
    0.18750000000000    0.18750000000000    0.18750000000000             2
    0.31250000000000    0.18750000000000    0.18750000000000             6
    0.43750000000000    0.18750000000000    0.18750000000000             6
   -0.43750000000000    0.18750000000000    0.18750000000000             6
   -0.31250000000000    0.18750000000000    0.18750000000000             6
   -0.18750000000000    0.18750000000000    0.18750000000000             6
    0.31250000000000    0.31250000000000    0.18750000000000             6
    0.43750000000000    0.31250000000000    0.18750000000000            12
   -0.43750000000000    0.31250000000000    0.18750000000000            12
   -0.31250000000000    0.31250000000000    0.18750000000000            12
   -0.18750000000000    0.31250000000000    0.18750000000000            12
    0.43750000000000    0.43750000000000    0.18750000000000             6
   -0.43750000000000    0.43750000000000    0.18750000000000            12
   -0.31250000000000    0.43750000000000    0.18750000000000            12
   -0.18750000000000    0.43750000000000    0.18750000000000            12
   -0.43750000000000   -0.43750000000000    0.18750000000000             6
   -0.31250000000000   -0.43750000000000    0.18750000000000            12
   -0.31250000000000   -0.31250000000000    0.18750000000000             6
    0.31250000000000    0.31250000000000    0.31250000000000             2
    0.43750000000000    0.31250000000000    0.31250000000000             6
   -0.43750000000000    0.31250000000000    0.31250000000000             6
   -0.31250000000000    0.31250000000000    0.31250000000000             6
    0.43750000000000    0.43750000000000    0.31250000000000             6
   -0.43750000000000    0.43750000000000    0.31250000000000            12
   -0.31250000000000    0.43750000000000    0.31250000000000            12
   -0.43750000000000   -0.43750000000000    0.31250000000000             6
    0.43750000000000    0.43750000000000    0.43750000000000             2
   -0.43750000000000    0.43750000000000    0.43750000000000             6
