       N       E                     dE             d eps       ncg     rms          rms(c)
DAV:   1     0.267435563409E+04    0.26744E+04   -0.93087E+04 44328   0.286E+03
DAV:   2     0.291651390366E+03   -0.23827E+04   -0.19808E+04 42096   0.292E+02
DAV:   3     0.795031544199E+02   -0.21215E+03   -0.19238E+03 29776   0.803E+01
DAV:   4     0.642178560351E+02   -0.15285E+02   -0.14650E+02 27432   0.214E+01
DAV:   5    -0.114962843444E+03   -0.17918E+03   -0.79493E+00 37792   0.822E+00    0.164E+01
DAV:   6    -0.104767075623E+03    0.10196E+02   -0.63603E-01 37672   0.575E+00    0.450E+00
DAV:   7    -0.105448053342E+03   -0.68098E+00   -0.10100E+00 32192   0.280E+00    0.440E+00
DAV:   8    -0.105357471268E+03    0.90582E-01   -0.13435E-01 33376   0.801E-01    0.239E+00
DAV:   9    -0.105325174609E+03    0.32297E-01   -0.42153E-02 34512   0.533E-01    0.106E+00
DAV:  10    -0.105322248152E+03    0.29265E-02   -0.54559E-03 26936   0.155E-01    0.629E-01
DAV:  11    -0.105319552801E+03    0.26954E-02   -0.51967E-04 31408   0.846E-02    0.403E-01
DAV:  12    -0.105319159273E+03    0.39353E-03   -0.46398E-04 32120   0.447E-02    0.255E-01
DAV:  13    -0.105319035597E+03    0.12368E-03   -0.13272E-04 32928   0.234E-02    0.152E-01
DAV:  14    -0.105319016071E+03    0.19526E-04   -0.47024E-05 32120   0.138E-02    0.904E-02
DAV:  15    -0.105319019278E+03   -0.32074E-05   -0.14397E-05 27680   0.772E-03
   1 F= -.10531902E+03 E0= -.10531902E+03  d E =-.176538E-10
 imaginary and real dielectric function
