 vasp.5.3.3 18Dez12 (build Sep 27 2013 10:56:50) complex

 executed on          intel_guild date 2013.11.07  22:22:25
 running on   60 total cores
 distrk:  each k-point on    1 cores,   60 groups
 distr:  one band on NCORES_PER_BAND=   1 cores,    1 groups


--------------------------------------------------------------------------------------------------------


 INCAR:
 POTCAR:   PAW_PBE La 06Sep2000
 POTCAR:   PAW_PBE Al 04Jan2001
 POTCAR:   PAW_PBE O 08Apr2002

 -----------------------------------------------------------------------------
|                                                                             |
|           W    W    AA    RRRRR   N    N  II  N    N   GGGG   !!!           |
|           W    W   A  A   R    R  NN   N  II  NN   N  G    G  !!!           |
|           W    W  A    A  R    R  N N  N  II  N N  N  G       !!!           |
|           W WW W  AAAAAA  RRRRR   N  N N  II  N  N N  G  GGG   !            |
|           WW  WW  A    A  R   R   N   NN  II  N   NN  G    G                |
|           W    W  A    A  R    R  N    N  II  N    N   GGGG   !!!           |
|                                                                             |
|      For optimal performance we recommend that you set                      |
|        NPAR = 4 - approx SQRT( number of cores)                             |
|      (number of cores/NPAR must be integer)                                 |
|      This setting will greatly improve the performance of VASP for DFT.     |
|      The default NPAR=number of cores might be grossly inefficient          |
|      on modern multi-core architectures or massively parallel machines.     |
|      Do your own testing.                                                   |
|      Unfortunately you need to use the default for hybrid, GW and RPA       |
|      calculations.                                                          |
|                                                                             |
 -----------------------------------------------------------------------------


 -----------------------------------------------------------------------------
|                                                                             |
|           W    W    AA    RRRRR   N    N  II  N    N   GGGG   !!!           |
|           W    W   A  A   R    R  NN   N  II  NN   N  G    G  !!!           |
|           W    W  A    A  R    R  N N  N  II  N N  N  G       !!!           |
|           W WW W  AAAAAA  RRRRR   N  N N  II  N  N N  G  GGG   !            |
|           WW  WW  A    A  R   R   N   NN  II  N   NN  G    G                |
|           W    W  A    A  R    R  N    N  II  N    N   GGGG   !!!           |
|                                                                             |
|      You have enabled k-point parallelism (KPAR>1).                         |
|      This developmental code was originally  written by Paul Kent at ORNL,  |
|      and carefully double checked in Vienna.                                |
|      GW as well as linear response parallelism added by Martijn Marsman     |
|      and Georg Kresse.                                                      |
|      Carefully verify results versus KPAR=1.                                |
|      Report problems to Paul Kent and Vienna.                               |
|                                                                             |
 -----------------------------------------------------------------------------

 POTCAR:   PAW_PBE La 06Sep2000
   VRHFIN =La : [core=Kr4d]
   LEXCH  = PE
   EATOM  =   865.2204 eV,   63.5919 Ry

   TITEL  = PAW_PBE La 06Sep2000
   LULTRA =        F    use ultrasoft PP ?
   IUNSCR =        1    unscreen: 0-lin 1-nonlin 2-no
   RPACOR =    2.300    partial core radius
   POMASS =  138.900; ZVAL   =   11.000    mass and valenz
   RCORE  =    2.800    outmost cutoff radius
   RWIGS  =    2.900; RWIGS  =    1.535    wigner-seitz radius (au A)
   ENMAX  =  219.313; ENMIN  =  164.485 eV
   RCLOC  =    1.601    cutoff for local pot
   LCOR   =        T    correct aug charges
   LPAW   =        T    paw PP
   EAUG   =  583.575
   DEXC   =     .000
   RMAX   =    3.113    core radius for proj-oper
   RAUG   =    1.300    factor for augmentation sphere
   RDEP   =    2.802    radius for radial grids
   QCUT   =   -4.015; QGAM   =    8.030    optimization parameters

   Description
     l     E      TYP  RCUT    TYP  RCUT
     0   .000     23  2.800
     0   .000     23  2.800
     1   .000     23  2.500
     1  2.000     23  2.500
     2   .000     23  2.500
     2   .000     23  2.500
     3   .000     23  2.800
     3   .000     23  2.800
  local pseudopotential read in
  partial core-charges read in
  atomic valenz-charges read in
  non local Contribution for L=           0  read in
    real space projection operators read in
  non local Contribution for L=           0  read in
    real space projection operators read in
  non local Contribution for L=           1  read in
    real space projection operators read in
  non local Contribution for L=           1  read in
    real space projection operators read in
  non local Contribution for L=           2  read in
    real space projection operators read in
  non local Contribution for L=           2  read in
    real space projection operators read in
  non local Contribution for L=           3  read in
    real space projection operators read in
  non local Contribution for L=           3  read in
    real space projection operators read in
    PAW grid and wavefunctions read in

   number of l-projection  operators is LMAX  =           8
   number of lm-projection operators is LMMAX =          32

 POTCAR:   PAW_PBE Al 04Jan2001
   VRHFIN =Al: s2p1
   LEXCH  = PE
   EATOM  =    53.5387 eV,    3.9350 Ry

   TITEL  = PAW_PBE Al 04Jan2001
   LULTRA =        F    use ultrasoft PP ?
   IUNSCR =        1    unscreen: 0-lin 1-nonlin 2-no
   RPACOR =    1.500    partial core radius
   POMASS =   26.982; ZVAL   =    3.000    mass and valenz
   RCORE  =    1.900    outmost cutoff radius
   RWIGS  =    2.650; RWIGS  =    1.402    wigner-seitz radius (au A)
   ENMAX  =  240.300; ENMIN  =  180.225 eV
   ICORE  =        2    local potential
   LCOR   =        T    correct aug charges
   LPAW   =        T    paw PP
   EAUG   =  291.052
   DEXC   =    -.041
   RMAX   =    2.974    core radius for proj-oper
   RAUG   =    1.300    factor for augmentation sphere
   RDEP   =    1.966    radius for radial grids
   QCUT   =   -4.203; QGAM   =    8.405    optimization parameters

   Description
     l     E      TYP  RCUT    TYP  RCUT
     0   .000     23  1.900
     0   .000     23  1.900
     1   .000     23  1.900
     1  1.000     23  1.900
     2   .000      7  1.900
  local pseudopotential read in
  partial core-charges read in
  atomic valenz-charges read in
  non local Contribution for L=           0  read in
    real space projection operators read in
  non local Contribution for L=           0  read in
    real space projection operators read in
  non local Contribution for L=           1  read in
    real space projection operators read in
  non local Contribution for L=           1  read in
    real space projection operators read in
    PAW grid and wavefunctions read in

   number of l-projection  operators is LMAX  =           4
   number of lm-projection operators is LMMAX =           8

 POTCAR:   PAW_PBE O 08Apr2002
   VRHFIN =O: s2p4
   LEXCH  = PE
   EATOM  =   432.3788 eV,   31.7789 Ry

   TITEL  = PAW_PBE O 08Apr2002
   LULTRA =        F    use ultrasoft PP ?
   IUNSCR =        0    unscreen: 0-lin 1-nonlin 2-no
   RPACOR =     .000    partial core radius
   POMASS =   16.000; ZVAL   =    6.000    mass and valenz
   RCORE  =    1.520    outmost cutoff radius
   RWIGS  =    1.550; RWIGS  =     .820    wigner-seitz radius (au A)
   ENMAX  =  400.000; ENMIN  =  300.000 eV
   ICORE  =        2    local potential
   LCOR   =        T    correct aug charges
   LPAW   =        T    paw PP
   EAUG   =  605.392
   DEXC   =     .000
   RMAX   =    2.264    core radius for proj-oper
   RAUG   =    1.300    factor for augmentation sphere
   RDEP   =    1.550    radius for radial grids
   QCUT   =   -5.520; QGAM   =   11.041    optimization parameters

   Description
     l     E      TYP  RCUT    TYP  RCUT
     0   .000     23  1.200
     0  -.700     23  1.200
     1   .000     23  1.520
     1   .600     23  1.520
     2   .000      7  1.500
  local pseudopotential read in
  atomic valenz-charges read in
  non local Contribution for L=           0  read in
    real space projection operators read in
  non local Contribution for L=           0  read in
    real space projection operators read in
  non local Contribution for L=           1  read in
    real space projection operators read in
  non local Contribution for L=           1  read in
    real space projection operators read in
    PAW grid and wavefunctions read in

   number of l-projection  operators is LMAX  =           4
   number of lm-projection operators is LMMAX =           8

 PAW_PBE La 06Sep2000                   :
 energy of atom  1       EATOM= -865.2204
 kinetic energy error for atom=    0.0011 (will be added to EATOM!!)
 PAW_PBE Al 04Jan2001                   :
 energy of atom  2       EATOM=  -53.5387
 kinetic energy error for atom=    0.0003 (will be added to EATOM!!)
 PAW_PBE O 08Apr2002                    :
 energy of atom  3       EATOM= -432.3788
 kinetic energy error for atom=    0.0224 (will be added to EATOM!!)


 POSCAR: La2 Al2 O6
  positions in direct lattice
  velocities in cartesian coordinates
 exchange correlation table for  LEXCH =        8
   RHO(1)=    0.500       N(1)  =     2000
   RHO(2)=  100.500       N(2)  =     4000



--------------------------------------------------------------------------------------------------------


 ion  position               nearest neighbor table
   1  0.750  0.750  0.750-   7 2.49   5 2.49   6 2.49   8 2.68   8 2.68   9 2.68   9 2.68  10 2.68
                            10 2.68   4 3.27   3 3.27   3 3.28   4 3.28   4 3.28   3 3.28   4 3.28
   2  0.250  0.250  0.250-   9 2.49   8 2.49  10 2.49   5 2.68   7 2.68   6 2.68   5 2.68   7 2.68
                             6 2.68   4 3.27   3 3.27   4 3.28   3 3.28   3 3.28   4 3.28   3 3.28
   3  0.500  0.500  0.500-  10 1.90   9 1.90   8 1.90   6 1.90   7 1.90   5 1.90   1 3.27   2 3.27
                             2 3.28   1 3.28   2 3.28   1 3.28   2 3.28   1 3.28
   4  0.000  0.000  0.000-   6 1.90   5 1.90   7 1.90  10 1.90   8 1.90   9 1.90   1 3.27   2 3.27
                             1 3.28   2 3.28   1 3.28   2 3.28   1 3.28   2 3.28
   5  0.285  0.750  0.215-   4 1.90   3 1.90   1 2.49   2 2.68   2 2.68
   6  0.750  0.215  0.285-   4 1.90   3 1.90   1 2.49   2 2.68   2 2.68
   7  0.215  0.285  0.750-   4 1.90   3 1.90   1 2.49   2 2.68   2 2.68
   8  0.715  0.250  0.785-   4 1.90   3 1.90   2 2.49   1 2.68   1 2.68
   9  0.785  0.715  0.250-   4 1.90   3 1.90   2 2.49   1 2.68   1 2.68
  10  0.250  0.785  0.715-   3 1.90   4 1.90   2 2.49   1 2.68   1 2.68

  LATTYP: Found a trigonal (rhomboedric) cell.
 ALAT       =     5.3420320221
 COS(alpha) =     0.4969513500

  Lattice vectors:

 A1 = (   5.3420318778,   0.0010130618,   0.0007175558)
 A2 = (   2.6538507919,   4.6362033588,   0.0007175558)
 A3 = (   2.6538507919,   1.5391021827,   4.3732764114)


Analysis of symmetry for initial positions (statically):
=====================================================================
 Subroutine PRICEL returns:
 Original cell was already a primitive cell.


 Routine SETGRP: Setting up the symmetry group for a
 trigonal (rhombohedral) supercell.


 Subroutine GETGRP returns: Found 12 space group operations
 (whereof  6 operations were pure point group operations)
 out of a pool of 12 trial point group operations.


The static configuration has the point symmetry S_6 .
 The point group associated with its full space group is D_3d.


Analysis of symmetry for dynamics (positions and initial velocities):
=====================================================================
 Subroutine PRICEL returns:
 Original cell was already a primitive cell.


 Routine SETGRP: Setting up the symmetry group for a
 trigonal (rhombohedral) supercell.


 Subroutine GETGRP returns: Found 12 space group operations
 (whereof  6 operations were pure point group operations)
 out of a pool of 12 trial point group operations.


The dynamic configuration has the point symmetry S_6 .
 The point group associated with its full space group is D_3d.


 irot  :   1
 --------------------------------------------------------------------
 isymop:   1   0   0
           0   1   0
           0   0   1

 gtrans:     0.0000000     0.0000000     0.0000000

 ptrans:     0.0000000     0.0000000     0.0000000
 rotmap:
 (   1->   1)  (   2->   2)  (   3->   3)  (   4->   4)  (   5->   5)
 (   6->   6)  (   7->   7)  (   8->   8)  (   9->   9)  (  10->  10)


 irot  :   2
 --------------------------------------------------------------------
 isymop:  -1   0   0
           0  -1   0
           0   0  -1

 gtrans:     0.0000000     0.0000000     0.0000000

 ptrans:     0.0000000     0.0000000     0.0000000
 rotmap:
 (   1->   2)  (   2->   1)  (   3->   3)  (   4->   4)  (   5->   8)
 (   6->  10)  (   7->   9)  (   8->   5)  (   9->   7)  (  10->   6)


 irot  :   3
 --------------------------------------------------------------------
 isymop:   0   0   1
           1   0   0
           0   1   0

 gtrans:     0.0000000     0.0000000     0.0000000

 ptrans:     0.0000000     0.0000000     0.0000000
 rotmap:
 (   1->   1)  (   2->   2)  (   3->   3)  (   4->   4)  (   5->   7)
 (   6->   5)  (   7->   6)  (   8->   9)  (   9->  10)  (  10->   8)


 irot  :   4
 --------------------------------------------------------------------
 isymop:   0   0  -1
          -1   0   0
           0  -1   0

 gtrans:     0.0000000     0.0000000     0.0000000

 ptrans:     0.0000000     0.0000000     0.0000000
 rotmap:
 (   1->   2)  (   2->   1)  (   3->   3)  (   4->   4)  (   5->   9)
 (   6->   8)  (   7->  10)  (   8->   7)  (   9->   6)  (  10->   5)


 irot  :   5
 --------------------------------------------------------------------
 isymop:   0   1   0
           0   0   1
           1   0   0

 gtrans:     0.0000000     0.0000000     0.0000000

 ptrans:     0.0000000     0.0000000     0.0000000
 rotmap:
 (   1->   1)  (   2->   2)  (   3->   3)  (   4->   4)  (   5->   6)
 (   6->   7)  (   7->   5)  (   8->  10)  (   9->   8)  (  10->   9)


 irot  :   6
 --------------------------------------------------------------------
 isymop:   0  -1   0
           0   0  -1
          -1   0   0

 gtrans:     0.0000000     0.0000000     0.0000000

 ptrans:     0.0000000     0.0000000     0.0000000
 rotmap:
 (   1->   2)  (   2->   1)  (   3->   3)  (   4->   4)  (   5->  10)
 (   6->   9)  (   7->   8)  (   8->   6)  (   9->   5)  (  10->   7)


 irot  :   7
 --------------------------------------------------------------------
 isymop:  -1   0   0
           0   0  -1
           0  -1   0

 gtrans:     0.5000000     0.5000000     0.5000000

 ptrans:     0.0000000     0.0000000     0.0000000
 rotmap:
 (   1->   1)  (   2->   2)  (   3->   4)  (   4->   3)  (   5->   7)
 (   6->   6)  (   7->   5)  (   8->   9)  (   9->   8)  (  10->  10)


 irot  :   8
 --------------------------------------------------------------------
 isymop:   1   0   0
           0   0   1
           0   1   0

 gtrans:     0.5000000     0.5000000     0.5000000

 ptrans:     0.0000000     0.0000000     0.0000000
 rotmap:
 (   1->   2)  (   2->   1)  (   3->   4)  (   4->   3)  (   5->   9)
 (   6->  10)  (   7->   8)  (   8->   7)  (   9->   5)  (  10->   6)


 irot  :   9
 --------------------------------------------------------------------
 isymop:   0  -1   0
          -1   0   0
           0   0  -1

 gtrans:     0.5000000     0.5000000     0.5000000

 ptrans:     0.0000000     0.0000000     0.0000000
 rotmap:
 (   1->   1)  (   2->   2)  (   3->   4)  (   4->   3)  (   5->   6)
 (   6->   5)  (   7->   7)  (   8->  10)  (   9->   9)  (  10->   8)


 irot  :  10
 --------------------------------------------------------------------
 isymop:   0   1   0
           1   0   0
           0   0   1

 gtrans:     0.5000000     0.5000000     0.5000000

 ptrans:     0.0000000     0.0000000     0.0000000
 rotmap:
 (   1->   2)  (   2->   1)  (   3->   4)  (   4->   3)  (   5->  10)
 (   6->   8)  (   7->   9)  (   8->   6)  (   9->   7)  (  10->   5)


 irot  :  11
 --------------------------------------------------------------------
 isymop:   0   0  -1
           0  -1   0
          -1   0   0

 gtrans:     0.5000000     0.5000000     0.5000000

 ptrans:     0.0000000     0.0000000     0.0000000
 rotmap:
 (   1->   1)  (   2->   2)  (   3->   4)  (   4->   3)  (   5->   5)
 (   6->   7)  (   7->   6)  (   8->   8)  (   9->  10)  (  10->   9)


 irot  :  12
 --------------------------------------------------------------------
 isymop:   0   0   1
           0   1   0
           1   0   0

 gtrans:     0.5000000     0.5000000     0.5000000

 ptrans:     0.0000000     0.0000000     0.0000000
 rotmap:
 (   1->   2)  (   2->   1)  (   3->   4)  (   4->   3)  (   5->   8)
 (   6->   9)  (   7->  10)  (   8->   5)  (   9->   6)  (  10->   7)


 KPOINTS: Automatically generated mesh

Automatic generation of k-mesh.
Space group operators:
 irot       det(A)        alpha          n_x          n_y          n_z        tau_x        tau_y        tau_z
    1     1.000000     0.000001     1.000000     0.000000     0.000000     0.000000     0.000000     0.000000
    2    -1.000000     0.000001     1.000000     0.000000     0.000000     0.000000     0.000000     0.000000
    3     1.000000   120.000000    -0.815116    -0.472727    -0.334835     0.000000     0.000000     0.000000
    4    -1.000000   120.000000    -0.815116    -0.472727    -0.334835     0.000000     0.000000     0.000000
    5     1.000000   120.000000     0.815116     0.472727     0.334835     0.000000     0.000000     0.000000
    6    -1.000000   120.000000     0.815116     0.472727     0.334835     0.000000     0.000000     0.000000
    7     1.000000   179.999999     0.000000     0.578001    -0.816036     0.500000     0.500000     0.500000
    8    -1.000000   179.999999     0.000000     0.578001    -0.816036     0.500000     0.500000     0.500000
    9     1.000000   180.000000    -0.501686     0.865050     0.000000     0.500000     0.500000     0.500000
   10    -1.000000   180.000000    -0.501686     0.865050     0.000000     0.500000     0.500000     0.500000
   11     1.000000   179.999999    -0.501686     0.287048     0.816036     0.500000     0.500000     0.500000
   12    -1.000000   179.999999    -0.501686     0.287048     0.816036     0.500000     0.500000     0.500000

 Subroutine IBZKPT returns following result:
 ===========================================

 Found     60 irreducible k-points:

 Following reciprocal coordinates:
            Coordinates               Weight
  0.062500  0.062500  0.062500      2.000000
  0.187500  0.062500  0.062500      6.000000
  0.312500  0.062500  0.062500      6.000000
  0.437500  0.062500  0.062500      6.000000
 -0.437500  0.062500  0.062500      6.000000
 -0.312500  0.062500  0.062500      6.000000
 -0.187500  0.062500  0.062500      6.000000
 -0.062500  0.062500  0.062500      6.000000
  0.187500  0.187500  0.062500      6.000000
  0.312500  0.187500  0.062500     12.000000
  0.437500  0.187500  0.062500     12.000000
 -0.437500  0.187500  0.062500     12.000000
 -0.312500  0.187500  0.062500     12.000000
 -0.187500  0.187500  0.062500     12.000000
 -0.062500  0.187500  0.062500     12.000000
  0.312500  0.312500  0.062500      6.000000
  0.437500  0.312500  0.062500     12.000000
 -0.437500  0.312500  0.062500     12.000000
 -0.312500  0.312500  0.062500     12.000000
 -0.187500  0.312500  0.062500     12.000000
 -0.062500  0.312500  0.062500     12.000000
  0.437500  0.437500  0.062500      6.000000
 -0.437500  0.437500  0.062500     12.000000
 -0.312500  0.437500  0.062500     12.000000
 -0.187500  0.437500  0.062500     12.000000
 -0.062500  0.437500  0.062500     12.000000
 -0.437500 -0.437500  0.062500      6.000000
 -0.312500 -0.437500  0.062500     12.000000
 -0.187500 -0.437500  0.062500     12.000000
 -0.312500 -0.312500  0.062500      6.000000
 -0.187500 -0.312500  0.062500     12.000000
 -0.187500 -0.187500  0.062500      6.000000
  0.187500  0.187500  0.187500      2.000000
  0.312500  0.187500  0.187500      6.000000
  0.437500  0.187500  0.187500      6.000000
 -0.437500  0.187500  0.187500      6.000000
 -0.312500  0.187500  0.187500      6.000000
 -0.187500  0.187500  0.187500      6.000000
  0.312500  0.312500  0.187500      6.000000
  0.437500  0.312500  0.187500     12.000000
 -0.437500  0.312500  0.187500     12.000000
 -0.312500  0.312500  0.187500     12.000000
 -0.187500  0.312500  0.187500     12.000000
  0.437500  0.437500  0.187500      6.000000
 -0.437500  0.437500  0.187500     12.000000
 -0.312500  0.437500  0.187500     12.000000
 -0.187500  0.437500  0.187500     12.000000
 -0.437500 -0.437500  0.187500      6.000000
 -0.312500 -0.437500  0.187500     12.000000
 -0.312500 -0.312500  0.187500      6.000000
  0.312500  0.312500  0.312500      2.000000
  0.437500  0.312500  0.312500      6.000000
 -0.437500  0.312500  0.312500      6.000000
 -0.312500  0.312500  0.312500      6.000000
  0.437500  0.437500  0.312500      6.000000
 -0.437500  0.437500  0.312500     12.000000
 -0.312500  0.437500  0.312500     12.000000
 -0.437500 -0.437500  0.312500      6.000000
  0.437500  0.437500  0.437500      2.000000
 -0.437500  0.437500  0.437500      6.000000

 Following cartesian coordinates:
            Coordinates               Weight
  0.011602  0.006728  0.004766      2.000000
  0.034813 -0.006557 -0.004644      6.000000
  0.058024 -0.019841 -0.014054      6.000000
  0.081235 -0.033126 -0.023464      6.000000
 -0.081242  0.059868  0.042405      6.000000
 -0.058031  0.046583  0.032995      6.000000
 -0.034820  0.033298  0.023585      6.000000
 -0.011609  0.020013  0.014176      6.000000
  0.034809  0.020187 -0.014054      6.000000
  0.058020  0.006902 -0.023464     12.000000
  0.081231 -0.006382 -0.032873     12.000000
 -0.081246  0.086612  0.032995     12.000000
 -0.058035  0.073327  0.023585     12.000000
 -0.034824  0.060042  0.014176     12.000000
 -0.011613  0.046757  0.004766     12.000000
  0.058016  0.033646 -0.032873      6.000000
  0.081227  0.020361 -0.042283     12.000000
 -0.081250  0.113356  0.023585     12.000000
 -0.058039  0.100071  0.014176     12.000000
 -0.034828  0.086786  0.004766     12.000000
 -0.011617  0.073501 -0.004644     12.000000
  0.081223  0.047105 -0.051693      6.000000
 -0.081254  0.140100  0.014176     12.000000
 -0.058043  0.126815  0.004766     12.000000
 -0.034832  0.113530 -0.004644     12.000000
 -0.011621  0.100245 -0.014054     12.000000
 -0.081227 -0.047108  0.080044      6.000000
 -0.058016 -0.060393  0.070634     12.000000
 -0.034805 -0.073677  0.061224     12.000000
 -0.058020 -0.033649  0.061224      6.000000
 -0.034809 -0.046934  0.051815     12.000000
 -0.034813 -0.020190  0.042405      6.000000
  0.034805  0.020185  0.014297      2.000000
  0.058016  0.006900  0.004887      6.000000
  0.081227 -0.006385 -0.004522      6.000000
 -0.081250  0.086610  0.061346      6.000000
 -0.058039  0.073325  0.051936      6.000000
 -0.034828  0.060040  0.042527      6.000000
  0.058012  0.033644 -0.004522      6.000000
  0.081223  0.020359 -0.013932     12.000000
 -0.081254  0.113354  0.051936     12.000000
 -0.058043  0.100069  0.042527     12.000000
 -0.034832  0.086784  0.033117     12.000000
  0.081219  0.047103 -0.023342      6.000000
 -0.081257  0.140098  0.042527     12.000000
 -0.058046  0.126813  0.033117     12.000000
 -0.034835  0.113528  0.023707     12.000000
 -0.081231 -0.047110  0.108395      6.000000
 -0.058020 -0.060395  0.098985     12.000000
 -0.058024 -0.033651  0.089575      6.000000
  0.058008  0.033642  0.023829      2.000000
  0.081219  0.020357  0.014419      6.000000
 -0.081257  0.113352  0.080287      6.000000
 -0.058046  0.100067  0.070878      6.000000
  0.081215  0.047101  0.005009      6.000000
 -0.081261  0.140096  0.070878     12.000000
 -0.058050  0.126811  0.061468     12.000000
 -0.081235 -0.047112  0.136746      6.000000
  0.081212  0.047099  0.033360      2.000000
 -0.081265  0.140093  0.099229      6.000000


 Subroutine IBZKPT_HF returns following result:
 ==============================================

 Found    512 k-points in 1st BZ
 the following    512 k-points will be used (e.g. in the exchange kernel)
 Following reciprocal coordinates:   # in IRBZ
  0.062500  0.062500  0.062500       1 t-inv F
  0.187500  0.062500  0.062500       2 t-inv F
  0.312500  0.062500  0.062500       3 t-inv F
  0.437500  0.062500  0.062500       4 t-inv F
 -0.437500  0.062500  0.062500       5 t-inv F
 -0.312500  0.062500  0.062500       6 t-inv F
 -0.187500  0.062500  0.062500       7 t-inv F
 -0.062500  0.062500  0.062500       8 t-inv F
  0.187500  0.187500  0.062500       9 t-inv F
  0.312500  0.187500  0.062500      10 t-inv F
  0.437500  0.187500  0.062500      11 t-inv F
 -0.437500  0.187500  0.062500      12 t-inv F
 -0.312500  0.187500  0.062500      13 t-inv F
 -0.187500  0.187500  0.062500      14 t-inv F
 -0.062500  0.187500  0.062500      15 t-inv F
  0.312500  0.312500  0.062500      16 t-inv F
  0.437500  0.312500  0.062500      17 t-inv F
 -0.437500  0.312500  0.062500      18 t-inv F
 -0.312500  0.312500  0.062500      19 t-inv F
 -0.187500  0.312500  0.062500      20 t-inv F
 -0.062500  0.312500  0.062500      21 t-inv F
  0.437500  0.437500  0.062500      22 t-inv F
 -0.437500  0.437500  0.062500      23 t-inv F
 -0.312500  0.437500  0.062500      24 t-inv F
 -0.187500  0.437500  0.062500      25 t-inv F
 -0.062500  0.437500  0.062500      26 t-inv F
 -0.437500 -0.437500  0.062500      27 t-inv F
 -0.312500 -0.437500  0.062500      28 t-inv F
 -0.187500 -0.437500  0.062500      29 t-inv F
 -0.312500 -0.312500  0.062500      30 t-inv F
 -0.187500 -0.312500  0.062500      31 t-inv F
 -0.187500 -0.187500  0.062500      32 t-inv F
  0.187500  0.187500  0.187500      33 t-inv F
  0.312500  0.187500  0.187500      34 t-inv F
  0.437500  0.187500  0.187500      35 t-inv F
 -0.437500  0.187500  0.187500      36 t-inv F
 -0.312500  0.187500  0.187500      37 t-inv F
 -0.187500  0.187500  0.187500      38 t-inv F
  0.312500  0.312500  0.187500      39 t-inv F
  0.437500  0.312500  0.187500      40 t-inv F
 -0.437500  0.312500  0.187500      41 t-inv F
 -0.312500  0.312500  0.187500      42 t-inv F
 -0.187500  0.312500  0.187500      43 t-inv F
  0.437500  0.437500  0.187500      44 t-inv F
 -0.437500  0.437500  0.187500      45 t-inv F
 -0.312500  0.437500  0.187500      46 t-inv F
 -0.187500  0.437500  0.187500      47 t-inv F
 -0.437500 -0.437500  0.187500      48 t-inv F
 -0.312500 -0.437500  0.187500      49 t-inv F
 -0.312500 -0.312500  0.187500      50 t-inv F
  0.312500  0.312500  0.312500      51 t-inv F
  0.437500  0.312500  0.312500      52 t-inv F
 -0.437500  0.312500  0.312500      53 t-inv F
 -0.312500  0.312500  0.312500      54 t-inv F
  0.437500  0.437500  0.312500      55 t-inv F
 -0.437500  0.437500  0.312500      56 t-inv F
 -0.312500  0.437500  0.312500      57 t-inv F
 -0.437500 -0.437500  0.312500      58 t-inv F
  0.437500  0.437500  0.437500      59 t-inv F
 -0.437500  0.437500  0.437500      60 t-inv F
 -0.062500 -0.062500 -0.062500       1 t-inv F
 -0.187500 -0.062500 -0.062500       2 t-inv F
  0.062500  0.187500  0.062500       2 t-inv F
 -0.062500 -0.187500 -0.062500       2 t-inv F
  0.062500  0.062500  0.187500       2 t-inv F
 -0.062500 -0.062500 -0.187500       2 t-inv F
 -0.312500 -0.062500 -0.062500       3 t-inv F
  0.062500  0.312500  0.062500       3 t-inv F
 -0.062500 -0.312500 -0.062500       3 t-inv F
  0.062500  0.062500  0.312500       3 t-inv F
 -0.062500 -0.062500 -0.312500       3 t-inv F
 -0.437500 -0.062500 -0.062500       4 t-inv F
  0.062500  0.437500  0.062500       4 t-inv F
 -0.062500 -0.437500 -0.062500       4 t-inv F
  0.062500  0.062500  0.437500       4 t-inv F
 -0.062500 -0.062500 -0.437500       4 t-inv F
  0.437500 -0.062500 -0.062500       5 t-inv F
  0.062500 -0.437500  0.062500       5 t-inv F
 -0.062500  0.437500 -0.062500       5 t-inv F
  0.062500  0.062500 -0.437500       5 t-inv F
 -0.062500 -0.062500  0.437500       5 t-inv F
  0.312500 -0.062500 -0.062500       6 t-inv F
  0.062500 -0.312500  0.062500       6 t-inv F
 -0.062500  0.312500 -0.062500       6 t-inv F
  0.062500  0.062500 -0.312500       6 t-inv F
 -0.062500 -0.062500  0.312500       6 t-inv F
  0.187500 -0.062500 -0.062500       7 t-inv F
  0.062500 -0.187500  0.062500       7 t-inv F
 -0.062500  0.187500 -0.062500       7 t-inv F
  0.062500  0.062500 -0.187500       7 t-inv F
 -0.062500 -0.062500  0.187500       7 t-inv F
  0.062500 -0.062500 -0.062500       8 t-inv F
  0.062500 -0.062500  0.062500       8 t-inv F
 -0.062500  0.062500 -0.062500       8 t-inv F
  0.062500  0.062500 -0.062500       8 t-inv F
 -0.062500 -0.062500  0.062500       8 t-inv F
 -0.187500 -0.187500 -0.062500       9 t-inv F
  0.062500  0.187500  0.187500       9 t-inv F
 -0.062500 -0.187500 -0.187500       9 t-inv F
  0.187500  0.062500  0.187500       9 t-inv F
 -0.187500 -0.062500 -0.187500       9 t-inv F
 -0.312500 -0.187500 -0.062500      10 t-inv F
  0.062500  0.312500  0.187500      10 t-inv F
 -0.062500 -0.312500 -0.187500      10 t-inv F
  0.187500  0.062500  0.312500      10 t-inv F
 -0.187500 -0.062500 -0.312500      10 t-inv F
 -0.312500 -0.062500 -0.187500      10 t-inv F
  0.312500  0.062500  0.187500      10 t-inv F
 -0.187500 -0.312500 -0.062500      10 t-inv F
  0.187500  0.312500  0.062500      10 t-inv F
 -0.062500 -0.187500 -0.312500      10 t-inv F
  0.062500  0.187500  0.312500      10 t-inv F
 -0.437500 -0.187500 -0.062500      11 t-inv F
  0.062500  0.437500  0.187500      11 t-inv F
 -0.062500 -0.437500 -0.187500      11 t-inv F
  0.187500  0.062500  0.437500      11 t-inv F
 -0.187500 -0.062500 -0.437500      11 t-inv F
 -0.437500 -0.062500 -0.187500      11 t-inv F
  0.437500  0.062500  0.187500      11 t-inv F
 -0.187500 -0.437500 -0.062500      11 t-inv F
  0.187500  0.437500  0.062500      11 t-inv F
 -0.062500 -0.187500 -0.437500      11 t-inv F
  0.062500  0.187500  0.437500      11 t-inv F
  0.437500 -0.187500 -0.062500      12 t-inv F
  0.062500 -0.437500  0.187500      12 t-inv F
 -0.062500  0.437500 -0.187500      12 t-inv F
  0.187500  0.062500 -0.437500      12 t-inv F
 -0.187500 -0.062500  0.437500      12 t-inv F
  0.437500 -0.062500 -0.187500      12 t-inv F
 -0.437500  0.062500  0.187500      12 t-inv F
 -0.187500  0.437500 -0.062500      12 t-inv F
  0.187500 -0.437500  0.062500      12 t-inv F
 -0.062500 -0.187500  0.437500      12 t-inv F
  0.062500  0.187500 -0.437500      12 t-inv F
  0.312500 -0.187500 -0.062500      13 t-inv F
  0.062500 -0.312500  0.187500      13 t-inv F
 -0.062500  0.312500 -0.187500      13 t-inv F
  0.187500  0.062500 -0.312500      13 t-inv F
 -0.187500 -0.062500  0.312500      13 t-inv F
  0.312500 -0.062500 -0.187500      13 t-inv F
 -0.312500  0.062500  0.187500      13 t-inv F
 -0.187500  0.312500 -0.062500      13 t-inv F
  0.187500 -0.312500  0.062500      13 t-inv F
 -0.062500 -0.187500  0.312500      13 t-inv F
  0.062500  0.187500 -0.312500      13 t-inv F
  0.187500 -0.187500 -0.062500      14 t-inv F
  0.062500 -0.187500  0.187500      14 t-inv F
 -0.062500  0.187500 -0.187500      14 t-inv F
  0.187500  0.062500 -0.187500      14 t-inv F
 -0.187500 -0.062500  0.187500      14 t-inv F
  0.187500 -0.062500 -0.187500      14 t-inv F
 -0.187500  0.062500  0.187500      14 t-inv F
 -0.187500  0.187500 -0.062500      14 t-inv F
  0.187500 -0.187500  0.062500      14 t-inv F
 -0.062500 -0.187500  0.187500      14 t-inv F
  0.062500  0.187500 -0.187500      14 t-inv F
  0.062500 -0.187500 -0.062500      15 t-inv F
  0.062500 -0.062500  0.187500      15 t-inv F
 -0.062500  0.062500 -0.187500      15 t-inv F
  0.187500  0.062500 -0.062500      15 t-inv F
 -0.187500 -0.062500  0.062500      15 t-inv F
  0.062500 -0.062500 -0.187500      15 t-inv F
 -0.062500  0.062500  0.187500      15 t-inv F
 -0.187500  0.062500 -0.062500      15 t-inv F
  0.187500 -0.062500  0.062500      15 t-inv F
 -0.062500 -0.187500  0.062500      15 t-inv F
  0.062500  0.187500 -0.062500      15 t-inv F
 -0.312500 -0.312500 -0.062500      16 t-inv F
  0.062500  0.312500  0.312500      16 t-inv F
 -0.062500 -0.312500 -0.312500      16 t-inv F
  0.312500  0.062500  0.312500      16 t-inv F
 -0.312500 -0.062500 -0.312500      16 t-inv F
 -0.437500 -0.312500 -0.062500      17 t-inv F
  0.062500  0.437500  0.312500      17 t-inv F
 -0.062500 -0.437500 -0.312500      17 t-inv F
  0.312500  0.062500  0.437500      17 t-inv F
 -0.312500 -0.062500 -0.437500      17 t-inv F
 -0.437500 -0.062500 -0.312500      17 t-inv F
  0.437500  0.062500  0.312500      17 t-inv F
 -0.312500 -0.437500 -0.062500      17 t-inv F
  0.312500  0.437500  0.062500      17 t-inv F
 -0.062500 -0.312500 -0.437500      17 t-inv F
  0.062500  0.312500  0.437500      17 t-inv F
  0.437500 -0.312500 -0.062500      18 t-inv F
  0.062500 -0.437500  0.312500      18 t-inv F
 -0.062500  0.437500 -0.312500      18 t-inv F
  0.312500  0.062500 -0.437500      18 t-inv F
 -0.312500 -0.062500  0.437500      18 t-inv F
  0.437500 -0.062500 -0.312500      18 t-inv F
 -0.437500  0.062500  0.312500      18 t-inv F
 -0.312500  0.437500 -0.062500      18 t-inv F
  0.312500 -0.437500  0.062500      18 t-inv F
 -0.062500 -0.312500  0.437500      18 t-inv F
  0.062500  0.312500 -0.437500      18 t-inv F
  0.312500 -0.312500 -0.062500      19 t-inv F
  0.062500 -0.312500  0.312500      19 t-inv F
 -0.062500  0.312500 -0.312500      19 t-inv F
  0.312500  0.062500 -0.312500      19 t-inv F
 -0.312500 -0.062500  0.312500      19 t-inv F
  0.312500 -0.062500 -0.312500      19 t-inv F
 -0.312500  0.062500  0.312500      19 t-inv F
 -0.312500  0.312500 -0.062500      19 t-inv F
  0.312500 -0.312500  0.062500      19 t-inv F
 -0.062500 -0.312500  0.312500      19 t-inv F
  0.062500  0.312500 -0.312500      19 t-inv F
  0.187500 -0.312500 -0.062500      20 t-inv F
  0.062500 -0.187500  0.312500      20 t-inv F
 -0.062500  0.187500 -0.312500      20 t-inv F
  0.312500  0.062500 -0.187500      20 t-inv F
 -0.312500 -0.062500  0.187500      20 t-inv F
  0.187500 -0.062500 -0.312500      20 t-inv F
 -0.187500  0.062500  0.312500      20 t-inv F
 -0.312500  0.187500 -0.062500      20 t-inv F
  0.312500 -0.187500  0.062500      20 t-inv F
 -0.062500 -0.312500  0.187500      20 t-inv F
  0.062500  0.312500 -0.187500      20 t-inv F
  0.062500 -0.312500 -0.062500      21 t-inv F
  0.062500 -0.062500  0.312500      21 t-inv F
 -0.062500  0.062500 -0.312500      21 t-inv F
  0.312500  0.062500 -0.062500      21 t-inv F
 -0.312500 -0.062500  0.062500      21 t-inv F
  0.062500 -0.062500 -0.312500      21 t-inv F
 -0.062500  0.062500  0.312500      21 t-inv F
 -0.312500  0.062500 -0.062500      21 t-inv F
  0.312500 -0.062500  0.062500      21 t-inv F
 -0.062500 -0.312500  0.062500      21 t-inv F
  0.062500  0.312500 -0.062500      21 t-inv F
 -0.437500 -0.437500 -0.062500      22 t-inv F
  0.062500  0.437500  0.437500      22 t-inv F
 -0.062500 -0.437500 -0.437500      22 t-inv F
  0.437500  0.062500  0.437500      22 t-inv F
 -0.437500 -0.062500 -0.437500      22 t-inv F
  0.437500 -0.437500 -0.062500      23 t-inv F
  0.062500 -0.437500  0.437500      23 t-inv F
 -0.062500  0.437500 -0.437500      23 t-inv F
  0.437500  0.062500 -0.437500      23 t-inv F
 -0.437500 -0.062500  0.437500      23 t-inv F
  0.437500 -0.062500 -0.437500      23 t-inv F
 -0.437500  0.062500  0.437500      23 t-inv F
 -0.437500  0.437500 -0.062500      23 t-inv F
  0.437500 -0.437500  0.062500      23 t-inv F
 -0.062500 -0.437500  0.437500      23 t-inv F
  0.062500  0.437500 -0.437500      23 t-inv F
  0.312500 -0.437500 -0.062500      24 t-inv F
  0.062500 -0.312500  0.437500      24 t-inv F
 -0.062500  0.312500 -0.437500      24 t-inv F
  0.437500  0.062500 -0.312500      24 t-inv F
 -0.437500 -0.062500  0.312500      24 t-inv F
  0.312500 -0.062500 -0.437500      24 t-inv F
 -0.312500  0.062500  0.437500      24 t-inv F
 -0.437500  0.312500 -0.062500      24 t-inv F
  0.437500 -0.312500  0.062500      24 t-inv F
 -0.062500 -0.437500  0.312500      24 t-inv F
  0.062500  0.437500 -0.312500      24 t-inv F
  0.187500 -0.437500 -0.062500      25 t-inv F
  0.062500 -0.187500  0.437500      25 t-inv F
 -0.062500  0.187500 -0.437500      25 t-inv F
  0.437500  0.062500 -0.187500      25 t-inv F
 -0.437500 -0.062500  0.187500      25 t-inv F
  0.187500 -0.062500 -0.437500      25 t-inv F
 -0.187500  0.062500  0.437500      25 t-inv F
 -0.437500  0.187500 -0.062500      25 t-inv F
  0.437500 -0.187500  0.062500      25 t-inv F
 -0.062500 -0.437500  0.187500      25 t-inv F
  0.062500  0.437500 -0.187500      25 t-inv F
  0.062500 -0.437500 -0.062500      26 t-inv F
  0.062500 -0.062500  0.437500      26 t-inv F
 -0.062500  0.062500 -0.437500      26 t-inv F
  0.437500  0.062500 -0.062500      26 t-inv F
 -0.437500 -0.062500  0.062500      26 t-inv F
  0.062500 -0.062500 -0.437500      26 t-inv F
 -0.062500  0.062500  0.437500      26 t-inv F
 -0.437500  0.062500 -0.062500      26 t-inv F
  0.437500 -0.062500  0.062500      26 t-inv F
 -0.062500 -0.437500  0.062500      26 t-inv F
  0.062500  0.437500 -0.062500      26 t-inv F
  0.437500  0.437500 -0.062500      27 t-inv F
  0.062500 -0.437500 -0.437500      27 t-inv F
 -0.062500  0.437500  0.437500      27 t-inv F
 -0.437500  0.062500 -0.437500      27 t-inv F
  0.437500 -0.062500  0.437500      27 t-inv F
  0.312500  0.437500 -0.062500      28 t-inv F
  0.062500 -0.312500 -0.437500      28 t-inv F
 -0.062500  0.312500  0.437500      28 t-inv F
 -0.437500  0.062500 -0.312500      28 t-inv F
  0.437500 -0.062500  0.312500      28 t-inv F
  0.312500 -0.062500  0.437500      28 t-inv F
 -0.312500  0.062500 -0.437500      28 t-inv F
  0.437500  0.312500 -0.062500      28 t-inv F
 -0.437500 -0.312500  0.062500      28 t-inv F
 -0.062500  0.437500  0.312500      28 t-inv F
  0.062500 -0.437500 -0.312500      28 t-inv F
  0.187500  0.437500 -0.062500      29 t-inv F
  0.062500 -0.187500 -0.437500      29 t-inv F
 -0.062500  0.187500  0.437500      29 t-inv F
 -0.437500  0.062500 -0.187500      29 t-inv F
  0.437500 -0.062500  0.187500      29 t-inv F
  0.187500 -0.062500  0.437500      29 t-inv F
 -0.187500  0.062500 -0.437500      29 t-inv F
  0.437500  0.187500 -0.062500      29 t-inv F
 -0.437500 -0.187500  0.062500      29 t-inv F
 -0.062500  0.437500  0.187500      29 t-inv F
  0.062500 -0.437500 -0.187500      29 t-inv F
  0.312500  0.312500 -0.062500      30 t-inv F
  0.062500 -0.312500 -0.312500      30 t-inv F
 -0.062500  0.312500  0.312500      30 t-inv F
 -0.312500  0.062500 -0.312500      30 t-inv F
  0.312500 -0.062500  0.312500      30 t-inv F
  0.187500  0.312500 -0.062500      31 t-inv F
  0.062500 -0.187500 -0.312500      31 t-inv F
 -0.062500  0.187500  0.312500      31 t-inv F
 -0.312500  0.062500 -0.187500      31 t-inv F
  0.312500 -0.062500  0.187500      31 t-inv F
  0.187500 -0.062500  0.312500      31 t-inv F
 -0.187500  0.062500 -0.312500      31 t-inv F
  0.312500  0.187500 -0.062500      31 t-inv F
 -0.312500 -0.187500  0.062500      31 t-inv F
 -0.062500  0.312500  0.187500      31 t-inv F
  0.062500 -0.312500 -0.187500      31 t-inv F
  0.187500  0.187500 -0.062500      32 t-inv F
  0.062500 -0.187500 -0.187500      32 t-inv F
 -0.062500  0.187500  0.187500      32 t-inv F
 -0.187500  0.062500 -0.187500      32 t-inv F
  0.187500 -0.062500  0.187500      32 t-inv F
 -0.187500 -0.187500 -0.187500      33 t-inv F
 -0.312500 -0.187500 -0.187500      34 t-inv F
  0.187500  0.312500  0.187500      34 t-inv F
 -0.187500 -0.312500 -0.187500      34 t-inv F
  0.187500  0.187500  0.312500      34 t-inv F
 -0.187500 -0.187500 -0.312500      34 t-inv F
 -0.437500 -0.187500 -0.187500      35 t-inv F
  0.187500  0.437500  0.187500      35 t-inv F
 -0.187500 -0.437500 -0.187500      35 t-inv F
  0.187500  0.187500  0.437500      35 t-inv F
 -0.187500 -0.187500 -0.437500      35 t-inv F
  0.437500 -0.187500 -0.187500      36 t-inv F
  0.187500 -0.437500  0.187500      36 t-inv F
 -0.187500  0.437500 -0.187500      36 t-inv F
  0.187500  0.187500 -0.437500      36 t-inv F
 -0.187500 -0.187500  0.437500      36 t-inv F
  0.312500 -0.187500 -0.187500      37 t-inv F
  0.187500 -0.312500  0.187500      37 t-inv F
 -0.187500  0.312500 -0.187500      37 t-inv F
  0.187500  0.187500 -0.312500      37 t-inv F
 -0.187500 -0.187500  0.312500      37 t-inv F
  0.187500 -0.187500 -0.187500      38 t-inv F
  0.187500 -0.187500  0.187500      38 t-inv F
 -0.187500  0.187500 -0.187500      38 t-inv F
  0.187500  0.187500 -0.187500      38 t-inv F
 -0.187500 -0.187500  0.187500      38 t-inv F
 -0.312500 -0.312500 -0.187500      39 t-inv F
  0.187500  0.312500  0.312500      39 t-inv F
 -0.187500 -0.312500 -0.312500      39 t-inv F
  0.312500  0.187500  0.312500      39 t-inv F
 -0.312500 -0.187500 -0.312500      39 t-inv F
 -0.437500 -0.312500 -0.187500      40 t-inv F
  0.187500  0.437500  0.312500      40 t-inv F
 -0.187500 -0.437500 -0.312500      40 t-inv F
  0.312500  0.187500  0.437500      40 t-inv F
 -0.312500 -0.187500 -0.437500      40 t-inv F
 -0.437500 -0.187500 -0.312500      40 t-inv F
  0.437500  0.187500  0.312500      40 t-inv F
 -0.312500 -0.437500 -0.187500      40 t-inv F
  0.312500  0.437500  0.187500      40 t-inv F
 -0.187500 -0.312500 -0.437500      40 t-inv F
  0.187500  0.312500  0.437500      40 t-inv F
  0.437500 -0.312500 -0.187500      41 t-inv F
  0.187500 -0.437500  0.312500      41 t-inv F
 -0.187500  0.437500 -0.312500      41 t-inv F
  0.312500  0.187500 -0.437500      41 t-inv F
 -0.312500 -0.187500  0.437500      41 t-inv F
  0.437500 -0.187500 -0.312500      41 t-inv F
 -0.437500  0.187500  0.312500      41 t-inv F
 -0.312500  0.437500 -0.187500      41 t-inv F
  0.312500 -0.437500  0.187500      41 t-inv F
 -0.187500 -0.312500  0.437500      41 t-inv F
  0.187500  0.312500 -0.437500      41 t-inv F
  0.312500 -0.312500 -0.187500      42 t-inv F
  0.187500 -0.312500  0.312500      42 t-inv F
 -0.187500  0.312500 -0.312500      42 t-inv F
  0.312500  0.187500 -0.312500      42 t-inv F
 -0.312500 -0.187500  0.312500      42 t-inv F
  0.312500 -0.187500 -0.312500      42 t-inv F
 -0.312500  0.187500  0.312500      42 t-inv F
 -0.312500  0.312500 -0.187500      42 t-inv F
  0.312500 -0.312500  0.187500      42 t-inv F
 -0.187500 -0.312500  0.312500      42 t-inv F
  0.187500  0.312500 -0.312500      42 t-inv F
  0.187500 -0.312500 -0.187500      43 t-inv F
  0.187500 -0.187500  0.312500      43 t-inv F
 -0.187500  0.187500 -0.312500      43 t-inv F
  0.312500  0.187500 -0.187500      43 t-inv F
 -0.312500 -0.187500  0.187500      43 t-inv F
  0.187500 -0.187500 -0.312500      43 t-inv F
 -0.187500  0.187500  0.312500      43 t-inv F
 -0.312500  0.187500 -0.187500      43 t-inv F
  0.312500 -0.187500  0.187500      43 t-inv F
 -0.187500 -0.312500  0.187500      43 t-inv F
  0.187500  0.312500 -0.187500      43 t-inv F
 -0.437500 -0.437500 -0.187500      44 t-inv F
  0.187500  0.437500  0.437500      44 t-inv F
 -0.187500 -0.437500 -0.437500      44 t-inv F
  0.437500  0.187500  0.437500      44 t-inv F
 -0.437500 -0.187500 -0.437500      44 t-inv F
  0.437500 -0.437500 -0.187500      45 t-inv F
  0.187500 -0.437500  0.437500      45 t-inv F
 -0.187500  0.437500 -0.437500      45 t-inv F
  0.437500  0.187500 -0.437500      45 t-inv F
 -0.437500 -0.187500  0.437500      45 t-inv F
  0.437500 -0.187500 -0.437500      45 t-inv F
 -0.437500  0.187500  0.437500      45 t-inv F
 -0.437500  0.437500 -0.187500      45 t-inv F
  0.437500 -0.437500  0.187500      45 t-inv F
 -0.187500 -0.437500  0.437500      45 t-inv F
  0.187500  0.437500 -0.437500      45 t-inv F
  0.312500 -0.437500 -0.187500      46 t-inv F
  0.187500 -0.312500  0.437500      46 t-inv F
 -0.187500  0.312500 -0.437500      46 t-inv F
  0.437500  0.187500 -0.312500      46 t-inv F
 -0.437500 -0.187500  0.312500      46 t-inv F
  0.312500 -0.187500 -0.437500      46 t-inv F
 -0.312500  0.187500  0.437500      46 t-inv F
 -0.437500  0.312500 -0.187500      46 t-inv F
  0.437500 -0.312500  0.187500      46 t-inv F
 -0.187500 -0.437500  0.312500      46 t-inv F
  0.187500  0.437500 -0.312500      46 t-inv F
  0.187500 -0.437500 -0.187500      47 t-inv F
  0.187500 -0.187500  0.437500      47 t-inv F
 -0.187500  0.187500 -0.437500      47 t-inv F
  0.437500  0.187500 -0.187500      47 t-inv F
 -0.437500 -0.187500  0.187500      47 t-inv F
  0.187500 -0.187500 -0.437500      47 t-inv F
 -0.187500  0.187500  0.437500      47 t-inv F
 -0.437500  0.187500 -0.187500      47 t-inv F
  0.437500 -0.187500  0.187500      47 t-inv F
 -0.187500 -0.437500  0.187500      47 t-inv F
  0.187500  0.437500 -0.187500      47 t-inv F
  0.437500  0.437500 -0.187500      48 t-inv F
  0.187500 -0.437500 -0.437500      48 t-inv F
 -0.187500  0.437500  0.437500      48 t-inv F
 -0.437500  0.187500 -0.437500      48 t-inv F
  0.437500 -0.187500  0.437500      48 t-inv F
  0.312500  0.437500 -0.187500      49 t-inv F
  0.187500 -0.312500 -0.437500      49 t-inv F
 -0.187500  0.312500  0.437500      49 t-inv F
 -0.437500  0.187500 -0.312500      49 t-inv F
  0.437500 -0.187500  0.312500      49 t-inv F
  0.312500 -0.187500  0.437500      49 t-inv F
 -0.312500  0.187500 -0.437500      49 t-inv F
  0.437500  0.312500 -0.187500      49 t-inv F
 -0.437500 -0.312500  0.187500      49 t-inv F
 -0.187500  0.437500  0.312500      49 t-inv F
  0.187500 -0.437500 -0.312500      49 t-inv F
  0.312500  0.312500 -0.187500      50 t-inv F
  0.187500 -0.312500 -0.312500      50 t-inv F
 -0.187500  0.312500  0.312500      50 t-inv F
 -0.312500  0.187500 -0.312500      50 t-inv F
  0.312500 -0.187500  0.312500      50 t-inv F
 -0.312500 -0.312500 -0.312500      51 t-inv F
 -0.437500 -0.312500 -0.312500      52 t-inv F
  0.312500  0.437500  0.312500      52 t-inv F
 -0.312500 -0.437500 -0.312500      52 t-inv F
  0.312500  0.312500  0.437500      52 t-inv F
 -0.312500 -0.312500 -0.437500      52 t-inv F
  0.437500 -0.312500 -0.312500      53 t-inv F
  0.312500 -0.437500  0.312500      53 t-inv F
 -0.312500  0.437500 -0.312500      53 t-inv F
  0.312500  0.312500 -0.437500      53 t-inv F
 -0.312500 -0.312500  0.437500      53 t-inv F
  0.312500 -0.312500 -0.312500      54 t-inv F
  0.312500 -0.312500  0.312500      54 t-inv F
 -0.312500  0.312500 -0.312500      54 t-inv F
  0.312500  0.312500 -0.312500      54 t-inv F
 -0.312500 -0.312500  0.312500      54 t-inv F
 -0.437500 -0.437500 -0.312500      55 t-inv F
  0.312500  0.437500  0.437500      55 t-inv F
 -0.312500 -0.437500 -0.437500      55 t-inv F
  0.437500  0.312500  0.437500      55 t-inv F
 -0.437500 -0.312500 -0.437500      55 t-inv F
  0.437500 -0.437500 -0.312500      56 t-inv F
  0.312500 -0.437500  0.437500      56 t-inv F
 -0.312500  0.437500 -0.437500      56 t-inv F
  0.437500  0.312500 -0.437500      56 t-inv F
 -0.437500 -0.312500  0.437500      56 t-inv F
  0.437500 -0.312500 -0.437500      56 t-inv F
 -0.437500  0.312500  0.437500      56 t-inv F
 -0.437500  0.437500 -0.312500      56 t-inv F
  0.437500 -0.437500  0.312500      56 t-inv F
 -0.312500 -0.437500  0.437500      56 t-inv F
  0.312500  0.437500 -0.437500      56 t-inv F
  0.312500 -0.437500 -0.312500      57 t-inv F
  0.312500 -0.312500  0.437500      57 t-inv F
 -0.312500  0.312500 -0.437500      57 t-inv F
  0.437500  0.312500 -0.312500      57 t-inv F
 -0.437500 -0.312500  0.312500      57 t-inv F
  0.312500 -0.312500 -0.437500      57 t-inv F
 -0.312500  0.312500  0.437500      57 t-inv F
 -0.437500  0.312500 -0.312500      57 t-inv F
  0.437500 -0.312500  0.312500      57 t-inv F
 -0.312500 -0.437500  0.312500      57 t-inv F
  0.312500  0.437500 -0.312500      57 t-inv F
  0.437500  0.437500 -0.312500      58 t-inv F
  0.312500 -0.437500 -0.437500      58 t-inv F
 -0.312500  0.437500  0.437500      58 t-inv F
 -0.437500  0.312500 -0.437500      58 t-inv F
  0.437500 -0.312500  0.437500      58 t-inv F
 -0.437500 -0.437500 -0.437500      59 t-inv F
  0.437500 -0.437500 -0.437500      60 t-inv F
  0.437500 -0.437500  0.437500      60 t-inv F
 -0.437500  0.437500 -0.437500      60 t-inv F
  0.437500  0.437500 -0.437500      60 t-inv F
 -0.437500 -0.437500  0.437500      60 t-inv F


--------------------------------------------------------------------------------------------------------




 Dimension of arrays:
   k-points           NKPTS =     60   k-points in BZ     NKDIM =    512   number of bands    NBANDS=    192
   number of dos      NEDOS =  10000   number of ions     NIONS =     10
   non local maximal  LDIM  =      8   non local SUM 2l+1 LMDIM =     32
   total plane-waves  NPLWV =  64000
   max r-space proj   IRMAX =      1   max aug-charges    IRDMAX=  31078
   dimension x,y,z NGX =    40 NGY =   40 NGZ =   40
   dimension x,y,z NGXF=    80 NGYF=   80 NGZF=   80
   support grid    NGXF=    80 NGYF=   80 NGZF=   80
   ions per type =               2   2   6
 NGX,Y,Z   is equivalent  to a cutoff of  12.45, 12.45, 12.45 a.u.
 NGXF,Y,Z  is equivalent  to a cutoff of  24.90, 24.90, 24.90 a.u.


 I would recommend the setting:
   dimension x,y,z NGX =    39 NGY =   39 NGZ =   39
 SYSTEM =  rLAO
 POSCAR =  La2 Al2 O6

 Startparameter for this run:
   NWRITE =      2    write-flag & timer
   PREC   = accura    normal or accurate (medium, high low for compatibility)
   ISTART =      0    job   : 0-new  1-cont  2-samecut
   ICHARG =      2    charge: 1-file 2-atom 10-const
   ISPIN  =      1    spin polarized calculation?
   LNONCOLLINEAR =      F non collinear calculations
   LSORBIT =      F    spin-orbit coupling
   INIWAV =      1    electr: 0-lowe 1-rand  2-diag
   LASPH  =      F    aspherical Exc in radial PAW
   METAGGA=      F    non-selfconsistent MetaGGA calc.

 Electronic Relaxation 1
   ENCUT  =  500.0 eV  36.75 Ry    6.06 a.u.   9.74  9.74  9.74*2*pi/ulx,y,z
   ENINI  =  500.0     initial cutoff
   ENAUG  =  605.4 eV  augmentation charge cutoff
   NELM   =     60;   NELMIN=  2; NELMDL= -5     # of ELM steps
   EDIFF  = 0.1E-04   stopping-criterion for ELM
   LREAL  =      F    real-space projection
   NLSPLINE    = F    spline interpolate recip. space projectors
   LCOMPAT=      F    compatible to vasp.4.4
   GGA_COMPAT  = T    GGA compatible to vasp.4.4-vasp.4.6
   LMAXPAW     = -100 max onsite density
   LMAXMIX     =    2 max onsite mixed and CHGCAR
   VOSKOWN=      0    Vosko Wilk Nusair interpolation
   ROPT   =    0.00000   0.00000   0.00000
 Ionic relaxation
   EDIFFG = 0.1E-03   stopping-criterion for IOM
   NSW    =      0    number of steps for IOM
   NBLOCK =      1;   KBLOCK =      1    inner block; outer block
   IBRION =     -1    ionic relax: 0-MD 1-quasi-New 2-CG
   NFREE  =      0    steps in history (QN), initial steepest desc. (CG)
   ISIF   =      0    stress and relaxation
   IWAVPR =     10    prediction:  0-non 1-charg 2-wave 3-comb
   ISYM   =      3    0-nonsym 1-usesym 2-fastsym
   LCORR  =      T    Harris-Foulkes like correction to forces

   POTIM  = 0.5000    time-step for ionic-motion
   TEIN   =    0.0    initial temperature
   TEBEG  =    0.0;   TEEND  =   0.0 temperature during run
   SMASS  =  -3.00    Nose mass-parameter (am)
   estimated Nose-frequenzy (Omega)   =  0.10E-29 period in steps =****** mass=  -0.652E-27a.u.
   SCALEE = 1.0000    scale energy and forces
   NPACO  =    256;   APACO  = 16.0  distance and # of slots for P.C.
   PSTRESS=    0.0 pullay stress

  Mass of Ions in am
   POMASS = 138.90 26.98 16.00
  Ionic Valenz
   ZVAL   =  11.00  3.00  6.00
  Atomic Wigner-Seitz radii
   RWIGS  =  -1.00 -1.00 -1.00
  virtual crystal weights
   VCA    =   1.00  1.00  1.00
   NELECT =      64.0000    total number of electrons
   NUPDOWN=      -1.0000    fix difference up-down

 DOS related values:
   EMIN   =  10.00;   EMAX   =-10.00  energy-range for DOS
   EFERMI =   0.00
   ISMEAR =     0;   SIGMA  =   0.05  broadening in eV -4-tet -1-fermi 0-gaus

 Electronic relaxation 2 (details)
   IALGO  =     38    algorithm
   LDIAG  =      T    sub-space diagonalisation (order eigenvalues)
   LSUBROT=      T    optimize rotation matrix (better conditioning)
   TURBO    =      0    0=normal 1=particle mesh
   IRESTART =      0    0=no restart 2=restart with 2 vectors
   NREBOOT  =      0    no. of reboots
   NMIN     =      0    reboot dimension
   EREF     =   0.00    reference energy to select bands
   IMIX   =      1    mixing-type and parameters
     AMIX     =   0.40;   BMIX     =  1.00
     AMIX_MAG =   1.60;   BMIX_MAG =  1.00
     AMIN     =   0.10
     WC   =   100.;   INIMIX=   1;  MIXPRE=   1;  MAXMIX= -45

 Intra band minimization:
   WEIMIN = 0.0000     energy-eigenvalue tresh-hold
   EBREAK =  0.13E-07  absolut break condition
   DEPER  =   0.30     relativ break condition

   TIME   =   0.40     timestep for ELM

  volume/ion in A,a.u.               =      10.83        73.08
  Fermi-wavevector in a.u.,A,eV,Ry     =   1.373855  2.596210 25.680705  1.887479
  Thomas-Fermi vector in A             =   2.499335

 Write flags
   LWAVE  =      T    write WAVECAR
   LCHARG =      F    write CHGCAR
   LVTOT  =      F    write LOCPOT, total local potential
   LVHAR  =      F    write LOCPOT, Hartree potential only
   LELF   =      F    write electronic localiz. function (ELF)
   LORBIT =     11    0 simple, 1 ext, 2 COOP (PROOUT)


 Dipole corrections
   LMONO  =      F    monopole corrections only (constant potential shift)
   LDIPOL =      F    correct potential (dipole corrections)
   IDIPOL =      0    1-x, 2-y, 3-z, 4-all directions
   EPSILON=  1.0000000 bulk dielectric constant

 Exchange correlation treatment:
   GGA     =    --    GGA type
   LEXCH   =     8    internal setting for exchange type
   VOSKOWN=      0    Vosko Wilk Nusair interpolation
   EXXOEP  =     0    0=HF, 1=EXX-LHF (local Hartree Fock) 2=EXX OEP
   LHFCALC =     T    Hartree Fock is set to
   LSYMGRAD=     F    symmetrize gradient (conserves proper symmetry)
   PRECFOCK=normal    Normal, Fast or Accurate (Low or Medium for compatibility)
   LRHFCALC=     F    long range Hartree Fock
   LRSCOR  =     F    long range correlation only (use DFT for short range part)
   LTHOMAS =     F    Thomas Fermi screening in HF
   LMODELHF=     F    short range full HF, long range fraction AEXX
   ENCUT4O =  -1.0   cutoff for four orbital integrals eV
   LMAXFOCK=     4    L truncation for augmentation on plane wave grid
   LMAXFOCKAE=  -1    L truncation for all-electron charge restoration on plane wave grid
   NMAXFOCKAE=   1    number of basis functions for all-electron charge restoration
   LFOCKAEDFT=     F  apply the AE augmentation even for DFT
   NKREDX  =     1    reduce k-point grid by
   NKREDY  =     1    reduce k-point grid by
   NKREDZ  =     1    reduce k-point grid by
   SHIFTRED=     F    shift reduced grid of Gamma
   HFKIDENT=     F    idential grid for each k-point
   ODDONLY =     F    use only odd q-grid points
   EVENONLY=     F    use only even q-grid points
   HFALPHA =   -1.0000 decay constant for conv. correction
   MCALPHA =    0.0000 extent of test-charge in conv. correction in multipole expansion
   AEXX    =    0.2500 exact exchange contribution
   HFSCREEN=    0.2000 screening length (either q_TF or 0.3 A-1)
   HFSCREENC=   0.2000 screening length for correlation (either q_TF or 0.3 A-1)
   HFRCUT  =    0.0000 spherical cutoff for potential kernel
   ALDAX   =    0.7500 LDA exchange part
   AGGAX   =    0.7500 GGA exchange part
   ALDAC   =    1.0000 LDA correlation
   AGGAC   =    1.0000 GGA correlation
   NBANDSGWLOW=     1    first orbital included in HF term
 Linear response parameters
   LEPSILON=     F    determine dielectric tensor
   LRPA    =     F    only Hartree local field effects (RPA)
   LNABLA  =     F    use nabla operator in PAW spheres
   LVEL    =     F    velocity operator in full k-point grid
   LINTERFAST=   F  fast interpolation
   KINTER  =     0    interpolate to denser k-point grid
   CSHIFT  =0.1000    complex shift for real part using Kramers Kronig
   OMEGAMAX=  -1.0    maximum frequency
   DEG_THRESHOLD= 0.2000000E-02 threshold for treating states as degnerate
   RTIME   =    0.100 relaxation time in fs

 Orbital magnetization related:
   ORBITALMAG=     F  switch on orbital magnetization
   LCHIMAG   =     F  perturbation theory with respect to B field
   DQ        =  0.001000  dq finite difference perturbation B field



--------------------------------------------------------------------------------------------------------


 Static calculation
 charge density and potential will be updated during run
 non-spin polarized calculation
 Variant of blocked Davidson
 Davidson routine will perform the subspace rotation
 perform sub-space diagonalisation
    after iterative eigenvector-optimisation
 Kerker-like  mixing scheme
 using additional bands          160
 reciprocal scheme for non local part
 use partial core corrections
 calculate Harris-corrections to forces
   (improved forces if not selfconsistent)
 use gradient corrections
 use of overlap-Matrix (Vanderbilt PP)
 Gauss-broadening in eV      SIGMA  =   0.05


--------------------------------------------------------------------------------------------------------


  energy-cutoff  :      500.00
  volume of cell :      108.29
      direct lattice vectors                 reciprocal lattice vectors
     5.342031878  0.001013062  0.000717556     0.187225207 -0.107159514 -0.075901519
     2.653850792  4.636203359  0.000717556    -0.000030714  0.215723060 -0.075901519
     2.653850792  1.539102183  4.373276411    -0.000030714 -0.000017813  0.228686420

  length of vectors
     5.342032022  5.342032022  5.342032022     0.228686423  0.228686423  0.228686423



 k-points in units of 2pi/SCALE and weight: Automatically generated mesh
   0.01160167  0.00672839  0.00476575       0.004
   0.03481262 -0.00655654 -0.00464402       0.012
   0.05802358 -0.01984147 -0.01405380       0.012
   0.08123453 -0.03312641 -0.02346357       0.012
  -0.08124215  0.05986813  0.04240484       0.012
  -0.05803119  0.04658320  0.03299507       0.012
  -0.03482024  0.03329826  0.02358530       0.012
  -0.01160929  0.02001333  0.01417552       0.012
   0.03480882  0.02018739 -0.01405380       0.012
   0.05801977  0.00690246 -0.02346357       0.023
   0.08123073 -0.00638248 -0.03287334       0.023
  -0.08124596  0.08661206  0.03299507       0.023
  -0.05803500  0.07332713  0.02358530       0.023
  -0.03482405  0.06004220  0.01417552       0.023
  -0.01161309  0.04675726  0.00476575       0.023
   0.05801596  0.03364639 -0.03287334       0.012
   0.08122692  0.02036145 -0.04228312       0.023
  -0.08124976  0.11335600  0.02358530       0.023
  -0.05803881  0.10007106  0.01417552       0.023
  -0.03482786  0.08678613  0.00476575       0.023
  -0.01161690  0.07350119 -0.00464402       0.023
   0.08122311  0.04710539 -0.05169289       0.012
  -0.08125357  0.14009993  0.01417552       0.023
  -0.05804262  0.12681499  0.00476575       0.023
  -0.03483166  0.11353006 -0.00464402       0.023
  -0.01162071  0.10024512 -0.01405380       0.023
  -0.08122692 -0.04710759  0.08004393       0.012
  -0.05801596 -0.06039253  0.07063416       0.023
  -0.03480501 -0.07367746  0.06122439       0.023
  -0.05801977 -0.03364860  0.06122439       0.012
  -0.03480882 -0.04693353  0.05181461       0.023
  -0.03481262 -0.02018960  0.04240484       0.012
   0.03480501  0.02018518  0.01429725       0.004
   0.05801596  0.00690025  0.00488747       0.012
   0.08122692 -0.00638469 -0.00452230       0.012
  -0.08124976  0.08660986  0.06134611       0.012
  -0.05803881  0.07332492  0.05193634       0.012
  -0.03482786  0.06003999  0.04252657       0.012
   0.05801216  0.03364418 -0.00452230       0.012
   0.08122311  0.02035925 -0.01393207       0.023
  -0.08125357  0.11335379  0.05193634       0.023
  -0.05804262  0.10006885  0.04252657       0.023
  -0.03483166  0.08678392  0.03311679       0.023
   0.08121930  0.04710318 -0.02334184       0.012
  -0.08125738  0.14009772  0.04252657       0.023
  -0.05804643  0.12681279  0.03311679       0.023
  -0.03483547  0.11352785  0.02370702       0.023
  -0.08123073 -0.04710980  0.10839498       0.012
  -0.05801977 -0.06039474  0.09898520       0.023
  -0.05802358 -0.03365081  0.08957543       0.012
   0.05800835  0.03364197  0.02382875       0.004
   0.08121930  0.02035704  0.01441897       0.012
  -0.08125738  0.11335158  0.08028738       0.012
  -0.05804643  0.10006665  0.07087761       0.012
   0.08121549  0.04710097  0.00500920       0.012
  -0.08126119  0.14009551  0.07087761       0.023
  -0.05805023  0.12681058  0.06146784       0.023
  -0.08123453 -0.04711201  0.13674602       0.012
   0.08121169  0.04709876  0.03336024       0.004
  -0.08126500  0.14009330  0.09922865       0.012

 k-points in reciprocal lattice and weights: Automatically generated mesh
   0.06250000  0.06250000  0.06250000       0.004
   0.18750000  0.06250000  0.06250000       0.012
   0.31250000  0.06250000  0.06250000       0.012
   0.43750000  0.06250000  0.06250000       0.012
  -0.43750000  0.06250000  0.06250000       0.012
  -0.31250000  0.06250000  0.06250000       0.012
  -0.18750000  0.06250000  0.06250000       0.012
  -0.06250000  0.06250000  0.06250000       0.012
   0.18750000  0.18750000  0.06250000       0.012
   0.31250000  0.18750000  0.06250000       0.023
   0.43750000  0.18750000  0.06250000       0.023
  -0.43750000  0.18750000  0.06250000       0.023
  -0.31250000  0.18750000  0.06250000       0.023
  -0.18750000  0.18750000  0.06250000       0.023
  -0.06250000  0.18750000  0.06250000       0.023
   0.31250000  0.31250000  0.06250000       0.012
   0.43750000  0.31250000  0.06250000       0.023
  -0.43750000  0.31250000  0.06250000       0.023
  -0.31250000  0.31250000  0.06250000       0.023
  -0.18750000  0.31250000  0.06250000       0.023
  -0.06250000  0.31250000  0.06250000       0.023
   0.43750000  0.43750000  0.06250000       0.012
  -0.43750000  0.43750000  0.06250000       0.023
  -0.31250000  0.43750000  0.06250000       0.023
  -0.18750000  0.43750000  0.06250000       0.023
  -0.06250000  0.43750000  0.06250000       0.023
  -0.43750000 -0.43750000  0.06250000       0.012
  -0.31250000 -0.43750000  0.06250000       0.023
  -0.18750000 -0.43750000  0.06250000       0.023
  -0.31250000 -0.31250000  0.06250000       0.012
  -0.18750000 -0.31250000  0.06250000       0.023
  -0.18750000 -0.18750000  0.06250000       0.012
   0.18750000  0.18750000  0.18750000       0.004
   0.31250000  0.18750000  0.18750000       0.012
   0.43750000  0.18750000  0.18750000       0.012
  -0.43750000  0.18750000  0.18750000       0.012
  -0.31250000  0.18750000  0.18750000       0.012
  -0.18750000  0.18750000  0.18750000       0.012
   0.31250000  0.31250000  0.18750000       0.012
   0.43750000  0.31250000  0.18750000       0.023
  -0.43750000  0.31250000  0.18750000       0.023
  -0.31250000  0.31250000  0.18750000       0.023
  -0.18750000  0.31250000  0.18750000       0.023
   0.43750000  0.43750000  0.18750000       0.012
  -0.43750000  0.43750000  0.18750000       0.023
  -0.31250000  0.43750000  0.18750000       0.023
  -0.18750000  0.43750000  0.18750000       0.023
  -0.43750000 -0.43750000  0.18750000       0.012
  -0.31250000 -0.43750000  0.18750000       0.023
  -0.31250000 -0.31250000  0.18750000       0.012
   0.31250000  0.31250000  0.31250000       0.004
   0.43750000  0.31250000  0.31250000       0.012
  -0.43750000  0.31250000  0.31250000       0.012
  -0.31250000  0.31250000  0.31250000       0.012
   0.43750000  0.43750000  0.31250000       0.012
  -0.43750000  0.43750000  0.31250000       0.023
  -0.31250000  0.43750000  0.31250000       0.023
  -0.43750000 -0.43750000  0.31250000       0.012
   0.43750000  0.43750000  0.43750000       0.004
  -0.43750000  0.43750000  0.43750000       0.012

 position of ions in fractional coordinates (direct lattice)
   0.75000000  0.75000000  0.75000000
   0.25000000  0.25000000  0.25000000
   0.50000000  0.50000000  0.50000000
   0.00000000  0.00000000  0.00000000
   0.28500187  0.75000000  0.21499812
   0.75000000  0.21499812  0.28500187
   0.21499812  0.28500187  0.75000000
   0.71499810  0.25000000  0.78500190
   0.78500190  0.71499810  0.25000000
   0.25000000  0.78500190  0.71499810

 position of ions in cartesian coordinates  (Angst):
   7.98730010  4.63223895  3.28103364
   2.66243337  1.54407965  1.09367788
   5.32486673  3.08815930  2.18735576
   0.00000000  0.00000000  0.00000000
   4.08345008  3.80834531  0.94098886
   5.33344926  1.43618178  1.24708439
   3.89526732  2.47587107  3.28031609
   6.56628326  2.36797331  3.43372273
   6.75446614  3.70044740  1.09439544
   5.31628416  4.74013685  3.12762700



--------------------------------------------------------------------------------------------------------


 k-point  1 :   0.0625 0.0625 0.0625  plane waves:    2731
 k-point  2 :   0.1875 0.0625 0.0625  plane waves:    2738
 k-point  3 :   0.3125 0.0625 0.0625  plane waves:    2750
 k-point  4 :   0.4375 0.0625 0.0625  plane waves:    2763
 k-point  5 :  -0.4375 0.0625 0.0625  plane waves:    2755
 k-point  6 :  -0.3125 0.0625 0.0625  plane waves:    2751
 k-point  7 :  -0.1875 0.0625 0.0625  plane waves:    2753
 k-point  8 :  -0.0625 0.0625 0.0625  plane waves:    2737
 k-point  9 :   0.1875 0.1875 0.0625  plane waves:    2743
 k-point 10 :   0.3125 0.1875 0.0625  plane waves:    2747
 k-point 11 :   0.4375 0.1875 0.0625  plane waves:    2749
 k-point 12 :  -0.4375 0.1875 0.0625  plane waves:    2754
 k-point 13 :  -0.3125 0.1875 0.0625  plane waves:    2754
 k-point 14 :  -0.1875 0.1875 0.0625  plane waves:    2754
 k-point 15 :  -0.0625 0.1875 0.0625  plane waves:    2751
 k-point 16 :   0.3125 0.3125 0.0625  plane waves:    2750
 k-point 17 :   0.4375 0.3125 0.0625  plane waves:    2753
 k-point 18 :  -0.4375 0.3125 0.0625  plane waves:    2743
 k-point 19 :  -0.3125 0.3125 0.0625  plane waves:    2743
 k-point 20 :  -0.1875 0.3125 0.0625  plane waves:    2743
 k-point 21 :  -0.0625 0.3125 0.0625  plane waves:    2749
 k-point 22 :   0.4375 0.4375 0.0625  plane waves:    2760
 k-point 23 :  -0.4375 0.4375 0.0625  plane waves:    2756
 k-point 24 :  -0.3125 0.4375 0.0625  plane waves:    2750
 k-point 25 :  -0.1875 0.4375 0.0625  plane waves:    2747
 k-point 26 :  -0.0625 0.4375 0.0625  plane waves:    2759
 k-point 27 :  -0.4375-0.4375 0.0625  plane waves:    2758
 k-point 28 :  -0.3125-0.4375 0.0625  plane waves:    2756
 k-point 29 :  -0.1875-0.4375 0.0625  plane waves:    2752
 k-point 30 :  -0.3125-0.3125 0.0625  plane waves:    2754
 k-point 31 :  -0.1875-0.3125 0.0625  plane waves:    2750
 k-point 32 :  -0.1875-0.1875 0.0625  plane waves:    2746
 k-point 33 :   0.1875 0.1875 0.1875  plane waves:    2740
 k-point 34 :   0.3125 0.1875 0.1875  plane waves:    2743
 k-point 35 :   0.4375 0.1875 0.1875  plane waves:    2746
 k-point 36 :  -0.4375 0.1875 0.1875  plane waves:    2754
 k-point 37 :  -0.3125 0.1875 0.1875  plane waves:    2748
 k-point 38 :  -0.1875 0.1875 0.1875  plane waves:    2753
 k-point 39 :   0.3125 0.3125 0.1875  plane waves:    2740
 k-point 40 :   0.4375 0.3125 0.1875  plane waves:    2750
 k-point 41 :  -0.4375 0.3125 0.1875  plane waves:    2746
 k-point 42 :  -0.3125 0.3125 0.1875  plane waves:    2744
 k-point 43 :  -0.1875 0.3125 0.1875  plane waves:    2752
 k-point 44 :   0.4375 0.4375 0.1875  plane waves:    2748
 k-point 45 :  -0.4375 0.4375 0.1875  plane waves:    2744
 k-point 46 :  -0.3125 0.4375 0.1875  plane waves:    2744
 k-point 47 :  -0.1875 0.4375 0.1875  plane waves:    2741
 k-point 48 :  -0.4375-0.4375 0.1875  plane waves:    2754
 k-point 49 :  -0.3125-0.4375 0.1875  plane waves:    2753
 k-point 50 :  -0.3125-0.3125 0.1875  plane waves:    2750
 k-point 51 :   0.3125 0.3125 0.3125  plane waves:    2746
 k-point 52 :   0.4375 0.3125 0.3125  plane waves:    2756
 k-point 53 :  -0.4375 0.3125 0.3125  plane waves:    2742
 k-point 54 :  -0.3125 0.3125 0.3125  plane waves:    2749
 k-point 55 :   0.4375 0.4375 0.3125  plane waves:    2753
 k-point 56 :  -0.4375 0.4375 0.3125  plane waves:    2746
 k-point 57 :  -0.3125 0.4375 0.3125  plane waves:    2746
 k-point 58 :  -0.4375-0.4375 0.3125  plane waves:    2745
 k-point 59 :   0.4375 0.4375 0.4375  plane waves:    2755
 k-point 60 :  -0.4375 0.4375 0.4375  plane waves:    2743

 maximum and minimum number of plane-waves per node :      2763     2731

 maximum number of plane-waves:      2763
 maximum index in each direction:
   IXMAX=   10   IYMAX=   10   IZMAX=    9
   IXMIN=  -10   IYMIN=  -10   IZMIN=  -10

 WARNING: aliasing errors must be expected set NGX to  42 to avoid them
 WARNING: aliasing errors must be expected set NGY to  42 to avoid them
 NGZ is ok and might be reduce to  40
 aliasing errors are usually negligible using standard VASP settings
 and one can safely disregard these warnings

 serial   3D FFT for wavefunctions
 parallel 3D FFT for charge:
    minimum data exchange during FFTs selected (reduces bandwidth)


 FFT grid for exact exchange (Hartree Fock)
  NGX = 30; NGY = 30; NGZ = 30


 Radii for the augmentation spheres in the non-local exchange
 for species   1 augmentation radius   1.435 (default was   1.148)
       energy cutoff for augmentation   2000.0
 for species   2 augmentation radius   1.041 (default was   1.041)
       energy cutoff for augmentation   2000.0
 for species   3 augmentation radius   0.820 (default was   0.722)
       energy cutoff for augmentation   2000.0

 total amount of memory used by VASP on root node   747961. kBytes
========================================================================

   base      :      30000. kBytes
   nonl-proj :     127761. kBytes
   fftplans  :      17864. kBytes
   grid      :      35968. kBytes
   one-center:        491. kBytes
   HF        :        614. kBytes
   nonlr-proj:       2394. kBytes
   wavefun   :     532869. kBytes

 initial charge density was supplied:
 charge density of overlapping atoms calculated
 number of electron      64.0000000 magnetization
 keeping initial charge density in first step


--------------------------------------------------------------------------------------------------------


 Maximum index for augmentation-charges        29913 (set IRDMAX)


--------------------------------------------------------------------------------------------------------


 First call to EWALD:  gamma=   0.372
 Maximum number of real-space cells 3x 3x 3
 Maximum number of reciprocal cells 3x 3x 3

 FEWALD executed in parallel
    FEWALD:  cpu time    0.00: real time    0.00


----------------------------------------- Iteration    1(   1)  ---------------------------------------


    POTLOK:  cpu time    5.05: real time    5.07
    SETDIJ:  cpu time    6.94: real time    6.97
     EDDAV:  cpu time   15.45: real time   15.50
       DOS:  cpu time    0.01: real time    0.01
    --------------------------------------------
      LOOP:  cpu time   27.45: real time   27.55

 eigenvalue-minimisations  : 44328
 total energy-change (2. order) : 0.2674356E+04  (-0.9308683E+04)
 number of electron      64.0000000 magnetization
 augmentation part       64.0000000 magnetization

 Free energy of the ion-electron system (eV)
  ---------------------------------------------------
  alpha Z        PSCENC =       224.44237756
  Ewald energy   TEWEN  =     -4163.88344747
  -1/2 Hartree   DENC   =      -659.43481620
  -exchange  EXHF       =         0.00000000
  -V(xc)+E(xc)   XCENC  =       137.41998316
  PAW double counting   =      2526.91468497    -2482.04399355
  entropy T*S    EENTRO =        -0.00393367
  eigenvalues    EBANDS =      2691.22354629
  atomic energy  EATOM  =      4399.72123299
  ---------------------------------------------------
  free energy    TOTEN  =      2674.35563409 eV

  energy without entropy =     2674.35956775  energy(sigma->0) =     2674.35760092


--------------------------------------------------------------------------------------------------------




----------------------------------------- Iteration    1(   2)  ---------------------------------------


     EDDAV:  cpu time   10.09: real time   10.13
       DOS:  cpu time    0.01: real time    0.01
    --------------------------------------------
      LOOP:  cpu time   10.10: real time   10.14

 eigenvalue-minimisations  : 42096
 total energy-change (2. order) :-0.2382704E+04  (-0.1980790E+04)
 number of electron      64.0000000 magnetization
 augmentation part       64.0000000 magnetization

 Free energy of the ion-electron system (eV)
  ---------------------------------------------------
  alpha Z        PSCENC =       224.44237756
  Ewald energy   TEWEN  =     -4163.88344747
  -1/2 Hartree   DENC   =      -659.43481620
  -exchange  EXHF       =         0.00000000
  -V(xc)+E(xc)   XCENC  =       137.41998316
  PAW double counting   =      2526.91468497    -2482.04399355
  entropy T*S    EENTRO =         0.00000000
  eigenvalues    EBANDS =       308.51536890
  atomic energy  EATOM  =      4399.72123299
  ---------------------------------------------------
  free energy    TOTEN  =       291.65139037 eV

  energy without entropy =      291.65139037  energy(sigma->0) =      291.65139037


--------------------------------------------------------------------------------------------------------




----------------------------------------- Iteration    1(   3)  ---------------------------------------


     EDDAV:  cpu time    7.86: real time    7.88
       DOS:  cpu time    0.01: real time    0.01
    --------------------------------------------
      LOOP:  cpu time    7.86: real time    7.89

 eigenvalue-minimisations  : 29776
 total energy-change (2. order) :-0.2121482E+03  (-0.1923816E+03)
 number of electron      64.0000000 magnetization
 augmentation part       64.0000000 magnetization

 Free energy of the ion-electron system (eV)
  ---------------------------------------------------
  alpha Z        PSCENC =       224.44237756
  Ewald energy   TEWEN  =     -4163.88344747
  -1/2 Hartree   DENC   =      -659.43481620
  -exchange  EXHF       =         0.00000000
  -V(xc)+E(xc)   XCENC  =       137.41998316
  PAW double counting   =      2526.91468497    -2482.04399355
  entropy T*S    EENTRO =         0.00000000
  eigenvalues    EBANDS =        96.36713296
  atomic energy  EATOM  =      4399.72123299
  ---------------------------------------------------
  free energy    TOTEN  =        79.50315442 eV

  energy without entropy =       79.50315442  energy(sigma->0) =       79.50315442


--------------------------------------------------------------------------------------------------------




----------------------------------------- Iteration    1(   4)  ---------------------------------------


     EDDAV:  cpu time    7.59: real time    7.62
       DOS:  cpu time    0.01: real time    0.01
    --------------------------------------------
      LOOP:  cpu time    7.60: real time    7.63

 eigenvalue-minimisations  : 27432
 total energy-change (2. order) :-0.1528530E+02  (-0.1465017E+02)
 number of electron      64.0000000 magnetization
 augmentation part       64.0000000 magnetization

 Free energy of the ion-electron system (eV)
  ---------------------------------------------------
  alpha Z        PSCENC =       224.44237756
  Ewald energy   TEWEN  =     -4163.88344747
  -1/2 Hartree   DENC   =      -659.43481620
  -exchange  EXHF       =         0.00000000
  -V(xc)+E(xc)   XCENC  =       137.41998316
  PAW double counting   =      2526.91468497    -2482.04399355
  entropy T*S    EENTRO =         0.00000000
  eigenvalues    EBANDS =        81.08183457
  atomic energy  EATOM  =      4399.72123299
  ---------------------------------------------------
  free energy    TOTEN  =        64.21785604 eV

  energy without entropy =       64.21785604  energy(sigma->0) =       64.21785604


--------------------------------------------------------------------------------------------------------




----------------------------------------- Iteration    1(   5)  ---------------------------------------


     EDDAV:  cpu time45259.57: real time45417.34
       DOS:  cpu time    0.01: real time    0.01
    CHARGE:  cpu time    0.76: real time    0.76
    MIXING:  cpu time    0.01: real time    0.01
    --------------------------------------------
      LOOP:  cpu time45260.35: real time45418.12

 eigenvalue-minimisations  : 37792
 total energy-change (2. order) :-0.1791807E+03  (-0.7949298E+00)
 number of electron      64.0000011 magnetization
 augmentation part        1.3495112 magnetization

 Free energy of the ion-electron system (eV)
  ---------------------------------------------------
  alpha Z        PSCENC =       224.44237756
  Ewald energy   TEWEN  =     -4163.88344747
  -1/2 Hartree   DENC   =      -659.43481620
  -exchange  EXHF       =       173.09813233
  -V(xc)+E(xc)   XCENC  =       137.41998316
  PAW double counting   =      2526.91468497    -2482.04399355
  entropy T*S    EENTRO =         0.00000000
  eigenvalues    EBANDS =      -271.19699724
  atomic energy  EATOM  =      4399.72123299
  ---------------------------------------------------
  free energy    TOTEN  =      -114.96284344 eV

  energy without entropy =     -114.96284344  energy(sigma->0) =     -114.96284344


--------------------------------------------------------------------------------------------------------




----------------------------------------- Iteration    1(   6)  ---------------------------------------


    POTLOK:  cpu time    5.32: real time    5.34
    SETDIJ:  cpu time    6.79: real time    6.81
     EDDAV:  cpu time49324.54: real time49487.41
       DOS:  cpu time    0.01: real time    0.01
    CHARGE:  cpu time    0.63: real time    0.63
    MIXING:  cpu time    0.01: real time    0.01
    --------------------------------------------
      LOOP:  cpu time49337.31: real time49500.22

 eigenvalue-minimisations  : 37672
 total energy-change (2. order) : 0.1019577E+02  (-0.6360296E-01)
 number of electron      64.0000016 magnetization
 augmentation part        0.6130987 magnetization

 Free energy of the ion-electron system (eV)
  ---------------------------------------------------
  alpha Z        PSCENC =       224.44237756
  Ewald energy   TEWEN  =     -4163.88344747
  -1/2 Hartree   DENC   =      -743.35681897
  -exchange  EXHF       =       184.02601235
  -V(xc)+E(xc)   XCENC  =       141.93375813
  PAW double counting   =      2788.50512091    -2746.50034078
  entropy T*S    EENTRO =         0.00000000
  eigenvalues    EBANDS =      -189.65497036
  atomic energy  EATOM  =      4399.72123299
  ---------------------------------------------------
  free energy    TOTEN  =      -104.76707562 eV

  energy without entropy =     -104.76707562  energy(sigma->0) =     -104.76707562


--------------------------------------------------------------------------------------------------------




----------------------------------------- Iteration    1(   7)  ---------------------------------------


    POTLOK:  cpu time    5.24: real time    5.26
    SETDIJ:  cpu time    6.80: real time    6.82
     EDDAV:  cpu time34332.15: real time34451.97
[...]
   90.756052    0.889618    0.889795    0.889840   -0.000155   -0.000063   -0.000109
   90.871079    0.889881    0.890062    0.890107   -0.000158   -0.000065   -0.000112
   90.986105    0.890220    0.890382    0.890423   -0.000141   -0.000058   -0.000100
   91.101132    0.890535    0.890705    0.890748   -0.000149   -0.000061   -0.000105
   91.216159    0.890892    0.891042    0.891080   -0.000131   -0.000054   -0.000093
   91.331185    0.891275    0.891384    0.891412   -0.000096   -0.000040   -0.000068
   91.446212    0.891565    0.891646    0.891666   -0.000071   -0.000029   -0.000050
   91.561239    0.891822    0.891916    0.891940   -0.000082   -0.000034   -0.000058
   91.676266    0.892099    0.892194    0.892217   -0.000083   -0.000034   -0.000059
   91.791292    0.892432    0.892525    0.892548   -0.000081   -0.000033   -0.000058
   91.906319    0.892726    0.892885    0.892924   -0.000138   -0.000057   -0.000098
   92.021346    0.893043    0.893247    0.893298   -0.000178   -0.000073   -0.000126
   92.136372    0.893305    0.893504    0.893554   -0.000174   -0.000071   -0.000123
   92.251399    0.893627    0.893789    0.893830   -0.000142   -0.000058   -0.000100
   92.366426    0.893976    0.894133    0.894172   -0.000137   -0.000056   -0.000097
   92.481452    0.894347    0.894460    0.894489   -0.000098   -0.000040   -0.000070
   92.596479    0.894712    0.894784    0.894802   -0.000063   -0.000026   -0.000045
   92.711506    0.894971    0.895075    0.895101   -0.000091   -0.000037   -0.000064
   92.826532    0.895192    0.895319    0.895351   -0.000111   -0.000045   -0.000078
   92.941559    0.895512    0.895603    0.895626   -0.000080   -0.000033   -0.000057
   93.056586    0.895814    0.895918    0.895945   -0.000091   -0.000037   -0.000065
   93.171612    0.896107    0.896203    0.896227   -0.000083   -0.000034   -0.000059
   93.286639    0.896436    0.896499    0.896515   -0.000056   -0.000023   -0.000039
   93.401666    0.896752    0.896813    0.896828   -0.000053   -0.000022   -0.000038
   93.516692    0.897076    0.897149    0.897167   -0.000063   -0.000026   -0.000045
   93.631719    0.897386    0.897469    0.897490   -0.000073   -0.000030   -0.000051
   93.746746    0.897651    0.897731    0.897751   -0.000070   -0.000029   -0.000049
   93.861772    0.897883    0.897983    0.898009   -0.000087   -0.000036   -0.000062
   93.976799    0.898188    0.898277    0.898299   -0.000078   -0.000032   -0.000055
   94.091826    0.898449    0.898528    0.898548   -0.000069   -0.000028   -0.000049
   94.206853    0.898684    0.898761    0.898780   -0.000068   -0.000028   -0.000048
   94.321879    0.898977    0.899059    0.899080   -0.000072   -0.000029   -0.000051
   94.436906    0.899279    0.899342    0.899358   -0.000056   -0.000023   -0.000039
   94.551933    0.899542    0.899599    0.899614   -0.000050   -0.000021   -0.000035
   94.666959    0.899787    0.899853    0.899869   -0.000057   -0.000024   -0.000041
   94.781986    0.900075    0.900147    0.900166   -0.000064   -0.000026   -0.000045
   94.897013    0.900379    0.900465    0.900487   -0.000075   -0.000031   -0.000053
   95.012039    0.900707    0.900793    0.900815   -0.000076   -0.000031   -0.000054
   95.127066    0.901020    0.901100    0.901120   -0.000070   -0.000029   -0.000049
   95.242093    0.901318    0.901396    0.901415   -0.000068   -0.000028   -0.000048
   95.357119    0.901605    0.901685    0.901706   -0.000070   -0.000029   -0.000050
   95.472146    0.901911    0.901988    0.902008   -0.000068   -0.000028   -0.000048
   95.587173    0.902215    0.902291    0.902310   -0.000067   -0.000027   -0.000047
   95.702199    0.902512    0.902588    0.902607   -0.000066   -0.000027   -0.000047
   95.817226    0.902802    0.902880    0.902900   -0.000068   -0.000028   -0.000048
   95.932253    0.903090    0.903169    0.903189   -0.000069   -0.000028   -0.000049
   96.047279    0.903377    0.903455    0.903475   -0.000069   -0.000028   -0.000049
   96.162306    0.903661    0.903739    0.903759   -0.000068   -0.000028   -0.000048
   96.277333    0.903942    0.904019    0.904039   -0.000067   -0.000028   -0.000048
   96.392359    0.904221    0.904298    0.904317   -0.000067   -0.000028   -0.000047
   96.507386    0.904497    0.904574    0.904593   -0.000067   -0.000027   -0.000047
   96.622413    0.904771    0.904847    0.904867   -0.000066   -0.000027   -0.000047
   96.737440    0.905044    0.905119    0.905139   -0.000066   -0.000027   -0.000047
   96.852466    0.905315    0.905390    0.905408   -0.000065   -0.000027   -0.000046
   96.967493    0.905584    0.905658    0.905677   -0.000065   -0.000027   -0.000046
   97.082520    0.905851    0.905925    0.905943   -0.000065   -0.000027   -0.000046
   97.197546    0.906116    0.906190    0.906209   -0.000064   -0.000026   -0.000045
   97.312573    0.906380    0.906453    0.906472   -0.000064   -0.000026   -0.000045
   97.427600    0.906643    0.906716    0.906734   -0.000063   -0.000026   -0.000045
   97.542626    0.906904    0.906976    0.906994   -0.000063   -0.000026   -0.000045
   97.657653    0.907163    0.907236    0.907253   -0.000063   -0.000026   -0.000044
   97.772680    0.907421    0.907493    0.907511   -0.000062   -0.000026   -0.000044
   97.887706    0.907678    0.907749    0.907767   -0.000062   -0.000025   -0.000044
   98.002733    0.907934    0.908004    0.908022   -0.000062   -0.000025   -0.000044
   98.117760    0.908188    0.908258    0.908276   -0.000061   -0.000025   -0.000043
   98.232786    0.908440    0.908510    0.908528   -0.000061   -0.000025   -0.000043
   98.347813    0.908692    0.908761    0.908778   -0.000061   -0.000025   -0.000043
   98.462840    0.908942    0.909011    0.909028   -0.000060   -0.000025   -0.000043
   98.577866    0.909191    0.909259    0.909276   -0.000060   -0.000025   -0.000042
   98.692893    0.909438    0.909506    0.909524   -0.000060   -0.000024   -0.000042
   98.807920    0.909685    0.909752    0.909769   -0.000059   -0.000024   -0.000042
   98.922947    0.909930    0.909997    0.910014   -0.000059   -0.000024   -0.000042
   99.037973    0.910173    0.910240    0.910257   -0.000059   -0.000024   -0.000041
   99.153000    0.910416    0.910483    0.910499   -0.000058   -0.000024   -0.000041
   99.268027    0.910658    0.910724    0.910741   -0.000058   -0.000024   -0.000041
   99.383053    0.910898    0.910964    0.910981   -0.000058   -0.000024   -0.000041
   99.498080    0.911137    0.911203    0.911219   -0.000057   -0.000023   -0.000041
   99.613107    0.911376    0.911440    0.911457   -0.000057   -0.000023   -0.000040
   99.728133    0.911612    0.911677    0.911693   -0.000057   -0.000023   -0.000040
   99.843160    0.911849    0.911913    0.911929   -0.000056   -0.000023   -0.000040
   99.958187    0.912083    0.912147    0.912164   -0.000056   -0.000023   -0.000040
  100.073213    0.912317    0.912381    0.912396   -0.000056   -0.000023   -0.000039
  100.188240    0.912550    0.912613    0.912629   -0.000055   -0.000023   -0.000039
  100.303267    0.912781    0.912844    0.912860   -0.000055   -0.000023   -0.000039
  100.418293    0.913011    0.913074    0.913090   -0.000055   -0.000022   -0.000039
  100.533320    0.913241    0.913303    0.913319   -0.000054   -0.000022   -0.000038
  100.648347    0.913469    0.913531    0.913547   -0.000054   -0.000022   -0.000038
  100.763373    0.913697    0.913759    0.913774   -0.000054   -0.000022   -0.000038
  100.878400    0.913923    0.913985    0.914000   -0.000053   -0.000022   -0.000038
  100.993427    0.914149    0.914210    0.914225   -0.000053   -0.000022   -0.000038
  101.108453    0.914373    0.914433    0.914449   -0.000053   -0.000022   -0.000037
  101.223480    0.914597    0.914657    0.914672   -0.000053   -0.000022   -0.000037
  101.338507    0.914819    0.914879    0.914894   -0.000052   -0.000021   -0.000037
  101.453534    0.915040    0.915100    0.915115   -0.000052   -0.000021   -0.000037
  101.568560    0.915260    0.915320    0.915335   -0.000052   -0.000021   -0.000037
  101.683587    0.915480    0.915539    0.915554   -0.000051   -0.000021   -0.000036
  101.798614    0.915699    0.915757    0.915772   -0.000051   -0.000021   -0.000036
  101.913640    0.915916    0.915974    0.915989   -0.000051   -0.000021   -0.000036
  102.028667    0.916133    0.916191    0.916205   -0.000051   -0.000021   -0.000036
  102.143694    0.916349    0.916406    0.916421   -0.000050   -0.000021   -0.000036
  102.258720    0.916563    0.916621    0.916635   -0.000050   -0.000021   -0.000035
  102.373747    0.916777    0.916834    0.916848   -0.000050   -0.000020   -0.000035
  102.488774    0.916990    0.917047    0.917061   -0.000049   -0.000020   -0.000035
  102.603800    0.917202    0.917259    0.917273   -0.000049   -0.000020   -0.000035
  102.718827    0.917413    0.917469    0.917483   -0.000049   -0.000020   -0.000035
  102.833854    0.917623    0.917679    0.917693   -0.000049   -0.000020   -0.000035
  102.948880    0.917833    0.917888    0.917902   -0.000048   -0.000020   -0.000034
  103.063907    0.918041    0.918096    0.918110   -0.000048   -0.000020   -0.000034
  103.178934    0.918249    0.918303    0.918317   -0.000048   -0.000020   -0.000034
  103.293960    0.918455    0.918510    0.918524   -0.000048   -0.000020   -0.000034
  103.408987    0.918661    0.918715    0.918729   -0.000047   -0.000019   -0.000034
  103.524014    0.918866    0.918920    0.918934   -0.000047   -0.000019   -0.000033
  103.639040    0.919070    0.919124    0.919138   -0.000047   -0.000019   -0.000033
  103.754067    0.919274    0.919327    0.919341   -0.000047   -0.000019   -0.000033
  103.869094    0.919476    0.919529    0.919542   -0.000046   -0.000019   -0.000033
  103.984121    0.919677    0.919730    0.919744   -0.000046   -0.000019   -0.000033
  104.099147    0.919878    0.919931    0.919944   -0.000046   -0.000019   -0.000033
  104.214174    0.920078    0.920131    0.920144   -0.000046   -0.000019   -0.000032
  104.329201    0.920278    0.920329    0.920343   -0.000045   -0.000019   -0.000032
  104.444227    0.920476    0.920527    0.920541   -0.000045   -0.000019   -0.000032
  104.559254    0.920673    0.920725    0.920738   -0.000045   -0.000018   -0.000032
  104.674281    0.920870    0.920921    0.920934   -0.000045   -0.000018   -0.000032
  104.789307    0.921066    0.921117    0.921129   -0.000045   -0.000018   -0.000032
  104.904334    0.921261    0.921312    0.921324   -0.000044   -0.000018   -0.000031
  105.019361    0.921455    0.921506    0.921519   -0.000044   -0.000018   -0.000031
  105.134387    0.921649    0.921699    0.921712   -0.000044   -0.000018   -0.000031
  105.249414    0.921842    0.921892    0.921904   -0.000044   -0.000018   -0.000031
  105.364441    0.922034    0.922083    0.922096   -0.000043   -0.000018   -0.000031
  105.479467    0.922225    0.922274    0.922287   -0.000043   -0.000018   -0.000031
  105.594494    0.922415    0.922464    0.922477   -0.000043   -0.000018   -0.000030
  105.709521    0.922605    0.922654    0.922666   -0.000043   -0.000018   -0.000030
  105.824547    0.922794    0.922843    0.922855   -0.000043   -0.000017   -0.000030
  105.939574    0.922982    0.923031    0.923043   -0.000042   -0.000017   -0.000030
  106.054601    0.923170    0.923218    0.923230   -0.000042   -0.000017   -0.000030
  106.169627    0.923356    0.923404    0.923416   -0.000042   -0.000017   -0.000030
  106.284654    0.923542    0.923590    0.923602   -0.000042   -0.000017   -0.000030
  106.399681    0.923727    0.923775    0.923787   -0.000042   -0.000017   -0.000029
  106.514708    0.923912    0.923959    0.923971   -0.000041   -0.000017   -0.000029
  106.629734    0.924096    0.924143    0.924155   -0.000041   -0.000017   -0.000029
  106.744761    0.924279    0.924326    0.924338   -0.000041   -0.000017   -0.000029
  106.859788    0.924461    0.924508    0.924520   -0.000041   -0.000017   -0.000029
  106.974814    0.924643    0.924689    0.924701   -0.000041   -0.000017   -0.000029
  107.089841    0.924824    0.924870    0.924882   -0.000040   -0.000017   -0.000029
  107.204868    0.925004    0.925050    0.925061   -0.000040   -0.000016   -0.000028
  107.319894    0.925183    0.925229    0.925241   -0.000040   -0.000016   -0.000028
  107.434921    0.925363    0.925408    0.925419   -0.000040   -0.000016   -0.000028
  107.549948    0.925541    0.925586    0.925597   -0.000040   -0.000016   -0.000028
  107.664974    0.925718    0.925763    0.925774   -0.000039   -0.000016   -0.000028
  107.780001    0.925895    0.925940    0.925951   -0.000039   -0.000016   -0.000028
  107.895028    0.926071    0.926116    0.926127   -0.000039   -0.000016   -0.000028
  108.010054    0.926247    0.926291    0.926302   -0.000039   -0.000016   -0.000028
  108.125081    0.926421    0.926465    0.926477   -0.000039   -0.000016   -0.000027
  108.240108    0.926595    0.926639    0.926650   -0.000038   -0.000016   -0.000027
  108.355134    0.926769    0.926812    0.926824   -0.000038   -0.000016   -0.000027
  108.470161    0.926941    0.926985    0.926996   -0.000038   -0.000016   -0.000027
  108.585188    0.927114    0.927157    0.927168   -0.000038   -0.000016   -0.000027
  108.700214    0.927285    0.927328    0.927340   -0.000038   -0.000016   -0.000027
  108.815241    0.927456    0.927499    0.927510   -0.000038   -0.000015   -0.000027
  108.930268    0.927626    0.927669    0.927680   -0.000037   -0.000015   -0.000026
  109.045295    0.927796    0.927838    0.927849   -0.000037   -0.000015   -0.000026
  109.160321    0.927965    0.928007    0.928018   -0.000037   -0.000015   -0.000026
  109.275348    0.928133    0.928175    0.928186   -0.000037   -0.000015   -0.000026
  109.390375    0.928301    0.928343    0.928353   -0.000037   -0.000015   -0.000026
  109.505401    0.928468    0.928510    0.928520   -0.000037   -0.000015   -0.000026
  109.620428    0.928634    0.928676    0.928686   -0.000036   -0.000015   -0.000026
  109.735455    0.928800    0.928841    0.928852   -0.000036   -0.000015   -0.000026
  109.850481    0.928965    0.929006    0.929016   -0.000036   -0.000015   -0.000026
  109.965508    0.929130    0.929171    0.929181   -0.000036   -0.000015   -0.000025
  110.080535    0.929294    0.929335    0.929345   -0.000036   -0.000015   -0.000025
  110.195561    0.929457    0.929498    0.929508   -0.000036   -0.000015   -0.000025
  110.310588    0.929620    0.929660    0.929671   -0.000035   -0.000015   -0.000025
  110.425615    0.929782    0.929822    0.929832   -0.000035   -0.000014   -0.000025
  110.540641    0.929944    0.929984    0.929994   -0.000035   -0.000014   -0.000025
  110.655668    0.930104    0.930144    0.930155   -0.000035   -0.000014   -0.000025
  110.770695    0.930265    0.930305    0.930315   -0.000035   -0.000014   -0.000025
  110.885721    0.930425    0.930464    0.930474   -0.000035   -0.000014   -0.000024
  111.000748    0.930584    0.930623    0.930633   -0.000034   -0.000014   -0.000024
  111.115775    0.930742    0.930782    0.930792   -0.000034   -0.000014   -0.000024
  111.230801    0.930900    0.930940    0.930949   -0.000034   -0.000014   -0.000024
  111.345828    0.931058    0.931097    0.931107   -0.000034   -0.000014   -0.000024
  111.460855    0.931215    0.931253    0.931263   -0.000034   -0.000014   -0.000024
  111.575882    0.931371    0.931410    0.931419   -0.000034   -0.000014   -0.000024
  111.690908    0.931527    0.931565    0.931575   -0.000034   -0.000014   -0.000024
  111.805935    0.931682    0.931720    0.931730   -0.000033   -0.000014   -0.000024
  111.920962    0.931837    0.931875    0.931885   -0.000033   -0.000014   -0.000024
  112.035988    0.931991    0.932029    0.932038   -0.000033   -0.000014   -0.000023
  112.151015    0.932144    0.932182    0.932192   -0.000033   -0.000014   -0.000023
  112.266042    0.932298    0.932335    0.932344   -0.000033   -0.000013   -0.000023
  112.381068    0.932450    0.932487    0.932497   -0.000033   -0.000013   -0.000023
  112.496095    0.932602    0.932639    0.932648   -0.000033   -0.000013   -0.000023
  112.611122    0.932753    0.932790    0.932799   -0.000032   -0.000013   -0.000023
  112.726148    0.932904    0.932941    0.932950   -0.000032   -0.000013   -0.000023
  112.841175    0.933054    0.933091    0.933100   -0.000032   -0.000013   -0.000023
  112.956202    0.933204    0.933240    0.933250   -0.000032   -0.000013   -0.000023
  113.071228    0.933353    0.933390    0.933399   -0.000032   -0.000013   -0.000023
  113.186255    0.933502    0.933538    0.933547   -0.000032   -0.000013   -0.000022
  113.301282    0.933650    0.933687    0.933696   -0.000032   -0.000013   -0.000022
  113.416308    0.933798    0.933834    0.933843   -0.000031   -0.000013   -0.000022
  113.531335    0.933945    0.933981    0.933990   -0.000031   -0.000013   -0.000022
  113.646362    0.934092    0.934127    0.934136   -0.000031   -0.000013   -0.000022
  113.761388    0.934237    0.934273    0.934282   -0.000031   -0.000013   -0.000022
  113.876415    0.934383    0.934419    0.934427   -0.000031   -0.000013   -0.000022
  113.991442    0.934528    0.934564    0.934572   -0.000031   -0.000013   -0.000022
  114.106469    0.934673    0.934708    0.934717   -0.000031   -0.000013   -0.000022
  114.221495    0.934817    0.934852    0.934861   -0.000030   -0.000013   -0.000022
  114.336522    0.934961    0.934995    0.935004   -0.000030   -0.000012   -0.000021
  114.451549    0.935104    0.935138    0.935147   -0.000030   -0.000012   -0.000021
  114.566575    0.935246    0.935280    0.935289   -0.000030   -0.000012   -0.000021
  114.681602    0.935388    0.935423    0.935431   -0.000030   -0.000012   -0.000021
  114.796629    0.935530    0.935564    0.935573   -0.000030   -0.000012   -0.000021
  114.911655    0.935671    0.935705    0.935714   -0.000030   -0.000012   -0.000021

 The outermost node in the dielectric function lies at epsilon=  31.3


--------------------------------------------------------------------------------------------------------


    OPTICS:  cpu time   46.48: real time   46.78
    4ORBIT:  cpu time    0.00: real time    0.00



 total charge

# of ion     s       p       d       f       tot
------------------------------------------------
  1        2.018   5.720   0.535   0.175   8.449
  2        2.018   5.720   0.535   0.175   8.449
  3        0.308   0.414   0.000   0.000   0.723
  4        0.308   0.415   0.000   0.000   0.723
  5        1.558   3.563   0.000   0.000   5.121
  6        1.558   3.589   0.000   0.000   5.147
  7        1.558   3.619   0.000   0.000   5.177
  8        1.558   3.563   0.000   0.000   5.121
  9        1.558   3.619   0.000   0.000   5.177
 10        1.558   3.589   0.000   0.000   5.147
------------------------------------------------
tot       14.001  33.813   1.070   0.350  49.233



 total amount of memory used by VASP on root node   756796. kBytes
========================================================================

   base      :      30000. kBytes
   nonl-proj :     127761. kBytes
   fftplans  :      17864. kBytes
   grid      :      35968. kBytes
   one-center:        491. kBytes
   HF        :        614. kBytes
   nonlr-proj:      11229. kBytes
   wavefun   :     532869. kBytes



 General timing and accounting informations for this job:
 ========================================================

                  Total CPU time used (sec):   403188.781
                            User time (sec):   403172.318
                          System time (sec):       16.474
                         Elapsed time (sec):   404535.813

                   Maximum memory used (kb):     2029616.
                   Average memory used (kb):           0.

                          Minor page faults:      4064793
                          Major page faults:            6
                 Voluntary context switches:        11838
