rLAO
           1
     5.342032    0.001013    0.000718
     2.653851    4.636203    0.000718
     2.653851    1.539102    4.373276
   La   Al   O
   2   2   6
Direct configuration=     1
   0.75000000  0.75000000  0.75000000
   0.25000000  0.25000000  0.25000000
   0.50000000  0.50000000  0.50000000
   0.00000000  0.00000000  0.00000000
   0.28500187  0.75000000  0.21499812
   0.75000000  0.21499812  0.28500187
   0.21499812  0.28500187  0.75000000
   0.71499810  0.25000000  0.78500190
   0.78500190  0.71499810  0.25000000
   0.25000000  0.78500190  0.71499810
