 vasp.5.4.4.18Apr17-6-g9f103f2a35 (build Sep 10 2019 12:14:21) complex          
  
 executed on             LinuxIFC date 2020.09.09  16:09:40
 running on    1 total cores
 distrk:  each k-point on    1 cores,    1 groups
 distr:  one band on NCORES_PER_BAND=   1 cores,    1 groups


--------------------------------------------------------------------------------------------------------


 INCAR:
 POTCAR:    PAW_PBE Li_sv 10Sep2004               
 POTCAR:    PAW_PBE F 08Apr2002                   
 POTCAR:    PAW_PBE Li_sv 10Sep2004               
   SHA256 =  7e51fe1804c037e1dccc81a9c376d94d693a7559600c847f4b41960edb8ab895 Li
   COPYR  = (c) Copyright 10Sep2004 Georg Kresse                                
   COPYR  = This file is part of the software VASP. Any use, copying, and all ot
   COPYR  = If you do not have a valid VASP license, you may not use, copy or di
   VRHFIN =Li: 1s2s2p                                                           
   LEXCH  = PE                                                                  
   EATOM  =   202.7858 eV,   14.9043 Ry                                         
                                                                                
   TITEL  = PAW_PBE Li_sv 10Sep2004                                             
   LULTRA =        F    use ultrasoft PP ?                                      
   IUNSCR =        0    unscreen: 0-lin 1-nonlin 2-no                           
   RPACOR =    0.000    partial core radius                                     
   POMASS =    7.010; ZVAL   =    3.000    mass and valenz                      
   RCORE  =    1.700    outmost cutoff radius                                   
   RWIGS  =    2.050; RWIGS  =    1.085    wigner-seitz radius (au A)           
   ENMAX  =  499.034; ENMIN  =  374.276 eV                                      
   ICORE  =        2    local potential                                         
   LCOR   =        T    correct aug charges                                     
   LPAW   =        T    paw PP                                                  
   EAUG   =  628.945                                                            
   RMAX   =    1.732    core radius for proj-oper                               
   RAUG   =    1.300    factor for augmentation sphere                          
   RDEP   =    1.728    radius for radial grids                                 
   RDEPT  =    1.329    core radius for aug-charge                              
                                                                                
   Atomic configuration                                                         
    4 entries                                                                   
     n  l   j            E        occ.                                          
     1  0  0.50       -51.8549   2.0000                                         
     2  0  0.50        -2.8742   1.0000                                         
     2  1  0.50        -1.3606   0.0000                                         
     3  2  1.50        -1.3606   0.0000                                         
   Description                                                                  
     l       E           TYP  RCUT    TYP  RCUT                                 
     0    -51.8548813     23  1.400                                             
     0     -2.8742052     23  1.700                                             
     1     -1.3605826     23  1.400                                             
     2     -1.3605826     23  1.400                                             
  local pseudopotential read in
  atomic valenz-charges read in
  non local Contribution for L=           0  read in
    real space projection operators read in
  non local Contribution for L=           0  read in
    real space projection operators read in
  non local Contribution for L=           1  read in
    real space projection operators read in
    PAW grid and wavefunctions read in
 
   number of l-projection  operators is LMAX  =           3
   number of lm-projection operators is LMMAX =           5
 
 POTCAR:    PAW_PBE F 08Apr2002                   
   SHA256 =  53c630871ac675939349fc2b976745ee17808dedc90b5bdde026bc81f0faf456 F/
   COPYR  = (c) Copyright 08Apr2002 Georg Kresse                                
   COPYR  = This file is part of the software VASP. Any use, copying, and all ot
   COPYR  = If you do not have a valid VASP license, you may not use, copy or di
   VRHFIN =F: s2p5                                                              
   LEXCH  = PE                                                                  
   EATOM  =   659.6475 eV,   48.4827 Ry                                         
                                                                                
   TITEL  = PAW_PBE F 08Apr2002                                                 
   LULTRA =        F    use ultrasoft PP ?                                      
   IUNSCR =        1    unscreen: 0-lin 1-nonlin 2-no                           
   RPACOR =    1.200    partial core radius                                     
   POMASS =   18.998; ZVAL   =    7.000    mass and valenz                      
   RCORE  =    1.520    outmost cutoff radius                                   
   RWIGS  =    1.500; RWIGS  =    0.794    wigner-seitz radius (au A)           
   ENMAX  =  400.000; ENMIN  =  300.000 eV                                      
   ICORE  =        2    local potential                                         
   LCOR   =        T    correct aug charges                                     
   LPAW   =        T    paw PP                                                  
   EAUG   =  613.614                                                            
   RMAX   =    1.555    core radius for proj-oper                               
   RAUG   =    1.300    factor for augmentation sphere                          
   RDEP   =    1.539    radius for radial grids                                 
   RDEPT  =    1.299    core radius for aug-charge                              
                                                                                
   Atomic configuration                                                         
    4 entries                                                                   
     n  l   j            E        occ.                                          
     1  0  0.50      -663.3661   2.0000                                         
     2  0  0.50       -29.8995   2.0000                                         
     2  1  0.50       -11.1114   5.0000                                         
     3  2  1.50       -10.8847   0.0000                                         
   Description                                                                  
     l       E           TYP  RCUT    TYP  RCUT                                 
     0    -29.8995018     23  1.200                                             
     0     -9.5240782     23  1.200                                             
     1    -11.1113914     23  1.520                                             
     1      1.3605826     23  1.520                                             
     2    -10.8846608      7  1.500                                             
  local pseudopotential read in
  partial core-charges read in
  partial kinetic energy density read in
  atomic valenz-charges read in
  non local Contribution for L=           0  read in
    real space projection operators read in
  non local Contribution for L=           0  read in
    real space projection operators read in
  non local Contribution for L=           1  read in
    real space projection operators read in
  non local Contribution for L=           1  read in
    real space projection operators read in
    PAW grid and wavefunctions read in
 
   number of l-projection  operators is LMAX  =           4
   number of lm-projection operators is LMMAX =           8
 

 ----------------------------------------------------------------------------- 
|                                                                             |
|  ADVICE TO THIS USER RUNNING 'VASP/VAMP'   (HEAR YOUR MASTER'S VOICE ...):  |
|                                                                             |
|      You have a (more or less) 'small supercell' and for smaller cells      |
|      it is recommended  to use the reciprocal-space projection scheme!      |
|      The real space optimization is not  efficient for small cells and it   |
|      is also less accurate ...                                              |
|      Therefore set LREAL=.FALSE. in the  INCAR file                         |
|                                                                             |
 ----------------------------------------------------------------------------- 

 Optimization of the real space projectors (new method)

 maximal supplied QI-value         = 22.11
 optimisation between [QCUT,QGAM] = [ 13.27, 26.53] = [ 49.28,197.12] Ry 
 Optimized for a Real-space Cutoff    1.00 Angstroem

   l    n(q)    QCUT    max X(q) W(low)/X(q) W(high)/X(q)  e(spline) 
   0      8    13.266    10.506    0.66E-04    0.84E-04    0.12E-07
   0      8    13.266     8.367    0.15E-03    0.18E-03    0.26E-07
   1      7    13.266     8.983    0.18E-03    0.22E-04    0.15E-06
 Optimization of the real space projectors (new method)

 maximal supplied QI-value         = 24.76
 optimisation between [QCUT,QGAM] = [ 13.12, 26.49] = [ 48.21,196.48] Ry 
 Optimized for a Real-space Cutoff    1.09 Angstroem

   l    n(q)    QCUT    max X(q) W(low)/X(q) W(high)/X(q)  e(spline) 
   0      9    13.120    14.049    0.16E-03    0.78E-04    0.15E-06
   0      9    13.120     8.945    0.21E-03    0.11E-03    0.19E-06
   1      8    13.120     7.086    0.24E-03    0.29E-03    0.19E-06
   1      8    13.120     6.747    0.21E-03    0.26E-03    0.17E-06

 ----------------------------------------------------------------------------- 
|                                                                             |
|  ADVICE TO THIS USER RUNNING 'VASP/VAMP'   (HEAR YOUR MASTER'S VOICE ...):  |
|                                                                             |
|      You enforced a specific xc-type in the INCAR file,                     |
|      a different type was found on the POTCAR file                          |
|          I HOPE YOU KNOW, WHAT YOU ARE  DOING                               |
|                                                                             |
 ----------------------------------------------------------------------------- 

  PAW_PBE Li_sv 10Sep2004               :
 energy of atom  1       EATOM= -202.7858
 kinetic energy error for atom=    0.0055 (will be added to EATOM!!)
  PAW_PBE F 08Apr2002                   :
 energy of atom  2       EATOM= -659.6475
 kinetic energy error for atom=    0.0162 (will be added to EATOM!!)
 
 
 POSCAR: Li1 F1                                  
  positions in direct lattice
  No initial velocities read in
 exchange correlation table for  LEXCH =       14
   RHO(1)=    0.500       N(1)  =     2000
   RHO(2)=  100.500       N(2)  =     4000
 


--------------------------------------------------------------------------------------------------------


 ion  position               nearest neighbor table
   1  0.000  0.000  0.000-   2 2.04   2 2.04   2 2.04   2 2.04   2 2.04   2 2.04
   2  0.500  0.500  0.500-   1 2.04   1 2.04   1 2.04   1 2.04   1 2.04   1 2.04
 
  LATTYP: Found a face centered cubic cell.
 ALAT       =     4.0834280000
  
  Lattice vectors:
  
 A1 = (   0.0000000000,   2.0417140000,   2.0417140000)
 A2 = (   2.0417140000,   0.0000000000,   2.0417140000)
 A3 = (   2.0417140000,   2.0417140000,   0.0000000000)


Analysis of symmetry for initial positions (statically):
=====================================================================
 Subroutine PRICEL returns:
 Original cell was already a primitive cell.
 

 Routine SETGRP: Setting up the symmetry group for a 
 face centered cubic supercell.


 Subroutine GETGRP returns: Found 48 space group operations
 (whereof 48 operations were pure point group operations)
 out of a pool of 48 trial point group operations.


The static configuration has the point symmetry O_h .


Analysis of symmetry for dynamics (positions and initial velocities):
=====================================================================
 Subroutine PRICEL returns:
 Original cell was already a primitive cell.
 

 Routine SETGRP: Setting up the symmetry group for a 
 face centered cubic supercell.


 Subroutine GETGRP returns: Found 48 space group operations
 (whereof 48 operations were pure point group operations)
 out of a pool of 48 trial point group operations.


The dynamic configuration has the point symmetry O_h .


Analysis of structural, dynamic, and magnetic symmetry:
=====================================================================
 Subroutine PRICEL returns:
 Original cell was already a primitive cell.
 

 Routine SETGRP: Setting up the symmetry group for a 
 face centered cubic supercell.


 Subroutine GETGRP returns: Found 48 space group operations
 (whereof 48 operations were pure point group operations)
 out of a pool of 48 trial point group operations.


The magnetic configuration has the point symmetry O_h .


 Subroutine INISYM returns: Found 48 space group operations
 (whereof 48 operations are pure point group operations),
 and found     1 'primitive' translations

 
 

Automatic generation of k-mesh.
 generate k-points for:   13   13   13
Space group operators:
 irot       det(A)        alpha          n_x          n_y          n_z        tau_x        tau_y        tau_z
    1     1.000000     0.000000     1.000000     0.000000     0.000000     0.000000     0.000000     0.000000
    2    -1.000000     0.000000     1.000000     0.000000     0.000000     0.000000     0.000000     0.000000
    3     1.000000   120.000000    -0.577350    -0.577350    -0.577350     0.000000     0.000000     0.000000
    4    -1.000000   120.000000    -0.577350    -0.577350    -0.577350     0.000000     0.000000     0.000000
    5     1.000000   120.000000     0.577350     0.577350     0.577350     0.000000     0.000000     0.000000
    6    -1.000000   120.000000     0.577350     0.577350     0.577350     0.000000     0.000000     0.000000
    7     1.000000    90.000000     0.000000     0.000000    -1.000000     0.000000     0.000000     0.000000
    8    -1.000000    90.000000     0.000000     0.000000    -1.000000     0.000000     0.000000     0.000000
    9     1.000000   180.000000     0.000000     0.707107     0.707107     0.000000     0.000000     0.000000
   10    -1.000000   180.000000     0.000000     0.707107     0.707107     0.000000     0.000000     0.000000
   11     1.000000    90.000000     0.000000     1.000000     0.000000     0.000000     0.000000     0.000000
   12    -1.000000    90.000000     0.000000     1.000000     0.000000     0.000000     0.000000     0.000000
   13     1.000000   180.000000     0.000000     0.000000     1.000000     0.000000     0.000000     0.000000
   14    -1.000000   180.000000     0.000000     0.000000     1.000000     0.000000     0.000000     0.000000
   15     1.000000   120.000000    -0.577350     0.577350     0.577350     0.000000     0.000000     0.000000
   16    -1.000000   120.000000    -0.577350     0.577350     0.577350     0.000000     0.000000     0.000000
   17     1.000000   120.000000    -0.577350     0.577350    -0.577350     0.000000     0.000000     0.000000
   18    -1.000000   120.000000    -0.577350     0.577350    -0.577350     0.000000     0.000000     0.000000
   19     1.000000    90.000000     0.000000     0.000000     1.000000     0.000000     0.000000     0.000000
   20    -1.000000    90.000000     0.000000     0.000000     1.000000     0.000000     0.000000     0.000000
   21     1.000000    90.000000    -1.000000     0.000000     0.000000     0.000000     0.000000     0.000000
   22    -1.000000    90.000000    -1.000000     0.000000     0.000000     0.000000     0.000000     0.000000
   23     1.000000   180.000000     0.707107     0.000000     0.707107     0.000000     0.000000     0.000000
   24    -1.000000   180.000000     0.707107     0.000000     0.707107     0.000000     0.000000     0.000000
   25     1.000000   120.000000     0.577350    -0.577350     0.577350     0.000000     0.000000     0.000000
   26    -1.000000   120.000000     0.577350    -0.577350     0.577350     0.000000     0.000000     0.000000
   27     1.000000   120.000000    -0.577350    -0.577350     0.577350     0.000000     0.000000     0.000000
   28    -1.000000   120.000000    -0.577350    -0.577350     0.577350     0.000000     0.000000     0.000000
   29     1.000000   180.000000     1.000000     0.000000     0.000000     0.000000     0.000000     0.000000
   30    -1.000000   180.000000     1.000000     0.000000     0.000000     0.000000     0.000000     0.000000
   31     1.000000    90.000000     0.000000    -1.000000     0.000000     0.000000     0.000000     0.000000
   32    -1.000000    90.000000     0.000000    -1.000000     0.000000     0.000000     0.000000     0.000000
   33     1.000000   180.000000     0.707107     0.707107     0.000000     0.000000     0.000000     0.000000
   34    -1.000000   180.000000     0.707107     0.707107     0.000000     0.000000     0.000000     0.000000
   35     1.000000    90.000000     1.000000     0.000000     0.000000     0.000000     0.000000     0.000000
   36    -1.000000    90.000000     1.000000     0.000000     0.000000     0.000000     0.000000     0.000000
   37     1.000000   120.000000     0.577350    -0.577350    -0.577350     0.000000     0.000000     0.000000
   38    -1.000000   120.000000     0.577350    -0.577350    -0.577350     0.000000     0.000000     0.000000
   39     1.000000   180.000000     0.000000     1.000000     0.000000     0.000000     0.000000     0.000000
   40    -1.000000   180.000000     0.000000     1.000000     0.000000     0.000000     0.000000     0.000000
   41     1.000000   120.000000     0.577350     0.577350    -0.577350     0.000000     0.000000     0.000000
   42    -1.000000   120.000000     0.577350     0.577350    -0.577350     0.000000     0.000000     0.000000
   43     1.000000   180.000000     0.000000    -0.707107     0.707107     0.000000     0.000000     0.000000
   44    -1.000000   180.000000     0.000000    -0.707107     0.707107     0.000000     0.000000     0.000000
   45     1.000000   180.000000     0.707107    -0.707107     0.000000     0.000000     0.000000     0.000000
   46    -1.000000   180.000000     0.707107    -0.707107     0.000000     0.000000     0.000000     0.000000
   47     1.000000   180.000000     0.707107     0.000000    -0.707107     0.000000     0.000000     0.000000
   48    -1.000000   180.000000     0.707107     0.000000    -0.707107     0.000000     0.000000     0.000000
 
 Subroutine IBZKPT returns following result:
 ===========================================
 
 Found     84 irreducible k-points:
 
 Following reciprocal coordinates:
            Coordinates               Weight
  0.000000  0.000000  0.000000      1.000000
  0.076923  0.000000  0.000000      8.000000
  0.153846  0.000000  0.000000      8.000000
  0.230769  0.000000  0.000000      8.000000
  0.307692  0.000000  0.000000      8.000000
  0.384615  0.000000  0.000000      8.000000
  0.461538  0.000000  0.000000      8.000000
  0.076923  0.076923  0.000000      6.000000
  0.153846  0.076923  0.000000     24.000000
  0.230769  0.076923  0.000000     24.000000
  0.307692  0.076923  0.000000     24.000000
  0.384615  0.076923  0.000000     24.000000
  0.461538  0.076923  0.000000     24.000000
 -0.461538  0.076923  0.000000     24.000000
 -0.384615  0.076923  0.000000     24.000000
 -0.307692  0.076923  0.000000     24.000000
 -0.230769  0.076923  0.000000     24.000000
 -0.153846  0.076923  0.000000     24.000000
 -0.076923  0.076923  0.000000     12.000000
  0.153846  0.153846  0.000000      6.000000
  0.230769  0.153846  0.000000     24.000000
  0.307692  0.153846  0.000000     24.000000
  0.384615  0.153846  0.000000     24.000000
  0.461538  0.153846  0.000000     24.000000
 -0.461538  0.153846  0.000000     24.000000
 -0.384615  0.153846  0.000000     24.000000
 -0.307692  0.153846  0.000000     24.000000
 -0.230769  0.153846  0.000000     24.000000
 -0.153846  0.153846  0.000000     12.000000
  0.230769  0.230769  0.000000      6.000000
  0.307692  0.230769  0.000000     24.000000
  0.384615  0.230769  0.000000     24.000000
  0.461538  0.230769  0.000000     24.000000
 -0.461538  0.230769  0.000000     24.000000
 -0.384615  0.230769  0.000000     24.000000
 -0.307692  0.230769  0.000000     24.000000
 -0.230769  0.230769  0.000000     12.000000
  0.307692  0.307692  0.000000      6.000000
  0.384615  0.307692  0.000000     24.000000
  0.461538  0.307692  0.000000     24.000000
 -0.461538  0.307692  0.000000     24.000000
 -0.384615  0.307692  0.000000     24.000000
 -0.307692  0.307692  0.000000     12.000000
  0.384615  0.384615  0.000000      6.000000
  0.461538  0.384615  0.000000     24.000000
 -0.461538  0.384615  0.000000     24.000000
 -0.384615  0.384615  0.000000     12.000000
  0.461538  0.461538  0.000000      6.000000
 -0.461538  0.461538  0.000000     12.000000
  0.230769  0.153846  0.076923     24.000000
  0.307692  0.153846  0.076923     48.000000
  0.384615  0.153846  0.076923     48.000000
  0.461538  0.153846  0.076923     48.000000
 -0.461538  0.153846  0.076923     48.000000
  0.307692  0.230769  0.076923     24.000000
  0.384615  0.230769  0.076923     48.000000
  0.461538  0.230769  0.076923     48.000000
 -0.461538  0.230769  0.076923     48.000000
 -0.384615  0.230769  0.076923     48.000000
 -0.307692  0.230769  0.076923     48.000000
 -0.230769  0.230769  0.076923     48.000000
 -0.153846  0.230769  0.076923     24.000000
  0.384615  0.307692  0.076923     24.000000
  0.461538  0.307692  0.076923     48.000000
 -0.461538  0.307692  0.076923     48.000000
 -0.384615  0.307692  0.076923     48.000000
 -0.307692  0.307692  0.076923     48.000000
 -0.230769  0.307692  0.076923     24.000000
  0.461538  0.384615  0.076923     24.000000
 -0.461538  0.384615  0.076923     48.000000
 -0.384615  0.384615  0.076923     48.000000
 -0.307692  0.384615  0.076923     24.000000
 -0.461538  0.461538  0.076923     24.000000
 -0.384615  0.461538  0.076923     24.000000
  0.461538  0.307692  0.153846     24.000000
 -0.461538  0.307692  0.153846     48.000000
 -0.384615  0.307692  0.153846     48.000000
 -0.461538  0.384615  0.153846     24.000000
 -0.384615  0.384615  0.153846     48.000000
 -0.307692  0.384615  0.153846     48.000000
 -0.230769  0.384615  0.153846     24.000000
 -0.384615  0.461538  0.153846     24.000000
 -0.307692  0.461538  0.153846     24.000000
 -0.307692  0.461538  0.230769     24.000000
 
 Following cartesian coordinates:
            Coordinates               Weight
  0.000000  0.000000  0.000000      1.000000
 -0.018838  0.018838  0.018838      8.000000
 -0.037676  0.037676  0.037676      8.000000
 -0.056514  0.056514  0.056514      8.000000
 -0.075351  0.075351  0.075351      8.000000
 -0.094189  0.094189  0.094189      8.000000
 -0.113027  0.113027  0.113027      8.000000
  0.000000  0.000000  0.037676      6.000000
 -0.018838  0.018838  0.056514     24.000000
 -0.037676  0.037676  0.075351     24.000000
 -0.056514  0.056514  0.094189     24.000000
 -0.075351  0.075351  0.113027     24.000000
 -0.094189  0.094189  0.131865     24.000000
  0.131865 -0.131865 -0.094189     24.000000
  0.113027 -0.113027 -0.075351     24.000000
  0.094189 -0.094189 -0.056514     24.000000
  0.075351 -0.075351 -0.037676     24.000000
  0.056514 -0.056514 -0.018838     24.000000
  0.037676 -0.037676  0.000000     12.000000
  0.000000  0.000000  0.075351      6.000000
 -0.018838  0.018838  0.094189     24.000000
 -0.037676  0.037676  0.113027     24.000000
 -0.056514  0.056514  0.131865     24.000000
 -0.075351  0.075351  0.150703     24.000000
  0.150703 -0.150703 -0.075351     24.000000
  0.131865 -0.131865 -0.056514     24.000000
  0.113027 -0.113027 -0.037676     24.000000
  0.094189 -0.094189 -0.018838     24.000000
  0.075351 -0.075351  0.000000     12.000000
  0.000000  0.000000  0.113027      6.000000
 -0.018838  0.018838  0.131865     24.000000
 -0.037676  0.037676  0.150703     24.000000
 -0.056514  0.056514  0.169541     24.000000
  0.169541 -0.169541 -0.056514     24.000000
  0.150703 -0.150703 -0.037676     24.000000
  0.131865 -0.131865 -0.018838     24.000000
  0.113027 -0.113027  0.000000     12.000000
  0.000000  0.000000  0.150703      6.000000
 -0.018838  0.018838  0.169541     24.000000
 -0.037676  0.037676  0.188379     24.000000
  0.188379 -0.188379 -0.037676     24.000000
  0.169541 -0.169541 -0.018838     24.000000
  0.150703 -0.150703  0.000000     12.000000
  0.000000  0.000000  0.188379      6.000000
 -0.018838  0.018838  0.207217     24.000000
  0.207217 -0.207217 -0.018838     24.000000
  0.188379 -0.188379  0.000000     12.000000
  0.000000  0.000000  0.226054      6.000000
  0.226054 -0.226054  0.000000     12.000000
  0.000000  0.037676  0.075351     24.000000
 -0.018838  0.056514  0.094189     48.000000
 -0.037676  0.075351  0.113027     48.000000
 -0.056514  0.094189  0.131865     48.000000
  0.169541 -0.131865 -0.094189     48.000000
 -0.000000  0.037676  0.113027     24.000000
 -0.018838  0.056514  0.131865     48.000000
 -0.037676  0.075351  0.150703     48.000000
  0.188379 -0.150703 -0.075351     48.000000
  0.169541 -0.131865 -0.056514     48.000000
  0.150703 -0.113027 -0.037676     48.000000
  0.131865 -0.094189 -0.018838     48.000000
  0.113027 -0.075351  0.000000     24.000000
 -0.000000  0.037676  0.150703     24.000000
 -0.018838  0.056514  0.169541     48.000000
  0.207217 -0.169541 -0.056514     48.000000
  0.188379 -0.150703 -0.037676     48.000000
  0.169541 -0.131865 -0.018838     48.000000
  0.150703 -0.113027  0.000000     24.000000
 -0.000000  0.037676  0.188379     24.000000
  0.226054 -0.188379 -0.037676     48.000000
  0.207217 -0.169541 -0.018838     48.000000
  0.188379 -0.150703  0.000000     24.000000
  0.244892 -0.207217 -0.018838     24.000000
  0.226054 -0.188379  0.000000     24.000000
  0.000000  0.075351  0.150703     24.000000
  0.226054 -0.150703 -0.075351     48.000000
  0.207217 -0.131865 -0.056514     48.000000
  0.244892 -0.169541 -0.056514     24.000000
  0.226054 -0.150703 -0.037676     48.000000
  0.207217 -0.131865 -0.018838     48.000000
  0.188379 -0.113027  0.000000     24.000000
  0.244892 -0.169541 -0.018838     24.000000
  0.226054 -0.150703  0.000000     24.000000
  0.244892 -0.131865 -0.018838     24.000000
 


--------------------------------------------------------------------------------------------------------




 Dimension of arrays:
   k-points           NKPTS =     84   k-points in BZ     NKDIM =     84   number of bands    NBANDS=      9
   number of dos      NEDOS =    301   number of ions     NIONS =      2
   non local maximal  LDIM  =      4   non local SUM 2l+1 LMDIM =      8
   total plane-waves  NPLWV =  21952
   max r-space proj   IRMAX =   7056   max aug-charges    IRDMAX=  16594
   dimension x,y,z NGX =    28 NGY =   28 NGZ =   28
   dimension x,y,z NGXF=    56 NGYF=   56 NGZF=   56
   support grid    NGXF=    56 NGYF=   56 NGZF=   56
   ions per type =               1   1
   NGX,Y,Z   is equivalent  to a cutoff of  16.12, 16.12, 16.12 a.u.
   NGXF,Y,Z  is equivalent  to a cutoff of  32.24, 32.24, 32.24 a.u.

 SYSTEM =  unknown system                          
 POSCAR =  Li1 F1                                  

 Startparameter for this run:
   NWRITE =      2    write-flag & timer
   PREC   = accura    normal or accurate (medium, high low for compatibility)
   ISTART =      0    job   : 0-new  1-cont  2-samecut
   ICHARG =      2    charge: 1-file 2-atom 10-const
   ISPIN  =      2    spin polarized calculation?
   LNONCOLLINEAR =      F non collinear calculations
   LSORBIT =      F    spin-orbit coupling
   INIWAV =      1    electr: 0-lowe 1-rand  2-diag
   LASPH  =      T    aspherical Exc in radial PAW
   METAGGA=      F    non-selfconsistent MetaGGA calc.

 Electronic Relaxation 1
   ENCUT  =  680.0 eV  49.98 Ry    7.07 a.u.   6.14  6.14  6.14*2*pi/ulx,y,z
   ENINI  =  680.0     initial cutoff
   ENAUG  = 1360.0 eV  augmentation charge cutoff
   NELM   =    200;   NELMIN=  2; NELMDL= -5     # of ELM steps 
   EDIFF  = 0.1E-04   stopping-criterion for ELM
   LREAL  =      T    real-space projection
   NLSPLINE    = F    spline interpolate recip. space projectors
   LCOMPAT=      F    compatible to vasp.4.4
   GGA_COMPAT  = T    GGA compatible to vasp.4.4-vasp.4.6
   LMAXPAW     = -100 max onsite density
   LMAXMIX     =    2 max onsite mixed and CHGCAR
   VOSKOWN=      0    Vosko Wilk Nusair interpolation
   ROPT   =   -0.00025  -0.00025
 Ionic relaxation
   EDIFFG = -.5E-01   stopping-criterion for IOM
   NSW    =      0    number of steps for IOM
   NBLOCK =      1;   KBLOCK =      1    inner block; outer block 
   IBRION =     -1    ionic relax: 0-MD 1-quasi-New 2-CG
   NFREE  =      1    steps in history (QN), initial steepest desc. (CG)
   ISIF   =      3    stress and relaxation
   IWAVPR =     10    prediction:  0-non 1-charg 2-wave 3-comb
   ISYM   =      2    0-nonsym 1-usesym 2-fastsym
   LCORR  =      T    Harris-Foulkes like correction to forces

   POTIM  = 0.5000    time-step for ionic-motion
   TEIN   =    0.0    initial temperature
   TEBEG  =    0.0;   TEEND  =   0.0 temperature during run
   SMASS  =  -3.00    Nose mass-parameter (am)
   estimated Nose-frequenzy (Omega)   =  0.10E-29 period in steps =****** mass=  -0.191E-27a.u.
   SCALEE = 1.0000    scale energy and forces
   NPACO  =    256;   APACO  = 16.0  distance and # of slots for P.C.
   PSTRESS=    0.0 pullay stress

  Mass of Ions in am
   POMASS =   7.01 19.00
  Ionic Valenz
   ZVAL   =   3.00  7.00
  Atomic Wigner-Seitz radii
   RWIGS  =  -1.00 -1.00
  virtual crystal weights 
   VCA    =   1.00  1.00
   NELECT =      10.0000    total number of electrons
   NUPDOWN=      -1.0000    fix difference up-down

 DOS related values:
   EMIN   =  10.00;   EMAX   =-10.00  energy-range for DOS
   EFERMI =   0.00
   ISMEAR =     2;   SIGMA  =   0.20  broadening in eV -4-tet -1-fermi 0-gaus

 Electronic relaxation 2 (details)
   IALGO  =     58    algorithm
   LDIAG  =      T    sub-space diagonalisation (order eigenvalues)
   LSUBROT=      F    optimize rotation matrix (better conditioning)
   TURBO    =      0    0=normal 1=particle mesh
   IRESTART =      0    0=no restart 2=restart with 2 vectors
   NREBOOT  =      0    no. of reboots
   NMIN     =      0    reboot dimension
   EREF     =   0.00    reference energy to select bands
   IMIX   =      4    mixing-type and parameters
     AMIX     =   0.40;   BMIX     =  1.00
     AMIX_MAG =   1.60;   BMIX_MAG =  1.00
     AMIN     =   0.10
     WC   =   100.;   INIMIX=   1;  MIXPRE=   1;  MAXMIX= -45

 Intra band minimization:
   WEIMIN = 0.0000     energy-eigenvalue tresh-hold
   EBREAK =  0.28E-06  absolut break condition
   DEPER  =   0.30     relativ break condition  

   TIME   =   0.40     timestep for ELM

  volume/ion in A,a.u.               =       8.51        57.44
  Fermi-wavevector in a.u.,A,eV,Ry     =   1.371103  2.591008 25.577893  1.879922
  Thomas-Fermi vector in A             =   2.496829
 
 Write flags
   LWAVE        =      F    write WAVECAR
   LDOWNSAMPLE  =      F    k-point downsampling of WAVECAR
   LCHARG       =      T    write CHGCAR
   LVTOT        =      T    write LOCPOT, total local potential
   LVHAR        =      F    write LOCPOT, Hartree potential only
   LELF         =      T    write electronic localiz. function (ELF)
   LORBIT       =     11    0 simple, 1 ext, 2 COOP (PROOUT), +10 PAW based schemes


 Dipole corrections
   LMONO  =      F    monopole corrections only (constant potential shift)
   LDIPOL =      F    correct potential (dipole corrections)
   IDIPOL =      0    1-x, 2-y, 3-z, 4-all directions 
   EPSILON=  1.0000000 bulk dielectric constant

 Exchange correlation treatment:
   GGA     =    PS    GGA type
   LEXCH   =    14    internal setting for exchange type
   VOSKOWN=      0    Vosko Wilk Nusair interpolation
   LHFCALC =     F    Hartree Fock is set to
   LHFONE  =     F    Hartree Fock one center treatment
   AEXX    =    0.0000 exact exchange contribution

 Linear response parameters
   LEPSILON=     F    determine dielectric tensor
   LRPA    =     F    only Hartree local field effects (RPA)
   LNABLA  =     F    use nabla operator in PAW spheres
   LVEL    =     F    velocity operator in full k-point grid
   LINTERFAST=   F  fast interpolation
   KINTER  =     0    interpolate to denser k-point grid
   CSHIFT  =0.1000    complex shift for real part using Kramers Kronig
   OMEGAMAX=  -1.0    maximum frequency
   DEG_THRESHOLD= 0.2000000E-02 threshold for treating states as degnerate
   RTIME   =   -0.100 relaxation time in fs
  (WPLASMAI=    0.000 imaginary part of plasma frequency in eV, 0.658/RTIME)
   DFIELD  = 0.0000000 0.0000000 0.0000000 field for delta impulse in time
 
 Orbital magnetization related:
   ORBITALMAG=     F  switch on orbital magnetization
   LCHIMAG   =     F  perturbation theory with respect to B field
   DQ        =  0.001000  dq finite difference perturbation B field
   LLRAUG    =     F  two centre corrections for induced B field



--------------------------------------------------------------------------------------------------------


 Static calculation
 charge density and potential will be updated during run
 spin polarized calculation
 Conjugate gradient for all bands (Freysoldt, et al. PRB 79, 241103 (2009))
 preconditioned conjugated gradient                                        
 perform sub-space diagonalisation
    before iterative eigenvector-optimisation
 modified Broyden-mixing scheme, WC =      100.0
 initial mixing is a Kerker type mixing with AMIX =  0.4000 and BMIX =      1.0000
 Hartree-type preconditioning will be used
 using additional bands            4
 real space projection scheme for non local part
 use partial core corrections
 no Harris-corrections to forces 
 use gradient corrections 
 use of overlap-Matrix (Vanderbilt PP)
 Methfessel and Paxton  Order N= 2 SIGMA  =   0.20


--------------------------------------------------------------------------------------------------------


  energy-cutoff  :      680.00
  volume of cell :       17.02
      direct lattice vectors                 reciprocal lattice vectors
     0.000000000  2.041714000  2.041714000    -0.244892282  0.244892282  0.244892282
     2.041714000  0.000000000  2.041714000     0.244892282 -0.244892282  0.244892282
     2.041714000  2.041714000  0.000000000     0.244892282  0.244892282 -0.244892282

  length of vectors
     2.887419629  2.887419629  2.887419629     0.424165874  0.424165874  0.424165874


 
 k-points in units of 2pi/SCALE and weight: read from INCAR                         
   0.00000000  0.00000000  0.00000000       0.000
  -0.01883787  0.01883787  0.01883787       0.004
  -0.03767574  0.03767574  0.03767574       0.004
  -0.05651360  0.05651360  0.05651360       0.004
  -0.07535147  0.07535147  0.07535147       0.004
  -0.09418934  0.09418934  0.09418934       0.004
  -0.11302721  0.11302721  0.11302721       0.004
   0.00000000  0.00000000  0.03767574       0.003
  -0.01883787  0.01883787  0.05651360       0.011
  -0.03767574  0.03767574  0.07535147       0.011
  -0.05651360  0.05651360  0.09418934       0.011
  -0.07535147  0.07535147  0.11302721       0.011
  -0.09418934  0.09418934  0.13186507       0.011
   0.13186507 -0.13186507 -0.09418934       0.011
   0.11302721 -0.11302721 -0.07535147       0.011
   0.09418934 -0.09418934 -0.05651360       0.011
   0.07535147 -0.07535147 -0.03767574       0.011
   0.05651360 -0.05651360 -0.01883787       0.011
   0.03767574 -0.03767574  0.00000000       0.005
   0.00000000  0.00000000  0.07535147       0.003
  -0.01883787  0.01883787  0.09418934       0.011
  -0.03767574  0.03767574  0.11302721       0.011
  -0.05651360  0.05651360  0.13186507       0.011
  -0.07535147  0.07535147  0.15070294       0.011
   0.15070294 -0.15070294 -0.07535147       0.011
   0.13186507 -0.13186507 -0.05651360       0.011
   0.11302721 -0.11302721 -0.03767574       0.011
   0.09418934 -0.09418934 -0.01883787       0.011
   0.07535147 -0.07535147  0.00000000       0.005
   0.00000000  0.00000000  0.11302721       0.003
  -0.01883787  0.01883787  0.13186507       0.011
  -0.03767574  0.03767574  0.15070294       0.011
  -0.05651360  0.05651360  0.16954081       0.011
   0.16954081 -0.16954081 -0.05651360       0.011
   0.15070294 -0.15070294 -0.03767574       0.011
   0.13186507 -0.13186507 -0.01883787       0.011
   0.11302721 -0.11302721  0.00000000       0.005
   0.00000000  0.00000000  0.15070294       0.003
  -0.01883787  0.01883787  0.16954081       0.011
  -0.03767574  0.03767574  0.18837868       0.011
   0.18837868 -0.18837868 -0.03767574       0.011
   0.16954081 -0.16954081 -0.01883787       0.011
   0.15070294 -0.15070294  0.00000000       0.005
   0.00000000  0.00000000  0.18837868       0.003
  -0.01883787  0.01883787  0.20721655       0.011
   0.20721655 -0.20721655 -0.01883787       0.011
   0.18837868 -0.18837868  0.00000000       0.005
   0.00000000  0.00000000  0.22605441       0.003
   0.22605441 -0.22605441  0.00000000       0.005
   0.00000000  0.03767574  0.07535147       0.011
  -0.01883787  0.05651360  0.09418934       0.022
  -0.03767574  0.07535147  0.11302721       0.022
  -0.05651360  0.09418934  0.13186507       0.022
   0.16954081 -0.13186507 -0.09418934       0.022
  -0.00000000  0.03767574  0.11302721       0.011
  -0.01883787  0.05651360  0.13186507       0.022
  -0.03767574  0.07535147  0.15070294       0.022
   0.18837868 -0.15070294 -0.07535147       0.022
   0.16954081 -0.13186507 -0.05651360       0.022
   0.15070294 -0.11302721 -0.03767574       0.022
   0.13186507 -0.09418934 -0.01883787       0.022
   0.11302721 -0.07535147  0.00000000       0.011
  -0.00000000  0.03767574  0.15070294       0.011
  -0.01883787  0.05651360  0.16954081       0.022
   0.20721655 -0.16954081 -0.05651360       0.022
   0.18837868 -0.15070294 -0.03767574       0.022
   0.16954081 -0.13186507 -0.01883787       0.022
   0.15070294 -0.11302721  0.00000000       0.011
  -0.00000000  0.03767574  0.18837868       0.011
   0.22605441 -0.18837868 -0.03767574       0.022
   0.20721655 -0.16954081 -0.01883787       0.022
   0.18837868 -0.15070294  0.00000000       0.011
   0.24489228 -0.20721655 -0.01883787       0.011
   0.22605441 -0.18837868  0.00000000       0.011
   0.00000000  0.07535147  0.15070294       0.011
   0.22605441 -0.15070294 -0.07535147       0.022
   0.20721655 -0.13186507 -0.05651360       0.022
   0.24489228 -0.16954081 -0.05651360       0.011
   0.22605441 -0.15070294 -0.03767574       0.022
   0.20721655 -0.13186507 -0.01883787       0.022
   0.18837868 -0.11302721  0.00000000       0.011
   0.24489228 -0.16954081 -0.01883787       0.011
   0.22605441 -0.15070294  0.00000000       0.011
   0.24489228 -0.13186507 -0.01883787       0.011
 
 k-points in reciprocal lattice and weights: read from INCAR                         
   0.00000000  0.00000000  0.00000000       0.000
   0.07692308  0.00000000  0.00000000       0.004
   0.15384615  0.00000000  0.00000000       0.004
   0.23076923  0.00000000  0.00000000       0.004
   0.30769231  0.00000000  0.00000000       0.004
   0.38461538  0.00000000  0.00000000       0.004
   0.46153846  0.00000000  0.00000000       0.004
   0.07692308  0.07692308  0.00000000       0.003
   0.15384615  0.07692308  0.00000000       0.011
   0.23076923  0.07692308  0.00000000       0.011
   0.30769231  0.07692308  0.00000000       0.011
   0.38461538  0.07692308  0.00000000       0.011
   0.46153846  0.07692308  0.00000000       0.011
  -0.46153846  0.07692308  0.00000000       0.011
  -0.38461538  0.07692308  0.00000000       0.011
  -0.30769231  0.07692308  0.00000000       0.011
  -0.23076923  0.07692308  0.00000000       0.011
  -0.15384615  0.07692308  0.00000000       0.011
  -0.07692308  0.07692308  0.00000000       0.005
   0.15384615  0.15384615  0.00000000       0.003
   0.23076923  0.15384615  0.00000000       0.011
   0.30769231  0.15384615  0.00000000       0.011
   0.38461538  0.15384615  0.00000000       0.011
   0.46153846  0.15384615  0.00000000       0.011
  -0.46153846  0.15384615  0.00000000       0.011
  -0.38461538  0.15384615  0.00000000       0.011
  -0.30769231  0.15384615  0.00000000       0.011
  -0.23076923  0.15384615  0.00000000       0.011
  -0.15384615  0.15384615  0.00000000       0.005
   0.23076923  0.23076923  0.00000000       0.003
   0.30769231  0.23076923  0.00000000       0.011
   0.38461538  0.23076923  0.00000000       0.011
   0.46153846  0.23076923  0.00000000       0.011
  -0.46153846  0.23076923  0.00000000       0.011
  -0.38461538  0.23076923  0.00000000       0.011
  -0.30769231  0.23076923  0.00000000       0.011
  -0.23076923  0.23076923  0.00000000       0.005
   0.30769231  0.30769231  0.00000000       0.003
   0.38461538  0.30769231  0.00000000       0.011
   0.46153846  0.30769231  0.00000000       0.011
  -0.46153846  0.30769231  0.00000000       0.011
  -0.38461538  0.30769231  0.00000000       0.011
  -0.30769231  0.30769231  0.00000000       0.005
   0.38461538  0.38461538  0.00000000       0.003
   0.46153846  0.38461538  0.00000000       0.011
  -0.46153846  0.38461538  0.00000000       0.011
  -0.38461538  0.38461538  0.00000000       0.005
   0.46153846  0.46153846  0.00000000       0.003
  -0.46153846  0.46153846  0.00000000       0.005
   0.23076923  0.15384615  0.07692308       0.011
   0.30769231  0.15384615  0.07692308       0.022
   0.38461538  0.15384615  0.07692308       0.022
   0.46153846  0.15384615  0.07692308       0.022
  -0.46153846  0.15384615  0.07692308       0.022
   0.30769231  0.23076923  0.07692308       0.011
   0.38461538  0.23076923  0.07692308       0.022
   0.46153846  0.23076923  0.07692308       0.022
  -0.46153846  0.23076923  0.07692308       0.022
  -0.38461538  0.23076923  0.07692308       0.022
  -0.30769231  0.23076923  0.07692308       0.022
  -0.23076923  0.23076923  0.07692308       0.022
  -0.15384615  0.23076923  0.07692308       0.011
   0.38461538  0.30769231  0.07692308       0.011
   0.46153846  0.30769231  0.07692308       0.022
  -0.46153846  0.30769231  0.07692308       0.022
  -0.38461538  0.30769231  0.07692308       0.022
  -0.30769231  0.30769231  0.07692308       0.022
  -0.23076923  0.30769231  0.07692308       0.011
   0.46153846  0.38461538  0.07692308       0.011
  -0.46153846  0.38461538  0.07692308       0.022
  -0.38461538  0.38461538  0.07692308       0.022
  -0.30769231  0.38461538  0.07692308       0.011
  -0.46153846  0.46153846  0.07692308       0.011
  -0.38461538  0.46153846  0.07692308       0.011
   0.46153846  0.30769231  0.15384615       0.011
  -0.46153846  0.30769231  0.15384615       0.022
  -0.38461538  0.30769231  0.15384615       0.022
  -0.46153846  0.38461538  0.15384615       0.011
  -0.38461538  0.38461538  0.15384615       0.022
  -0.30769231  0.38461538  0.15384615       0.022
  -0.23076923  0.38461538  0.15384615       0.011
  -0.38461538  0.46153846  0.15384615       0.011
  -0.30769231  0.46153846  0.15384615       0.011
  -0.30769231  0.46153846  0.23076923       0.011
 
 position of ions in fractional coordinates (direct lattice) 
   0.00000000  0.00000000  0.00000000
   0.50000000  0.50000000  0.50000000
 
 position of ions in cartesian coordinates  (Angst):
   0.00000000  0.00000000  0.00000000
   2.04171400  2.04171400  2.04171400
 


--------------------------------------------------------------------------------------------------------


 k-point  1 :   0.0000 0.0000 0.0000  plane waves:     701
 k-point  2 :   0.0769 0.0000 0.0000  plane waves:     685
 k-point  3 :   0.1538 0.0000 0.0000  plane waves:     679
 k-point  4 :   0.2308 0.0000 0.0000  plane waves:     679
 k-point  5 :   0.3077 0.0000 0.0000  plane waves:     682
 k-point  6 :   0.3846 0.0000 0.0000  plane waves:     679
 k-point  7 :   0.4615 0.0000 0.0000  plane waves:     694
 k-point  8 :   0.0769 0.0769 0.0000  plane waves:     689
 k-point  9 :   0.1538 0.0769 0.0000  plane waves:     682
 k-point 10 :   0.2308 0.0769 0.0000  plane waves:     683
 k-point 11 :   0.3077 0.0769 0.0000  plane waves:     682
 k-point 12 :   0.3846 0.0769 0.0000  plane waves:     683
 k-point 13 :   0.4615 0.0769 0.0000  plane waves:     690
 k-point 14 :  -0.4615 0.0769 0.0000  plane waves:     687
 k-point 15 :  -0.3846 0.0769 0.0000  plane waves:     686
 k-point 16 :  -0.3077 0.0769 0.0000  plane waves:     676
 k-point 17 :  -0.2308 0.0769 0.0000  plane waves:     677
 k-point 18 :  -0.1538 0.0769 0.0000  plane waves:     678
 k-point 19 :  -0.0769 0.0769 0.0000  plane waves:     684
 k-point 20 :   0.1538 0.1538 0.0000  plane waves:     681
 k-point 21 :   0.2308 0.1538 0.0000  plane waves:     680
 k-point 22 :   0.3077 0.1538 0.0000  plane waves:     681
 k-point 23 :   0.3846 0.1538 0.0000  plane waves:     688
 k-point 24 :   0.4615 0.1538 0.0000  plane waves:     683
 k-point 25 :  -0.4615 0.1538 0.0000  plane waves:     686
 k-point 26 :  -0.3846 0.1538 0.0000  plane waves:     686
 k-point 27 :  -0.3077 0.1538 0.0000  plane waves:     682
 k-point 28 :  -0.2308 0.1538 0.0000  plane waves:     679
 k-point 29 :  -0.1538 0.1538 0.0000  plane waves:     678
 k-point 30 :   0.2308 0.2308 0.0000  plane waves:     681
 k-point 31 :   0.3077 0.2308 0.0000  plane waves:     684
 k-point 32 :   0.3846 0.2308 0.0000  plane waves:     682
 k-point 33 :   0.4615 0.2308 0.0000  plane waves:     689
 k-point 34 :  -0.4615 0.2308 0.0000  plane waves:     688
 k-point 35 :  -0.3846 0.2308 0.0000  plane waves:     690
 k-point 36 :  -0.3077 0.2308 0.0000  plane waves:     687
 k-point 37 :  -0.2308 0.2308 0.0000  plane waves:     676
 k-point 38 :   0.3077 0.3077 0.0000  plane waves:     689
 k-point 39 :   0.3846 0.3077 0.0000  plane waves:     685
 k-point 40 :   0.4615 0.3077 0.0000  plane waves:     686
 k-point 41 :  -0.4615 0.3077 0.0000  plane waves:     692
 k-point 42 :  -0.3846 0.3077 0.0000  plane waves:     689
 k-point 43 :  -0.3077 0.3077 0.0000  plane waves:     684
 k-point 44 :   0.3846 0.3846 0.0000  plane waves:     684
 k-point 45 :   0.4615 0.3846 0.0000  plane waves:     686
 k-point 46 :  -0.4615 0.3846 0.0000  plane waves:     690
 k-point 47 :  -0.3846 0.3846 0.0000  plane waves:     688
 k-point 48 :   0.4615 0.4615 0.0000  plane waves:     692
 k-point 49 :  -0.4615 0.4615 0.0000  plane waves:     686
 k-point 50 :   0.2308 0.1538 0.0769  plane waves:     678
 k-point 51 :   0.3077 0.1538 0.0769  plane waves:     678
 k-point 52 :   0.3846 0.1538 0.0769  plane waves:     689
 k-point 53 :   0.4615 0.1538 0.0769  plane waves:     681
 k-point 54 :  -0.4615 0.1538 0.0769  plane waves:     686
 k-point 55 :   0.3077 0.2308 0.0769  plane waves:     681
 k-point 56 :   0.3846 0.2308 0.0769  plane waves:     681
 k-point 57 :   0.4615 0.2308 0.0769  plane waves:     685
 k-point 58 :  -0.4615 0.2308 0.0769  plane waves:     686
 k-point 59 :  -0.3846 0.2308 0.0769  plane waves:     687
 k-point 60 :  -0.3077 0.2308 0.0769  plane waves:     681
 k-point 61 :  -0.2308 0.2308 0.0769  plane waves:     685
 k-point 62 :  -0.1538 0.2308 0.0769  plane waves:     675
 k-point 63 :   0.3846 0.3077 0.0769  plane waves:     684
 k-point 64 :   0.4615 0.3077 0.0769  plane waves:     679
 k-point 65 :  -0.4615 0.3077 0.0769  plane waves:     685
 k-point 66 :  -0.3846 0.3077 0.0769  plane waves:     693
 k-point 67 :  -0.3077 0.3077 0.0769  plane waves:     691
 k-point 68 :  -0.2308 0.3077 0.0769  plane waves:     686
 k-point 69 :   0.4615 0.3846 0.0769  plane waves:     683
 k-point 70 :  -0.4615 0.3846 0.0769  plane waves:     688
 k-point 71 :  -0.3846 0.3846 0.0769  plane waves:     693
 k-point 72 :  -0.3077 0.3846 0.0769  plane waves:     694
 k-point 73 :  -0.4615 0.4615 0.0769  plane waves:     685
 k-point 74 :  -0.3846 0.4615 0.0769  plane waves:     693
 k-point 75 :   0.4615 0.3077 0.1538  plane waves:     677
 k-point 76 :  -0.4615 0.3077 0.1538  plane waves:     683
 k-point 77 :  -0.3846 0.3077 0.1538  plane waves:     687
 k-point 78 :  -0.4615 0.3846 0.1538  plane waves:     682
 k-point 79 :  -0.3846 0.3846 0.1538  plane waves:     692
 k-point 80 :  -0.3077 0.3846 0.1538  plane waves:     691
 k-point 81 :  -0.2308 0.3846 0.1538  plane waves:     690
 k-point 82 :  -0.3846 0.4615 0.1538  plane waves:     690
 k-point 83 :  -0.3077 0.4615 0.1538  plane waves:     689
 k-point 84 :  -0.3077 0.4615 0.2308  plane waves:     692

 maximum and minimum number of plane-waves per node :       701      675

 maximum number of plane-waves:       701
 maximum index in each direction: 
   IXMAX=    6   IYMAX=    6   IZMAX=    6
   IXMIN=   -6   IYMIN=   -6   IZMIN=   -6


 serial   3D FFT for wavefunctions
 parallel 3D FFT for charge:
    minimum data exchange during FFTs selected (reduces bandwidth)


 total amount of memory used by VASP MPI-rank0   105204. kBytes
=======================================================================

   base      :      30000. kBytes
   nonlr-proj:        950. kBytes
   fftplans  :       6192. kBytes
   grid      :      16231. kBytes
   one-center:         12. kBytes
   wavefun   :      51819. kBytes
 
     INWAV:  cpu time    0.0000: real time    0.0000
 Broyden mixing: mesh for mixing (old mesh)
   NGX = 13   NGY = 13   NGZ = 13
  (NGX  = 56   NGY  = 56   NGZ  = 56)
  gives a total of   2197 points

 initial charge density was supplied:
 charge density of overlapping atoms calculated
 number of electron      10.0000000 magnetization       0.0000000
 keeping initial charge density in first step


--------------------------------------------------------------------------------------------------------


 Maximum index for non-local projection operator         6819
 Maximum index for augmentation-charges        15947 (set IRDMAX)


--------------------------------------------------------------------------------------------------------


 First call to EWALD:  gamma=   0.689
 Maximum number of real-space cells 3x 3x 3
 Maximum number of reciprocal cells 3x 3x 3

    FEWALD:  cpu time    0.0008: real time    0.0008


--------------------------------------- Iteration      1(   1)  ---------------------------------------


    POTLOK:  cpu time    0.0982: real time    0.1011
    SETDIJ:  cpu time    0.2103: real time    0.2130
    TRIAL :  cpu time    2.6629: real time    2.6815
    CORREC:  cpu time    0.0024: real time    0.0024
    --------------------------------------------
      LOOP:  cpu time    2.9792: real time    3.0039

 eigenvalue-minimisations  :  3088
 total energy-change (2. order) : 0.4206766E+02  (-0.7420863E+03)
 number of electron      10.0000000 magnetization       0.0000000
 augmentation part       10.0000000 magnetization       0.0000000

 Free energy of the ion-electron system (eV)
  ---------------------------------------------------
  alpha Z        PSCENC =        19.24755120
  Ewald energy   TEWEN  =      -549.57268052
  -Hartree energ DENC   =      -217.48188625
  -exchange      EXHF   =         0.00000000
  -V(xc)+E(xc)   XCENC  =        50.33839578
  PAW double counting   =       618.58917110     -638.32718659
  entropy T*S    EENTRO =        -0.00021761
  eigenvalues    EBANDS =       -99.19226351
  atomic energy  EATOM  =       858.46677950
  ---------------------------------------------------
  free energy    TOTEN  =        42.06766310 eV

  energy without entropy =       42.06788071  energy(sigma->0) =       42.06771750


--------------------------------------------------------------------------------------------------------




--------------------------------------- Iteration      1(   2)  ---------------------------------------


    TRIAL :  cpu time    2.8207: real time    2.8337
    CORREC:  cpu time    0.0020: real time    0.0020
    --------------------------------------------
      LOOP:  cpu time    2.8230: real time    2.8360

 eigenvalue-minimisations  :  3305
 total energy-change (2. order) :-0.5085266E+02  (-0.4960831E+02)
 number of electron      10.0000000 magnetization       0.0000000
 augmentation part       10.0000000 magnetization       0.0000000

 Free energy of the ion-electron system (eV)
  ---------------------------------------------------
  alpha Z        PSCENC =        19.24755120
  Ewald energy   TEWEN  =      -549.57268052
  -Hartree energ DENC   =      -217.48188625
  -exchange      EXHF   =         0.00000000
  -V(xc)+E(xc)   XCENC  =        50.33839578
  PAW double counting   =       618.58917110     -638.32718659
  entropy T*S    EENTRO =         0.00002005
  eigenvalues    EBANDS =      -150.04516050
  atomic energy  EATOM  =       858.46677950
  ---------------------------------------------------
  free energy    TOTEN  =        -8.78499623 eV

  energy without entropy =       -8.78501628  energy(sigma->0) =       -8.78500124


--------------------------------------------------------------------------------------------------------




--------------------------------------- Iteration      1(   3)  ---------------------------------------


    TRIAL :  cpu time    3.1833: real time    3.2083
    CORREC:  cpu time    0.0032: real time    0.0032
    --------------------------------------------
      LOOP:  cpu time    3.1868: real time    3.2117

 eigenvalue-minimisations  :  3951
 total energy-change (2. order) :-0.1471383E+01  (-0.1469996E+01)
 number of electron      10.0000000 magnetization       0.0000000
 augmentation part       10.0000000 magnetization       0.0000000

 Free energy of the ion-electron system (eV)
  ---------------------------------------------------
  alpha Z        PSCENC =        19.24755120
  Ewald energy   TEWEN  =      -549.57268052
  -Hartree energ DENC   =      -217.48188625
  -exchange      EXHF   =         0.00000000
  -V(xc)+E(xc)   XCENC  =        50.33839578
  PAW double counting   =       618.58917110     -638.32718659
  entropy T*S    EENTRO =         0.00385411
  eigenvalues    EBANDS =      -151.52037711
  atomic energy  EATOM  =       858.46677950
  ---------------------------------------------------
  free energy    TOTEN  =       -10.25637879 eV

  energy without entropy =      -10.26023290  energy(sigma->0) =      -10.25734232


--------------------------------------------------------------------------------------------------------




--------------------------------------- Iteration      1(   4)  ---------------------------------------


    TRIAL :  cpu time    3.3061: real time    3.3271
    CORREC:  cpu time    0.0029: real time    0.0029
    --------------------------------------------
      LOOP:  cpu time    3.3093: real time    3.3303

 eigenvalue-minimisations  :  4103
 total energy-change (2. order) :-0.1666324E-01  (-0.1664853E-01)
 number of electron      10.0000000 magnetization       0.0000000
 augmentation part       10.0000000 magnetization       0.0000000

 Free energy of the ion-electron system (eV)
  ---------------------------------------------------
  alpha Z        PSCENC =        19.24755120
  Ewald energy   TEWEN  =      -549.57268052
  -Hartree energ DENC   =      -217.48188625
  -exchange      EXHF   =         0.00000000
  -V(xc)+E(xc)   XCENC  =        50.33839578
  PAW double counting   =       618.58917110     -638.32718659
  entropy T*S    EENTRO =         0.00387051
  eigenvalues    EBANDS =      -151.53705676
  atomic energy  EATOM  =       858.46677950
  ---------------------------------------------------
  free energy    TOTEN  =       -10.27304203 eV

  energy without entropy =      -10.27691254  energy(sigma->0) =      -10.27400966


--------------------------------------------------------------------------------------------------------




--------------------------------------- Iteration      1(   5)  ---------------------------------------


    TRIAL :  cpu time    3.1163: real time    3.1281
    CORREC:  cpu time    0.0025: real time    0.0025
    CHARGE:  cpu time    0.1558: real time    0.1583
    --------------------------------------------
      LOOP:  cpu time    3.2748: real time    3.2891

 eigenvalue-minimisations  :  4009
 total energy-change (2. order) :-0.9220818E-04  (-0.9220665E-04)
 number of electron       9.9999998 magnetization       0.0000001
 augmentation part        2.4012178 magnetization       0.0000014

 Free energy of the ion-electron system (eV)
  ---------------------------------------------------
  alpha Z        PSCENC =        19.24755120
  Ewald energy   TEWEN  =      -549.57268052
  -Hartree energ DENC   =      -217.48188625
  -exchange      EXHF   =         0.00000000
  -V(xc)+E(xc)   XCENC  =        50.33839578
  PAW double counting   =       618.58917110     -638.32718659
  entropy T*S    EENTRO =         0.00387052
  eigenvalues    EBANDS =      -151.53714898
  atomic energy  EATOM  =       858.46677950
  ---------------------------------------------------
  free energy    TOTEN  =       -10.27313424 eV

  energy without entropy =      -10.27700476  energy(sigma->0) =      -10.27410187


--------------------------------------------------------------------------------------------------------




--------------------------------------- Iteration      1(   6)  ---------------------------------------


    POTLOK:  cpu time    0.0925: real time    0.0927
    SETDIJ:  cpu time    0.2414: real time    0.2425
    TRIAL :  cpu time    1.4665: real time    1.4758
    CORREC:  cpu time    0.7753: real time    0.7791
    CHARGE:  cpu time    0.1897: real time    0.1935
    --------------------------------------------
      LOOP:  cpu time    2.7657: real time    2.7838

 eigenvalue-minimisations  :     0
 total energy-change (2. order) : 0.1124091E+01  (-0.6096875E+00)
 number of electron       9.9999998 magnetization      -0.0000035
 augmentation part        2.3126328 magnetization      -0.0000018

 Free energy of the ion-electron system (eV)
  ---------------------------------------------------
  alpha Z        PSCENC =        19.24755120
  Ewald energy   TEWEN  =      -549.57268052
  -Hartree energ DENC   =      -249.04350528
  -exchange      EXHF   =         0.00000000
  -V(xc)+E(xc)   XCENC  =        52.31859329
  PAW double counting   =       734.03273414     -755.12297105
  entropy T*S    EENTRO =         0.00336049
  eigenvalues    EBANDS =      -119.47941514
  atomic energy  EATOM  =       858.46677950
  ---------------------------------------------------
  free energy    TOTEN  =        -9.14904333 eV

  energy without entropy =       -9.15240382  energy(sigma->0) =       -9.14988345


--------------------------------------------------------------------------------------------------------




--------------------------------------- Iteration      1(   7)  ---------------------------------------


    POTLOK:  cpu time    0.1116: real time    0.1136
    SETDIJ:  cpu time    0.2751: real time    0.2811
    TRIAL :  cpu time    1.4916: real time    1.5012
    CORREC:  cpu time    0.8570: real time    0.8723
    CHARGE:  cpu time    0.1610: real time    0.1615
    --------------------------------------------
      LOOP:  cpu time    2.8967: real time    2.9301

 eigenvalue-minimisations  :     0
 total energy-change (2. order) :-0.6086382E+00  (-0.6916170E-01)
 number of electron       9.9999998 magnetization      -0.0000026
 augmentation part        2.2761984 magnetization      -0.0000017

 Free energy of the ion-electron system (eV)
  ---------------------------------------------------
  alpha Z        PSCENC =        19.24755120
  Ewald energy   TEWEN  =      -549.57268052
  -Hartree energ DENC   =      -231.70988795
  -exchange      EXHF   =         0.00000000
  -V(xc)+E(xc)   XCENC  =        51.19874748
  PAW double counting   =       719.25932710     -739.63282062
  entropy T*S    EENTRO =         0.00308039
  eigenvalues    EBANDS =      -137.01805820
  atomic energy  EATOM  =       858.46677950
  ---------------------------------------------------
  free energy    TOTEN  =        -9.75768153 eV

  energy without entropy =       -9.76076193  energy(sigma->0) =       -9.75845163


--------------------------------------------------------------------------------------------------------




--------------------------------------- Iteration      1(   8)  ---------------------------------------


    POTLOK:  cpu time    0.0993: real time    0.0995
    SETDIJ:  cpu time    0.2390: real time    0.2395
    TRIAL :  cpu time    1.4976: real time    1.5108
    CORREC:  cpu time    0.8470: real time    0.8545
    CHARGE:  cpu time    0.1765: real time    0.1775
    --------------------------------------------
      LOOP:  cpu time    2.8597: real time    2.8823

 eigenvalue-minimisations  :     0
 total energy-change (2. order) :-0.6870727E-01  (-0.1965177E-01)
 number of electron       9.9999998 magnetization      -0.0000032
 augmentation part        2.2719208 magnetization      -0.0000017

 Free energy of the ion-electron system (eV)
  ---------------------------------------------------
  alpha Z        PSCENC =        19.24755120
  Ewald energy   TEWEN  =      -549.57268052
  -Hartree energ DENC   =      -230.05817465
  -exchange      EXHF   =         0.00000000
  -V(xc)+E(xc)   XCENC  =        51.09833298
  PAW double counting   =       714.20007275     -734.33760502
  entropy T*S    EENTRO =         0.00294798
  eigenvalues    EBANDS =      -138.87374544
  atomic energy  EATOM  =       858.46677950
  ---------------------------------------------------
  free energy    TOTEN  =        -9.82638881 eV

  energy without entropy =       -9.82933678  energy(sigma->0) =       -9.82712580


--------------------------------------------------------------------------------------------------------




--------------------------------------- Iteration      1(   9)  ---------------------------------------


    POTLOK:  cpu time    0.1049: real time    0.1054
    SETDIJ:  cpu time    0.2657: real time    0.2668
    TRIAL :  cpu time    1.5939: real time    1.6232
    CORREC:  cpu time    0.8761: real time    0.8849
    CHARGE:  cpu time    0.1652: real time    0.1669
    --------------------------------------------
      LOOP:  cpu time    3.0063: real time    3.0475

 eigenvalue-minimisations  :     0
 total energy-change (2. order) :-0.1960243E-01  (-0.1447133E-02)
 number of electron       9.9999998 magnetization      -0.0000029
 augmentation part        2.2728606 magnetization      -0.0000018

 Free energy of the ion-electron system (eV)
  ---------------------------------------------------
  alpha Z        PSCENC =        19.24755120
  Ewald energy   TEWEN  =      -549.57268052
  -Hartree energ DENC   =      -229.59159866
  -exchange      EXHF   =         0.00000000
  -V(xc)+E(xc)   XCENC  =        51.07260523
  PAW double counting   =       709.91584362     -730.11754636
  entropy T*S    EENTRO =         0.00293428
  eigenvalues    EBANDS =      -139.26989323
  atomic energy  EATOM  =       858.46677950
  ---------------------------------------------------
  free energy    TOTEN  =        -9.84599124 eV

  energy without entropy =       -9.84892552  energy(sigma->0) =       -9.84672481


--------------------------------------------------------------------------------------------------------




--------------------------------------- Iteration      1(  10)  ---------------------------------------


    POTLOK:  cpu time    0.1060: real time    0.1067
    SETDIJ:  cpu time    0.2601: real time    0.2618
    TRIAL :  cpu time    1.4473: real time    1.4534
    CORREC:  cpu time    0.8319: real time    0.8377
    CHARGE:  cpu time    0.1609: real time    0.1619
    --------------------------------------------
      LOOP:  cpu time    2.8066: real time    2.8218

 eigenvalue-minimisations  :     0
 total energy-change (2. order) :-0.1448652E-02  (-0.1376461E-03)
 number of electron       9.9999998 magnetization      -0.0000024
 augmentation part        2.2733441 magnetization      -0.0000016

 Free energy of the ion-electron system (eV)
  ---------------------------------------------------
  alpha Z        PSCENC =        19.24755120
  Ewald energy   TEWEN  =      -549.57268052
  -Hartree energ DENC   =      -229.37009767
  -exchange      EXHF   =         0.00000000
  -V(xc)+E(xc)   XCENC  =        51.05753518
  PAW double counting   =       708.79839951     -729.01428086
  entropy T*S    EENTRO =         0.00293432
  eigenvalues    EBANDS =      -139.46358050
  atomic energy  EATOM  =       858.46677950
  ---------------------------------------------------
  free energy    TOTEN  =        -9.84743989 eV

  energy without entropy =       -9.85037421  energy(sigma->0) =       -9.84817347


--------------------------------------------------------------------------------------------------------




--------------------------------------- Iteration      1(  11)  ---------------------------------------


    POTLOK:  cpu time    0.1017: real time    0.1021
    SETDIJ:  cpu time    0.2405: real time    0.2409
    TRIAL :  cpu time    1.5181: real time    1.5271
    CORREC:  cpu time    0.7793: real time    0.7810
    CHARGE:  cpu time    0.1581: real time    0.1584
    --------------------------------------------
      LOOP:  cpu time    2.7980: real time    2.8099

 eigenvalue-minimisations  :     0
 total energy-change (2. order) :-0.1376966E-03  (-0.1654737E-04)
 number of electron       9.9999998 magnetization      -0.0000019
 augmentation part        2.2734998 magnetization      -0.0000012

 Free energy of the ion-electron system (eV)
  ---------------------------------------------------
  alpha Z        PSCENC =        19.24755120
  Ewald energy   TEWEN  =      -549.57268052
  -Hartree energ DENC   =      -229.41440703
  -exchange      EXHF   =         0.00000000
  -V(xc)+E(xc)   XCENC  =        51.06045627
  PAW double counting   =       708.65764681     -728.87898438
  entropy T*S    EENTRO =         0.00293454
  eigenvalues    EBANDS =      -139.41687376
  atomic energy  EATOM  =       858.46677950
  ---------------------------------------------------
  free energy    TOTEN  =        -9.84757759 eV

  energy without entropy =       -9.85051212  energy(sigma->0) =       -9.84831122


--------------------------------------------------------------------------------------------------------




--------------------------------------- Iteration      1(  12)  ---------------------------------------


    POTLOK:  cpu time    0.1037: real time    0.1043
    SETDIJ:  cpu time    0.2337: real time    0.2341
    TRIAL :  cpu time    1.4060: real time    1.4093
    CORREC:  cpu time    1.3330: real time    1.6744
    CHARGE:  cpu time    0.3334: real time    0.4096
    --------------------------------------------
      LOOP:  cpu time    3.4101: real time    3.8320

 eigenvalue-minimisations  :     0
 total energy-change (2. order) :-0.1659400E-04  (-0.2294689E-05)
 number of electron       9.9999998 magnetization      -0.0000015
 augmentation part        2.2735962 magnetization      -0.0000009

 Free energy of the ion-electron system (eV)
  ---------------------------------------------------
  alpha Z        PSCENC =        19.24755120
  Ewald energy   TEWEN  =      -549.57268052
  -Hartree energ DENC   =      -229.41118140
  -exchange      EXHF   =         0.00000000
  -V(xc)+E(xc)   XCENC  =        51.06011936
  PAW double counting   =       708.66066165     -728.88099671
  entropy T*S    EENTRO =         0.00293475
  eigenvalues    EBANDS =      -139.42078179
  atomic energy  EATOM  =       858.46677950
  ---------------------------------------------------
  free energy    TOTEN  =        -9.84759418 eV

  energy without entropy =       -9.85052893  energy(sigma->0) =       -9.84832787


--------------------------------------------------------------------------------------------------------




--------------------------------------- Iteration      1(  13)  ---------------------------------------


    POTLOK:  cpu time    0.1721: real time    0.1850
    SETDIJ:  cpu time    0.4487: real time    0.5042
    TRIAL :  cpu time    1.4907: real time    1.5080
    CORREC:  cpu time    0.7874: real time    0.7899
    EDDIAG:  cpu time    0.4719: real time    0.4730
    CHARGE:  cpu time    0.1631: real time    0.1636
    --------------------------------------------
      LOOP:  cpu time    3.5346: real time    3.6262

 eigenvalue-minimisations  :     0
 total energy-change (2. order) :-0.2366320E-05  (-0.3552817E-06)
 number of electron       9.9999998 magnetization      -0.0000011
 augmentation part        2.2736387 magnetization      -0.0000006

 Free energy of the ion-electron system (eV)
  ---------------------------------------------------
  alpha Z        PSCENC =        19.24755120
  Ewald energy   TEWEN  =      -549.57268052
  -Hartree energ DENC   =      -229.41109845
  -exchange      EXHF   =         0.00000000
  -V(xc)+E(xc)   XCENC  =        51.06007426
  PAW double counting   =       708.70827462     -728.92794741
  entropy T*S    EENTRO =         0.00293491
  eigenvalues    EBANDS =      -139.42148448
  atomic energy  EATOM  =       858.46677950
  ---------------------------------------------------
  free energy    TOTEN  =        -9.84759655 eV

  energy without entropy =       -9.85053146  energy(sigma->0) =       -9.84833027


--------------------------------------------------------------------------------------------------------


  average scaling for gradient   1.0567


 average (electrostatic) potential at core
  the test charge radii are     0.7079  0.7167
  (the norm of the test charge is              1.0000)
       1 -60.9138       2 -76.8861
 
 
 
 E-fermi :  -1.3135     XC(G=0):  -9.9984     alpha+bet :-12.5784


 spin component 1

 k-point     1 :       0.0000    0.0000    0.0000
  band No.  band energies     occupation 
      1     -41.6448      1.00000
      2     -21.1086      1.00000
      3      -1.3560      0.71450
      4      -1.3560      0.71412
      5      -1.3560      0.71406
      6       7.2054      0.00000
      7      21.9738      0.00000
      8      22.2874      0.00000
      9      22.3566      0.00000

 k-point     2 :       0.0769    0.0000    0.0000
  band No.  band energies     occupation 
      1     -41.6417      1.00000
      2     -21.0864      1.00000
      3      -1.5266      1.04845
      4      -1.3690      0.77408
      5      -1.3690      0.77408
      6       7.3862      0.00000
      7      20.0064      0.00000
      8      21.0957      0.00000
      9      21.0962      0.00000

 k-point     3 :       0.1538    0.0000    0.0000
  band No.  band energies     occupation 
      1     -41.6332      1.00000
      2     -21.0244      1.00000
      3      -1.9709      0.99993
      4      -1.4051      0.91192
      5      -1.4051      0.91192
      6       7.8414      0.00000
      7      17.9240      0.00000
      8      19.9737      0.00000
      9      19.9737      0.00000

 k-point     4 :       0.2308    0.0000    0.0000
  band No.  band energies     occupation 
      1     -41.6212      1.00000
      2     -20.9347      1.00000
      3      -2.5423      1.00000
      4      -1.4549      1.02198
      5      -1.4549      1.02198
      6       8.3754      0.00000
      7      16.3283      0.00000
      8      18.9161      0.00000
      9      18.9162      0.00000

 k-point     5 :       0.3077    0.0000    0.0000
  band No.  band energies     occupation 
      1     -41.6086      1.00000
      2     -20.8364      1.00000
      3      -3.0978      1.00000
      4      -1.5063      1.05162
      5      -1.5063      1.05162
      6       8.7858      0.00000
      7      15.3230      0.00000
      8      18.0460      0.00000
      9      18.0460      0.00000

 k-point     6 :       0.3846    0.0000    0.0000
  band No.  band energies     occupation 
      1     -41.5980      1.00000
      2     -20.7523      1.00000
      3      -3.5293      1.00000
      4      -1.5478      1.04062
      5      -1.5478      1.04062
      6       8.9765      0.00000
      7      14.8604      0.00000
      8      17.4348      0.00000
      9      17.4348      0.00000

 k-point     7 :       0.4615    0.0000    0.0000
  band No.  band energies     occupation 
      1     -41.5922      1.00000
      2     -20.7038      1.00000
      3      -3.7638      1.00000
      4      -1.5710      1.02975
      5      -1.5710      1.02975
      6       9.0164      0.00000
      7      14.7301      0.00000
      8      17.1207      0.00000
      9      17.1207      0.00000

 k-point     8 :       0.0769    0.0769    0.0000
  band No.  band energies     occupation 
      1     -41.6407      1.00000
      2     -21.0788      1.00000
      3      -1.5104      1.05145
      4      -1.4124      0.93397
      5      -1.4124      0.93393
      6       7.4533      0.00000
      7      20.5623      0.00000
      8      20.5899      0.00000
      9      20.8659      0.00000

 k-point     9 :       0.1538    0.0769    0.0000
  band No.  band energies     occupation 
      1     -41.6340      1.00000
      2     -21.0292      1.00000
      3      -1.8495      0.99885
      4      -1.4751      1.04194
      5      -1.4323      0.98357
      6       7.8376      0.00000
      7      18.5027      0.00000
      8      19.8310      0.00000
      9      20.1456      0.00000

 k-point    10 :       0.2308    0.0769    0.0000
  band No.  band energies     occupation 
      1     -41.6233      1.00000
      2     -20.9474      1.00000
      3      -2.3765      1.00000
      4      -1.5421      1.04301
      5      -1.4719      1.03955
      6       8.3781      0.00000
      7      16.7258      0.00000
      8      19.0261      0.00000
      9      19.0849      0.00000

 k-point    11 :       0.3077    0.0769    0.0000
  band No.  band energies     occupation 
      1     -41.6109      1.00000
      2     -20.8503      1.00000
      3      -2.9306      1.00000
      4      -1.5973      1.01758
      5      -1.5391      1.04419
      6       8.8707      0.00000
      7      15.5031      0.00000
      8      18.1868      0.00000
      9      18.2604      0.00000

 k-point    12 :       0.3846    0.0769    0.0000
  band No.  band energies     occupation 
      1     -41.5997      1.00000
      2     -20.7599      1.00000
      3      -3.3954      1.00000
      4      -1.6288      1.00609
      5      -1.6179      1.00958
      6       9.1634      0.00000
      7      14.8470      0.00000
      8      17.5419      0.00000
      9      17.6426      0.00000

 k-point    13 :       0.4615    0.0769    0.0000
  band No.  band energies     occupation 
      1     -41.5923      1.00000
      2     -20.6983      1.00000
      3      -3.6894      1.00000
      4      -1.6898      0.99583
      5      -1.6301      1.00571
      6       9.2581      0.00000
      7      14.6062      0.00000
      8      17.1860      0.00000
      9      17.2511      0.00000

 k-point    14 :      -0.4615    0.0769    0.0000
  band No.  band energies     occupation 
      1     -41.5903      1.00000
      2     -20.6819      1.00000
      3      -3.7639      1.00000
      4      -1.7381      0.99532
      5      -1.6012      1.01596
      6       9.2661      0.00000
      7      14.5583      0.00000
      8      17.1185      0.00000
      9      17.1350      0.00000

 k-point    15 :      -0.3846    0.0769    0.0000
  band No.  band energies     occupation 
      1     -41.5943      1.00000
      2     -20.7152      1.00000
      3      -3.6075      1.00000
      4      -1.7518      0.99571
      5      -1.5488      1.04017
      6       9.2325      0.00000
      7      14.6280      0.00000
      8      17.3175      0.00000
      9      17.3211      0.00000

 k-point    16 :      -0.3077    0.0769    0.0000
  band No.  band energies     occupation 
      1     -41.6031      1.00000
      2     -20.7890      1.00000
      3      -3.2463      1.00000
      4      -1.7268      0.99512
      5      -1.4841      1.04701
      6       9.0747      0.00000
      7      14.9621      0.00000
      8      17.7509      0.00000
      9      17.8182      0.00000

 k-point    17 :      -0.2308    0.0769    0.0000
  band No.  band energies     occupation 
      1     -41.6150      1.00000
      2     -20.8844      1.00000
      3      -2.7427      1.00000
      4      -1.6668      0.99801
      5      -1.4215      0.95834
      6       8.7014      0.00000
      7      15.7744      0.00000
      8      18.3634      0.00000
      9      18.6146      0.00000

 k-point    18 :      -0.1538    0.0769    0.0000
  band No.  band energies     occupation 
      1     -41.6272      1.00000
      2     -20.9785      1.00000
      3      -2.1950      1.00000
      4      -1.5804      1.02521
      5      -1.3748      0.79914
      6       8.1705      0.00000
      7      17.1321      0.00000
      8      19.0735      0.00000
      9      19.6623      0.00000

 k-point    19 :      -0.0769    0.0769    0.0000
  band No.  band energies     occupation 
      1     -41.6368      1.00000
      2     -21.0507      1.00000
      3      -1.7434      0.99546
      4      -1.4733      1.04066
      5      -1.3556      0.71234
      6       7.6653      0.00000
      7      18.8422      0.00000
      8      19.8673      0.00000
      9      20.7730      0.00000

 k-point    20 :       0.1538    0.1538    0.0000
  band No.  band energies     occupation 
      1     -41.6295      1.00000
      2     -20.9921      1.00000
      3      -1.9452      0.99986
      4      -1.5676      1.03132
      5      -1.5676      1.03132
      6       8.1582      0.00000
      7      18.8763      0.00000
      8      19.4658      0.00000
      9      19.4705      0.00000

 k-point    21 :       0.2308    0.1538    0.0000
  band No.  band energies     occupation 
      1     -41.6207      1.00000
      2     -20.9201      1.00000
      3      -2.3468      1.00000
      4      -1.6610      0.99884
      5      -1.6401      1.00301
      6       8.6911      0.00000
      7      17.1560      0.00000
      8      18.7269      0.00000
      9      18.9749      0.00000

 k-point    22 :       0.3077    0.1538    0.0000
  band No.  band energies     occupation 
      1     -41.6097      1.00000
      2     -20.8281      1.00000
      3      -2.8408      1.00000
      4      -1.7356      0.99527
      5      -1.7337      0.99523
      6       9.2658      0.00000
      7      15.7138      0.00000
      8      17.9885      0.00000
      9      18.4215      0.00000

 k-point    23 :       0.3846    0.1538    0.0000
  band No.  band energies     occupation 
      1     -41.5989      1.00000
      2     -20.7364      1.00000
      3      -3.2818      1.00000
      4      -1.8680      0.99920
      5      -1.7700      0.99635
      6       9.7041      0.00000
      7      14.8004      0.00000
      8      17.4464      0.00000
      9      17.8961      0.00000

 k-point    24 :       0.4615    0.1538    0.0000
  band No.  band energies     occupation 
      1     -41.5908      1.00000
      2     -20.6668      1.00000
      3      -3.5834      1.00000
      4      -2.0082      0.99997
      5      -1.7621      0.99606
      6       9.9118      0.00000
      7      14.3567      0.00000
      8      17.1542      0.00000
      9      17.4922      0.00000

 k-point    25 :      -0.4615    0.1538    0.0000
[...]
      4      -2.0070      0.99997
      5      -1.6671      0.99797
      6       9.7214      0.00000
      7      14.3055      0.00000
      8      17.1698      0.00000
      9      17.2327      0.00000

 k-point    55 :       0.3077    0.2308    0.0769
  band No.  band energies     occupation 
      1     -41.6118      1.00000
      2     -20.8422      1.00000
      3      -2.6918      1.00000
      4      -1.8733      0.99928
      5      -1.6729      0.99725
      6       9.2672      0.00000
      7      16.1653      0.00000
      8      18.0507      0.00000
      9      18.6089      0.00000

 k-point    56 :       0.3846    0.2308    0.0769
  band No.  band energies     occupation 
      1     -41.6016      1.00000
      2     -20.7513      1.00000
      3      -3.0793      1.00000
      4      -2.0679      1.00000
      5      -1.7306      0.99517
      6       9.8632      0.00000
      7      15.0771      0.00000
      8      17.5269      0.00000
      9      18.1478      0.00000

 k-point    57 :       0.4615    0.2308    0.0769
  band No.  band energies     occupation 
      1     -41.5924      1.00000
      2     -20.6681      1.00000
      3      -3.4047      1.00000
      4      -2.2338      1.00000
      5      -1.7910      0.99713
      6      10.3107      0.00000
      7      14.3515      0.00000
      8      17.1735      0.00000
      9      17.7330      0.00000

 k-point    58 :      -0.4615    0.2308    0.0769
  band No.  band energies     occupation 
      1     -41.5863      1.00000
      2     -20.6132      1.00000
      3      -3.5957      1.00000
      4      -2.3708      1.00000
      5      -1.8125      0.99788
      6      10.5165      0.00000
      7      14.0064      0.00000
      8      17.0401      0.00000
      9      17.4199      0.00000

 k-point    59 :      -0.3846    0.2308    0.0769
  band No.  band energies     occupation 
      1     -41.5848      1.00000
      2     -20.6008      1.00000
      3      -3.6163      1.00000
      4      -2.4583      1.00000
      5      -1.7793      0.99670
      6      10.5296      0.00000
      7      13.8826      0.00000
      8      17.1169      0.00000
      9      17.2602      0.00000

 k-point    60 :      -0.3077    0.2308    0.0769
  band No.  band energies     occupation 
      1     -41.5881      1.00000
      2     -20.6343      1.00000
      3      -3.4699      1.00000
      4      -2.4640      1.00000
      5      -1.7025      0.99528
      6      10.3855      0.00000
      7      13.9277      0.00000
      8      17.2904      0.00000
      9      17.3514      0.00000

 k-point    61 :      -0.2308    0.2308    0.0769
  band No.  band energies     occupation 
      1     -41.5956      1.00000
      2     -20.7048      1.00000
      3      -3.2050      1.00000
      4      -2.3559      1.00000
      5      -1.6080      1.01322
      6      10.0243      0.00000
      7      14.2813      0.00000
      8      17.5075      0.00000
      9      17.7063      0.00000

 k-point    62 :      -0.1538    0.2308    0.0769
  band No.  band energies     occupation 
      1     -41.6054      1.00000
      2     -20.7943      1.00000
      3      -2.9017      1.00000
      4      -2.1169      1.00000
      5      -1.5263      1.04854
      6       9.4633      0.00000
      7      15.0202      0.00000
      8      17.8563      0.00000
      9      18.1828      0.00000

 k-point    63 :       0.3846    0.3077    0.0769
  band No.  band energies     occupation 
      1     -41.5969      1.00000
      2     -20.6921      1.00000
      3      -3.2794      1.00000
      4      -2.1152      1.00000
      5      -1.9317      0.99980
      6      10.4880      0.00000
      7      15.2517      0.00000
      8      17.0783      0.00000
      9      18.2376      0.00000

 k-point    64 :       0.4615    0.3077    0.0769
  band No.  band energies     occupation 
      1     -41.5890      1.00000
      2     -20.6141      1.00000
      3      -3.5277      1.00000
      4      -2.3421      1.00000
      5      -1.9807      0.99995
      6      11.0778      0.00000
      7      14.4257      0.00000
      8      16.7472      0.00000
      9      17.9289      0.00000

 k-point    65 :      -0.4615    0.3077    0.0769
  band No.  band energies     occupation 
      1     -41.5832      1.00000
      2     -20.5592      1.00000
      3      -3.6350      1.00000
      4      -2.5898      1.00000
      5      -1.9886      0.99996
      6      11.4577      0.00000
      7      13.8507      0.00000
      8      16.6364      0.00000
      9      17.6385      0.00000

 k-point    66 :      -0.3846    0.3077    0.0769
  band No.  band energies     occupation 
      1     -41.5810      1.00000
      2     -20.5413      1.00000
      3      -3.5725      1.00000
      4      -2.8223      1.00000
      5      -1.9360      0.99982
      6      11.5369      0.00000
      7      13.5192      0.00000
      8      16.7704      0.00000
      9      17.4201      0.00000

 k-point    67 :      -0.3077    0.3077    0.0769
  band No.  band energies     occupation 
      1     -41.5827      1.00000
      2     -20.5653      1.00000
      3      -3.3728      1.00000
      4      -2.9594      1.00000
      5      -1.8351      0.99852
      6      11.2968      0.00000
      7      13.4349      0.00000
      8      17.0590      0.00000
      9      17.3192      0.00000

 k-point    68 :      -0.2308    0.3077    0.0769
  band No.  band energies     occupation 
      1     -41.5879      1.00000
      2     -20.6249      1.00000
      3      -3.2477      1.00000
      4      -2.7890      1.00000
      5      -1.7140      0.99508
      6      10.7418      0.00000
      7      13.7026      0.00000
      8      17.3512      0.00000
      9      17.3886      0.00000

 k-point    69 :       0.4615    0.3846    0.0769
  band No.  band energies     occupation 
      1     -41.5849      1.00000
      2     -20.5542      1.00000
      3      -3.7985      1.00000
      4      -2.3121      1.00000
      5      -2.1406      1.00000
      6      11.7630      0.00000
      7      14.6208      0.00000
      8      16.2572      0.00000
      9      18.0875      0.00000

 k-point    70 :      -0.4615    0.3846    0.0769
  band No.  band energies     occupation 
      1     -41.5803      1.00000
      2     -20.5075      1.00000
      3      -3.8732      1.00000
      4      -2.5422      1.00000
      5      -2.1489      1.00000
      6      12.2752      0.00000
      7      13.9792      0.00000
      8      16.0585      0.00000
      9      17.8459      0.00000

 k-point    71 :      -0.3846    0.3846    0.0769
  band No.  band energies     occupation 
      1     -41.5783      1.00000
      2     -20.4928      1.00000
      3      -3.7630      1.00000
      4      -2.8200      1.00000
      5      -2.0915      1.00000
      6      12.5469      0.00000
      7      13.3327      0.00000
      8      16.2209      0.00000
      9      17.6172      0.00000

 k-point    72 :      -0.3077    0.3846    0.0769
  band No.  band energies     occupation 
      1     -41.5791      1.00000
      2     -20.5139      1.00000
      3      -3.4872      1.00000
      4      -3.0737      1.00000
      5      -1.9775      0.99994
      6      12.1833      0.00000
      7      13.1228      0.00000
      8      16.6381      0.00000
      9      17.4328      0.00000

 k-point    73 :      -0.4615    0.4615    0.0769
  band No.  band energies     occupation 
      1     -41.5782      1.00000
      2     -20.4703      1.00000
      3      -4.1051      1.00000
      4      -2.4217      1.00000
      5      -2.2544      1.00000
      6      12.7499      0.00000
      7      14.2972      0.00000
      8      15.6129      0.00000
      9      18.0385      0.00000

 k-point    74 :      -0.3846    0.4615    0.0769
  band No.  band energies     occupation 
      1     -41.5773      1.00000
      2     -20.4669      1.00000
      3      -4.0047      1.00000
      4      -2.6141      1.00000
      5      -2.2070      1.00000
      6      12.9404      0.00000
      7      13.7302      0.00000
      8      15.6984      0.00000
      9      17.8256      0.00000

 k-point    75 :       0.4615    0.3077    0.1538
  band No.  band energies     occupation 
      1     -41.5930      1.00000
      2     -20.6675      1.00000
      3      -3.2864      1.00000
      4      -2.4021      1.00000
      5      -1.7836      0.99686
      6      10.5233      0.00000
      7      14.3359      0.00000
      8      17.1801      0.00000
      9      17.7969      0.00000

 k-point    76 :      -0.4615    0.3077    0.1538
  band No.  band energies     occupation 
      1     -41.5859      1.00000
      2     -20.5963      1.00000
      3      -3.4355      1.00000
      4      -2.6679      1.00000
      5      -1.8572      0.99901
      6      11.0743      0.00000
      7      13.8129      0.00000
      8      16.9478      0.00000
      9      17.4731      0.00000

 k-point    77 :      -0.3846    0.3077    0.1538
  band No.  band energies     occupation 
      1     -41.5819      1.00000
      2     -20.5554      1.00000
      3      -3.5127      1.00000
      4      -2.8146      1.00000
      5      -1.9077      0.99966
      6      11.3616      0.00000
      7      13.5994      0.00000
      8      16.8484      0.00000
      9      17.2576      0.00000

 k-point    78 :      -0.4615    0.3846    0.1538
  band No.  band energies     occupation 
      1     -41.5831      1.00000
      2     -20.5506      1.00000
      3      -3.6296      1.00000
      4      -2.6326      1.00000
      5      -2.0281      0.99999
      6      11.7445      0.00000
      7      13.8995      0.00000
      8      16.4150      0.00000
      9      17.6295      0.00000

 k-point    79 :      -0.3846    0.3846    0.1538
  band No.  band energies     occupation 
      1     -41.5794      1.00000
      2     -20.5115      1.00000
      3      -3.5965      1.00000
      4      -2.9124      1.00000
      5      -2.0548      0.99999
      6      12.2341      0.00000
      7      13.5019      0.00000
      8      16.2230      0.00000
      9      17.3848      0.00000

 k-point    80 :      -0.3077    0.3846    0.1538
  band No.  band energies     occupation 
      1     -41.5786      1.00000
      2     -20.5068      1.00000
      3      -3.4291      1.00000
      4      -3.1432      1.00000
      5      -2.0280      0.99999
      6      12.3157      0.00000
      7      13.2788      0.00000
      8      16.3294      0.00000
      9      17.2533      0.00000

 k-point    81 :      -0.2308    0.3846    0.1538
  band No.  band energies     occupation 
      1     -41.5810      1.00000
      2     -20.5377      1.00000
      3      -3.3722      1.00000
      4      -3.0604      1.00000
      5      -1.9515      0.99988
      6      11.8372      0.00000
      7      13.4020      0.00000
      8      16.6539      0.00000
      9      17.2723      0.00000

 k-point    82 :      -0.3846    0.4615    0.1538
  band No.  band energies     occupation 
      1     -41.5777      1.00000
      2     -20.4794      1.00000
      3      -3.8412      1.00000
      4      -2.7603      1.00000
      5      -2.1665      1.00000
      6      12.7837      0.00000
      7      13.6853      0.00000
      8      15.6772      0.00000
      9      17.5648      0.00000

 k-point    83 :      -0.3077    0.4615    0.1538
  band No.  band energies     occupation 
      1     -41.5770      1.00000
      2     -20.4792      1.00000
      3      -3.6559      1.00000
      4      -3.0064      1.00000
      5      -2.1256      1.00000
      6      13.0386      0.00000
      7      13.1989      0.00000
      8      15.7713      0.00000
      9      17.3669      0.00000

 k-point    84 :      -0.3077    0.4615    0.2308
  band No.  band energies     occupation 
      1     -41.5772      1.00000
      2     -20.4843      1.00000
      3      -3.4497      1.00000
      4      -3.2098      1.00000
      5      -2.1063      1.00000
      6      12.9048      0.00000
      7      13.2643      0.00000
      8      15.7561      0.00000
      9      17.2505      0.00000


--------------------------------------------------------------------------------------------------------


 soft charge-density along one line, spin component           1
         0         1         2         3         4         5         6         7         8         9
 total charge-density along one line
 
 soft charge-density along one line, spin component           2
         0         1         2         3         4         5         6         7         8         9
 total charge-density along one line
 
 pseudopotential strength for first ion, spin component:           1
-38.326   3.434  -0.000   0.000  -0.000
  3.434  -9.915  -0.000   0.000  -0.000
 -0.000  -0.000   0.088   0.000   0.000
  0.000   0.000   0.000   0.088   0.000
 -0.000  -0.000   0.000   0.000   0.088
 pseudopotential strength for first ion, spin component:           2
-38.326   3.434  -0.000   0.000  -0.000
  3.434  -9.915  -0.000   0.000  -0.000
 -0.000  -0.000   0.088   0.000   0.000
  0.000   0.000   0.000   0.088   0.000
 -0.000  -0.000   0.000   0.000   0.088
 total augmentation occupancy for first ion, spin component:           1
  2.003   0.020   0.000   0.000   0.000
  0.020   0.595   0.000   0.000   0.000
  0.000   0.000   0.023  -0.000   0.000
  0.000   0.000   0.000   0.023  -0.000
  0.000   0.000  -0.000   0.000   0.023
 total augmentation occupancy for first ion, spin component:           2
 -0.000  -0.000   0.000   0.000   0.000
 -0.000   0.000   0.000   0.000   0.000
  0.000   0.000   0.000   0.000   0.000
  0.000   0.000   0.000   0.000   0.000
  0.000   0.000   0.000   0.000   0.000


------------------------ aborting loop because EDIFF is reached ----------------------------------------


 


 total charge     
 
# of ion       s       p       d       tot
------------------------------------------
    1        2.015   0.049   0.000   2.064
    2        1.721   4.390   0.000   6.111
--------------------------------------------------
tot          3.735   4.439   0.000   8.174
 


 magnetization (x)
 
# of ion       s       p       d       tot
------------------------------------------
    1        0.000   0.000   0.000   0.000
    2       -0.000  -0.000   0.000  -0.000
--------------------------------------------------
tot         -0.000  -0.000   0.000  -0.000
 
    FORLOC:  cpu time    0.0043: real time    0.0043
    FORNL :  cpu time    0.9565: real time    0.9596
    STRESS:  cpu time    3.1362: real time    3.1643
    FORCOR:  cpu time    0.1138: real time    0.1160
    OFIELD:  cpu time    0.0003: real time    0.0003

  FORCE on cell =-STRESS in cart. coord.  units (eV):
  Direction    XX          YY          ZZ          XY          YZ          ZX
  --------------------------------------------------------------------------------------
  Alpha Z    19.24755    19.24755    19.24755
  Ewald    -183.19094  -183.19094  -183.19094     0.00000     0.00000    -0.00000
  Hartree    76.47229    76.47229    76.47229     0.00000     0.00000     0.00000
  E(xc)     -52.85192   -52.85192   -52.85192     0.00000     0.00000     0.00000
  Local     -41.94543   -41.94543   -41.94543    -0.00001    -0.00001    -0.00001
  n-local   -54.77026   -55.75626   -53.90933    -0.99312     0.93935    -0.58906
  augment    36.16414    36.16414    36.16414     0.00002     0.00002     0.00002
  Kinetic   200.82806   203.41629   197.12938     3.42100    -2.99220     1.89513
  Fock        0.00000     0.00000     0.00000     0.00000     0.00000     0.00000
  -------------------------------------------------------------------------------------
  Total      -0.45835    -0.45835    -0.45835    -0.00000    -0.00000     0.00000
  in kB     -43.14167   -43.14167   -43.14167    -0.00000    -0.00000     0.00000
  external pressure =      -43.14 kB  Pullay stress =        0.00 kB


 VOLUME and BASIS-vectors are now :
 -----------------------------------------------------------------------------
  energy-cutoff  :      680.00
  volume of cell :       17.02
      direct lattice vectors                 reciprocal lattice vectors
     0.000000000  2.041714000  2.041714000    -0.244892282  0.244892282  0.244892282
     2.041714000  0.000000000  2.041714000     0.244892282 -0.244892282  0.244892282
     2.041714000  2.041714000  0.000000000     0.244892282  0.244892282 -0.244892282

  length of vectors
     2.887419629  2.887419629  2.887419629     0.424165874  0.424165874  0.424165874


 FORCES acting on ions:
    Electron-Ion                     Ewald-Force                    Non-Local-Force
 -----------------------------------------------------------------------------------------------
   -.530E-14 -.277E-14 -.326E-14   -.146E-14 -.175E-14 0.580E-15   -.662E-23 0.662E-23 0.662E-23
   0.273E-11 0.238E-11 0.980E-12   0.991E-15 0.158E-14 -.576E-15   -.132E-22 0.132E-22 -.199E-22
 -----------------------------------------------------------------------------------------------
   0.272E-11 0.238E-11 0.977E-12   -.465E-15 -.168E-15 0.326E-17   -.199E-22 0.199E-22 -.132E-22
 
 
 POSITION                                       TOTAL-FORCE (eV/Angst)
 -----------------------------------------------------------------------------------
      0.00000      0.00000      0.00000        -0.000000     -0.000000     -0.000000
      2.04171      2.04171      2.04171         0.000000      0.000000      0.000000
 -----------------------------------------------------------------------------------
    total drift:                                0.000000      0.000000      0.000000


--------------------------------------------------------------------------------------------------------



  FREE ENERGIE OF THE ION-ELECTRON SYSTEM (eV)
  ---------------------------------------------------
  free  energy   TOTEN  =        -9.84759655 eV

  energy  without entropy=       -9.85053146  energy(sigma->0) =       -9.84833027
 


--------------------------------------------------------------------------------------------------------


    POTLOK:  cpu time    0.3657: real time    0.3695


--------------------------------------------------------------------------------------------------------


     LOOP+:  cpu time   44.7767: real time   45.5742
    4ORBIT:  cpu time    0.0001: real time    0.0006
 


 total charge     
 
# of ion       s       p       d       tot
------------------------------------------
    1        2.015   0.049   0.000   2.064
    2        1.721   4.390   0.000   6.111
--------------------------------------------------
tot          3.735   4.439   0.000   8.174
 


 magnetization (x)
 
# of ion       s       p       d       tot
------------------------------------------
    1        0.000   0.000   0.000   0.000
    2       -0.000  -0.000   0.000  -0.000
--------------------------------------------------
tot         -0.000  -0.000   0.000  -0.000
 

 total amount of memory used by VASP MPI-rank0   105204. kBytes
=======================================================================

   base      :      30000. kBytes
   nonlr-proj:        950. kBytes
   fftplans  :       6192. kBytes
   grid      :      16231. kBytes
   one-center:         12. kBytes
   wavefun   :      51819. kBytes
 
  
  
 General timing and accounting informations for this job:
 ========================================================
  
                  Total CPU time used (sec):       48.333
                            User time (sec):       47.110
                          System time (sec):        1.224
                         Elapsed time (sec):       49.361
  
                   Maximum memory used (kb):   122904576.
                   Average memory used (kb):           0.
  
                          Minor page faults:       142370
                          Major page faults:         1856
                 Voluntary context switches:           22
