Running Job 1 of 3 julian.qin
qchem julian.qin_52393.0 /tmp/qchem52393/ 1
srun -n 1 /global/common/cori/software/qchem/5.1beta/exe/qcprog.exe julian.qin_52393.0 /tmp/qchem52393/

Process 0 of 1 is on nid00488 - thread support 0
initial socket setup ...start
initial socket setup ...done 
now start server 0 ... 
Check license passed

                  Welcome to Q-Chem
     A Quantum Leap Into The Future Of Chemistry


 Q-Chem 5.1, Q-Chem, Inc., Pleasanton, CA (2018)

 Yihan Shao,  Zhengting Gan,  E. Epifanovsky,  A. T. B. Gilbert,  M. Wormit,  
 J. Kussmann,  A. W. Lange,  A. Behn,  Jia Deng,  Xintian Feng,  D. Ghosh,  
 M. Goldey,  P. R. Horn,  L. D. Jacobson,  I. Kaliman,  T. Kus,  A. Landau,  
 Jie Liu,  E. I. Proynov,  R. M. Richard,  R. P. Steele,  E. J. Sundstrom,  
 H. L. Woodcock III,  P. M. Zimmerman,  D. Zuev,  B. Albrecht,  E. Alguire,  
 S. A. Baeppler,  D. Barton,  Z. Benda,  Y. A. Bernard,  E. J. Berquist,  
 K. B. Bravaya,  H. Burton,  D. Casanova,  Chun-Min Chang,  Yunqing Chen,  
 A. Chien,  K. D. Closser,  M. P. Coons,  S. Coriani,  S. Dasgupta,  
 A. L. Dempwolff,  M. Diedenhofen,  Hainam Do,  R. G. Edgar,  Po-Tung Fang,  
 S. Faraji,  S. Fatehi,  Qingguo Feng,  K. D. Fenk,  J. Fosso-Tande,  
 Qinghui Ge,  A. Ghysels,  G. Gidofalvi,  J. Gomes,  J. Gonthier,  A. Gunina,  
 M. W. D. Hanson-Heine,  P. H. P. Harbach,  A. W. Hauser,  J. E. Herr,  
 E. G. Hohenstein,  Z. C. Holden,  Kerwin Hui,  T.-C. Jagau,  Hyunjun Ji,  
 B. Kaduk,  K. Khistyaev,  Jaehoon Kim,  P. Klunzinger,  K. Koh,  
 D. Kosenkov,  L. Koulias,  T. Kowalczyk,  C. M. Krauter,  A. Kunitsa,  
 Ka Un Lao,  A. Laurent,  K. V. Lawler,  Joonho Lee,  D. Lefrancois,  
 S. Lehtola,  D. S. Levine,  Yi-Pei Li,  You-Sheng Lin,  Fenglai Liu,  
 E. Livshits,  A. Luenser,  P. Manohar,  E. Mansoor,  S. F. Manzer,  
 Shan-Ping Mao,  Yuezhi Mao,  N. Mardirossian,  A. V. Marenich,  
 T. Markovich,  L. A. Martinez-Martinez,  S. A. Maurer,  N. J. Mayhall,  
 S. C. McKenzie,  J.-M. Mewes,  A. F. Morrison,  J. W. Mullinax,  K. Nanda,  
 T. S. Nguyen-Beck,  R. Olivares-Amaya,  J. A. Parkhill,  T. M. Perrine,  
 F. Plasser,  P. Pokhilko,  S. Prager,  A. Prociuk,  E. Ramos,  D. R. Rehn,  
 F. Rob,  M. Schneider,  N. Sergueev,  S. M. Sharada,  S. Sharma,  
 D. W. Small,  T. Stauch,  T. Stein,  Yu-Chuan Su,  A. J. W. Thom,  
 A. Tkatchenko,  T. Tsuchimochi,  N. M. Tubman,  L. Vogt,  M. L. Vidal,  
 O. Vydrov,  M. A. Watson,  J. Wenzel,  M. de Wergifosse,  T. A. Wesolowski,  
 A. White,  J. Witte,  A. Yamada,  Jun Yang,  K. Yao,  S. Yeganeh,  
 S. R. Yost,  Zhi-Qiang You,  A. Zech,  Igor Ying Zhang,  Xing Zhang,  
 Yan Zhao,  Ying Zhu,  B. R. Brooks,  G. K. L. Chan,  C. J. Cramer,  
 M. S. Gordon,  W. J. Hehre,  A. Klamt,  M. W. Schmidt,  C. D. Sherrill,  
 D. G. Truhlar,  A. Aspuru-Guzik,  R. Baer,  A. T. Bell,  N. A. Besley,  
 Jeng-Da Chai,  R. A. DiStasio Jr.,  A. Dreuw,  B. D. Dunietz,  
 T. R. Furlani,  Chao-Ping Hsu,  Yousung Jung,  Jing Kong,  D. S. Lambrecht,  
 WanZhen Liang,  C. Ochsenfeld,  V. A. Rassolov,  L. V. Slipchenko,  
 J. E. Subotnik,  T. Van Voorhis,  J. M. Herbert,  A. I. Krylov,  
 P. M. W. Gill,  M. Head-Gordon

 Contributors to earlier versions of Q-Chem not listed above: 
 R. D. Adamson,  B. Austin,  J. Baker,  G. J. O. Beran,  K. Brandhorst,  
 S. T. Brown,  E. F. C. Byrd,  A. K. Chakraborty,  C.-L. Cheng,  
 Siu Hung Chien,  D. M. Chipman,  D. L. Crittenden,  H. Dachsel,  
 R. J. Doerksen,  A. D. Dutoi,  L. Fusti-Molnar,  W. A. Goddard III,  
 A. Golubeva-Zadorozhnaya,  S. R. Gwaltney,  G. Hawkins,  A. Heyden,  
 S. Hirata,  G. Kedziora,  F. J. Keil,  C. Kelley,  Jihan Kim,  R. A. King,  
 R. Z. Khaliullin,  P. P. Korambath,  W. Kurlancheek,  A. M. Lee,  M. S. Lee,  
 S. V. Levchenko,  Ching Yeh Lin,  D. Liotard,  R. C. Lochan,  I. Lotan,  
 P. E. Maslen,  N. Nair,  D. P. O'Neill,  D. Neuhauser,  E. Neuscamman,  
 C. M. Oana,  R. Olson,  B. Peters,  R. Peverati,  P. A. Pieniazek,  
 Y. M. Rhee,  J. Ritchie,  M. A. Rohrdanz,  E. Rosta,  N. J. Russ,  
 H. F. Schaefer III,  N. E. Schultz,  N. Shenvi,  A. C. Simmonett,  A. Sodt,  
 D. Stuck,  K. S. Thanthiriwatte,  V. Vanovschi,  Tao Wang,  A. Warshel,  
 C. F. Williams,  Q. Wu,  X. Xu,  W. Zhang

 Please cite Q-Chem as follows:
 Y. Shao et al., Mol. Phys. 113, 184-215 (2015)
 DOI: 10.1080/00268976.2014.952696

 Q-Chem 5.1.0 for Intel X86 EM64T Linux

 Parts of Q-Chem use Armadillo 8.300.2 (Tropical Shenanigans).
 http://arma.sourceforge.net/

 Q-Chem begins on Thu Apr  5 12:34:35 2018  

Host: cori11
0

     Scratch files written to /tmp/qchem52393//
 Mar1918  _RNUM -1
 Parallel job on  1  processors
Processing $rem in /global/common/cori/software/qchem/5.1beta/config/preferences.
 MEM_TOTAL  2000 

Checking the input file for inconsistencies... 	...done.
[HyperChem begin]
[HyperChem end]
[HyperChem begin]
[HyperChem end]
[HyperChem begin]
[HyperChem end]
[HyperChem begin]
[HyperChem end]
[HyperChem begin]
[HyperChem end]
[HyperChem begin]
[HyperChem end]
[HyperChem begin]
[HyperChem end]
[HyperChem begin]
[HyperChem end]

--------------------------------------------------------------
User input:
--------------------------------------------------------------
$molecule
0 2
O    0.8010000    0.1690000   -0.0030000
C    1.0790000   -1.1530000   -0.0060000
C   -0.5330000    0.2830000    0.0020000
O    2.2120000   -1.6520000   -0.0110000
O   -0.0850000   -1.8400000   -0.0040000
C   -1.0690000   -0.9320000    0.0010000
Li    4.0510000   -2.4620000   -0.0180000
H   -0.9340000    1.2920000    0.0050000
H   -2.0840000   -1.3170000    0.0040000
$end

$rem
BASIS  =  6-311++G**
SYM_IGNORE = true
GUI  =  1
METHOD  =  wb97xd
JOB_TYPE  =  Optimization
gen_scfman = True
$end

--------------------------------------------------------------
 ----------------------------------------------------------------
             Standard Nuclear Orientation (Angstroms)
    I     Atom           X                Y                Z
 ----------------------------------------------------------------
    1      O       0.8010000000     0.1690000000    -0.0030000000
    2      C       1.0790000000    -1.1530000000    -0.0060000000
    3      C      -0.5330000000     0.2830000000     0.0020000000
    4      O       2.2120000000    -1.6520000000    -0.0110000000
    5      O      -0.0850000000    -1.8400000000    -0.0040000000
    6      C      -1.0690000000    -0.9320000000     0.0010000000
    7      Li      4.0510000000    -2.4620000000    -0.0180000000
    8      H      -0.9340000000     1.2920000000     0.0050000000
    9      H      -2.0840000000    -1.3170000000     0.0040000000
 ----------------------------------------------------------------
 Nuclear Repulsion Energy =   250.3623131857 hartrees
 There are       24 alpha and       23 beta electrons
[HyperChem begin]
[HyperChem end]
[HyperChem begin]
;Nuclear Cartesian coordinates in Angstroms
[coordinates]
      0.801000000000      0.169000000000     -0.003000000000
      1.079000000000     -1.153000000000     -0.006000000000
     -0.533000000000      0.283000000000      0.002000000000
      2.212000000000     -1.652000000000     -0.011000000000
     -0.085000000000     -1.840000000000     -0.004000000000
     -1.069000000000     -0.932000000000      0.001000000000
      4.051000000000     -2.462000000000     -0.018000000000
     -0.934000000000      1.292000000000      0.005000000000
     -2.084000000000     -1.317000000000      0.004000000000
[HyperChem end]
[HyperChem begin]
[HyperChem end]
 Requested basis set is 6-311++G(d,p)
[HyperChem begin]
[basis]
;
1:
;
Shells = 6
Shell1 =[ S   6   1.00 ]
   1    8.588500E+03    1.895150E-03
   2    1.297230E+03    1.438590E-02
   3    2.992960E+02    7.073200E-02
   4    8.737710E+01    2.400010E-01
   5    2.567890E+01    5.947970E-01
   6    3.740040E+00    2.808020E-01
Shell2 =[ SP  3   1.00 ]
   1    4.211750E+01    1.138890E-01    3.651140E-02
   2    9.628370E+00    9.208110E-01    2.371530E-01
   3    2.853320E+00   -3.274470E-03    8.197020E-01
Shell3 =[ SP  1   1.00 ]
   1    9.056610E-01    1.000000E+00    1.000000E+00
Shell4 =[ SP  1   1.00 ]
   1    2.556110E-01    1.000000E+00    1.000000E+00
Shell5 =[ SP  1   1.00 ]
   1    8.450000E-02    1.000000E+00    1.000000E+00
Shell6 =[ D   1   1.00 ]
   1    1.292000E+00    1.000000E+00
;
2:
;
Shells = 6
Shell1 =[ S   6   1.00 ]
   1    4.563240E+03    1.966650E-03
   2    6.820240E+02    1.523060E-02
   3    1.549730E+02    7.612690E-02
   4    4.445530E+01    2.608010E-01
   5    1.302900E+01    6.164620E-01
   6    1.827730E+00    2.210060E-01
Shell2 =[ SP  3   1.00 ]
   1    2.096420E+01    1.146600E-01    4.024870E-02
   2    4.803310E+00    9.199990E-01    2.375940E-01
   3    1.459330E+00   -3.030680E-03    8.158540E-01
Shell3 =[ SP  1   1.00 ]
   1    4.834560E-01    1.000000E+00    1.000000E+00
Shell4 =[ SP  1   1.00 ]
   1    1.455850E-01    1.000000E+00    1.000000E+00
Shell5 =[ SP  1   1.00 ]
   1    4.380000E-02    1.000000E+00    1.000000E+00
Shell6 =[ D   1   1.00 ]
   1    6.260000E-01    1.000000E+00
;
3:
;
Shells = 6
Shell1 =[ S   6   1.00 ]
   1    4.563240E+03    1.966650E-03
   2    6.820240E+02    1.523060E-02
   3    1.549730E+02    7.612690E-02
   4    4.445530E+01    2.608010E-01
   5    1.302900E+01    6.164620E-01
   6    1.827730E+00    2.210060E-01
Shell2 =[ SP  3   1.00 ]
   1    2.096420E+01    1.146600E-01    4.024870E-02
   2    4.803310E+00    9.199990E-01    2.375940E-01
   3    1.459330E+00   -3.030680E-03    8.158540E-01
Shell3 =[ SP  1   1.00 ]
   1    4.834560E-01    1.000000E+00    1.000000E+00
Shell4 =[ SP  1   1.00 ]
   1    1.455850E-01    1.000000E+00    1.000000E+00
Shell5 =[ SP  1   1.00 ]
   1    4.380000E-02    1.000000E+00    1.000000E+00
Shell6 =[ D   1   1.00 ]
   1    6.260000E-01    1.000000E+00
;
4:
;
Shells = 6
Shell1 =[ S   6   1.00 ]
   1    8.588500E+03    1.895150E-03
   2    1.297230E+03    1.438590E-02
   3    2.992960E+02    7.073200E-02
   4    8.737710E+01    2.400010E-01
   5    2.567890E+01    5.947970E-01
   6    3.740040E+00    2.808020E-01
Shell2 =[ SP  3   1.00 ]
   1    4.211750E+01    1.138890E-01    3.651140E-02
   2    9.628370E+00    9.208110E-01    2.371530E-01
   3    2.853320E+00   -3.274470E-03    8.197020E-01
Shell3 =[ SP  1   1.00 ]
   1    9.056610E-01    1.000000E+00    1.000000E+00
Shell4 =[ SP  1   1.00 ]
   1    2.556110E-01    1.000000E+00    1.000000E+00
Shell5 =[ SP  1   1.00 ]
   1    8.450000E-02    1.000000E+00    1.000000E+00
Shell6 =[ D   1   1.00 ]
   1    1.292000E+00    1.000000E+00
;
5:
;
Shells = 6
Shell1 =[ S   6   1.00 ]
   1    8.588500E+03    1.895150E-03
   2    1.297230E+03    1.438590E-02
   3    2.992960E+02    7.073200E-02
   4    8.737710E+01    2.400010E-01
   5    2.567890E+01    5.947970E-01
   6    3.740040E+00    2.808020E-01
Shell2 =[ SP  3   1.00 ]
   1    4.211750E+01    1.138890E-01    3.651140E-02
   2    9.628370E+00    9.208110E-01    2.371530E-01
   3    2.853320E+00   -3.274470E-03    8.197020E-01
Shell3 =[ SP  1   1.00 ]
   1    9.056610E-01    1.000000E+00    1.000000E+00
Shell4 =[ SP  1   1.00 ]
   1    2.556110E-01    1.000000E+00    1.000000E+00
Shell5 =[ SP  1   1.00 ]
   1    8.450000E-02    1.000000E+00    1.000000E+00
Shell6 =[ D   1   1.00 ]
   1    1.292000E+00    1.000000E+00
;
6:
;
Shells = 6
Shell1 =[ S   6   1.00 ]
   1    4.563240E+03    1.966650E-03
   2    6.820240E+02    1.523060E-02
   3    1.549730E+02    7.612690E-02
   4    4.445530E+01    2.608010E-01
   5    1.302900E+01    6.164620E-01
   6    1.827730E+00    2.210060E-01
Shell2 =[ SP  3   1.00 ]
   1    2.096420E+01    1.146600E-01    4.024870E-02
   2    4.803310E+00    9.199990E-01    2.375940E-01
   3    1.459330E+00   -3.030680E-03    8.158540E-01
Shell3 =[ SP  1   1.00 ]
   1    4.834560E-01    1.000000E+00    1.000000E+00
Shell4 =[ SP  1   1.00 ]
   1    1.455850E-01    1.000000E+00    1.000000E+00
Shell5 =[ SP  1   1.00 ]
   1    4.380000E-02    1.000000E+00    1.000000E+00
Shell6 =[ D   1   1.00 ]
   1    6.260000E-01    1.000000E+00
;
7:
;
Shells = 6
Shell1 =[ S   6   1.00 ]
   1    9.004600E+02    2.287040E-03
   2    1.344330E+02    1.763500E-02
   3    3.043650E+01    8.734340E-02
   4    8.626390E+00    2.809770E-01
   5    2.483320E+00    6.587410E-01
   6    3.031790E-01    1.187120E-01
Shell2 =[ SP  3   1.00 ]
   1    4.868900E+00    9.332930E-02    3.276610E-02
   2    8.569240E-01    9.430450E-01    1.597920E-01
   3    2.432270E-01   -2.798270E-03    8.856670E-01
Shell3 =[ SP  1   1.00 ]
   1    6.350700E-02    1.000000E+00    1.000000E+00
Shell4 =[ SP  1   1.00 ]
   1    2.436830E-02    1.000000E+00    1.000000E+00
Shell5 =[ SP  1   1.00 ]
   1    7.400000E-03    1.000000E+00    1.000000E+00
Shell6 =[ D   1   1.00 ]
   1    2.000000E-01    1.000000E+00
;
8:
;
Shells = 5
Shell1 =[ S   3   1.00 ]
   1    3.386500E+01    2.549380E-02
   2    5.094790E+00    1.903730E-01
   3    1.158790E+00    8.521610E-01
Shell2 =[ S   1   1.00 ]
   1    3.258400E-01    1.000000E+00
Shell3 =[ S   1   1.00 ]
   1    1.027410E-01    1.000000E+00
Shell4 =[ S   1   1.00 ]
   1    3.600000E-02    1.000000E+00
Shell5 =[ P   1   1.00 ]
   1    7.500000E-01    1.000000E+00
;
9:
;
Shells = 5
Shell1 =[ S   3   1.00 ]
   1    3.386500E+01    2.549380E-02
   2    5.094790E+00    1.903730E-01
   3    1.158790E+00    8.521610E-01
Shell2 =[ S   1   1.00 ]
   1    3.258400E-01    1.000000E+00
Shell3 =[ S   1   1.00 ]
   1    1.027410E-01    1.000000E+00
Shell4 =[ S   1   1.00 ]
   1    3.600000E-02    1.000000E+00
Shell5 =[ P   1   1.00 ]
   1    7.500000E-01    1.000000E+00
[HyperChem end]
 There are 52 shells and 168 basis functions

 Total QAlloc Memory Limit   2000 MB
 Mega-Array Size       188 MB
 MEM_STATIC part       192 MB
 A cutoff of  1.0D-11 yielded   1317 shell pairs
 There are     14119 function pairs (     15338 Cartesian)
 
 -------------------------------------------------------
 OpenMP Integral Computing Module                       
 Release: version 1.0, May 2013, Q-Chem Inc. Pittsburgh 
 -------------------------------------------------------
 Integral Job Info:
 Integral job number is                      11
 Integral operator is                         1
 short-range coefficients              22203600
 long-range coefficients              100000000
 Omega coefficients                         200
 if combine SR and LR in K                    1
 Integral screening is                        0
 Integral computing path is                   2
 max size of driver memory is            800000
 size of driver memory is                593474
 size of scratch memory is              2428936
 max col of scratch BK array               1296
 max len of scratch array in speh3          155
 max len of scratch index in speh4           18
 max int batch size is                      520
 min int batch size is                       52
 fixed nKL is                                52
 max L of basis functions is                  2
 order of int derivative is                   0
 number of shells is                         52
 number of basis is                         175
 number of cartesian basis is               175
 number of contracted shell pairs          1317
 number of primitive shell pairs           3878
 maxK2 (contraction) of shell pair           36
 max number of K2 of shell pair               1
 max number of CS2 of shell pair            240
 max number of PS2 of shell pair            870
 mem total for path MDJ                  537338
 -------------------------------------------------------
 Smallest overlap matrix eigenvalue = 2.97E-05

 Scale SEOQF with 1.000000e-02/1.000000e-02/1.000000e-02

 Standard Electronic Orientation quadrupole field applied
 Nucleus-field energy     =     0.0000000010 hartrees
 Guess from superposition of atomic densities
 Warning:  Energy on first SCF cycle will be non-variational
 SAD guess density has 47.000000 electrons

 -----------------------------------------------------------------------
  General SCF calculation program by
  Eric Jon Sundstrom, Paul Horn, Yuezhi Mao, Dmitri Zuev, Alec White,
  David Stuck, Shaama M.S., Shane Yost, Joonho Lee, David Small,
  Daniel Levine, Susi Lehtola, Hugh Burton, Evgeny Epifanovsky
 -----------------------------------------------------------------------
 Exchange:     0.2220 Hartree-Fock + 1.0000 wB97X-D + LR-HF
 Correlation:  1.0000 wB97X-D
 Using SG-2 standard quadrature grid
 Dispersion:   Grimme D
 using 12 threads for integral computing
 -------------------------------------------------------
 OpenMP Integral computing Module                
 Release: version 1.0, May 2013, Q-Chem Inc. Pittsburgh 
 -------------------------------------------------------
 using 12 threads for integral computing
 -------------------------------------------------------
 OpenMP Integral computing Module                
 Release: version 1.0, May 2013, Q-Chem Inc. Pittsburgh 
 -------------------------------------------------------
 -------------------------------------------------------
 OpenMP BLAS3 based DFT computing Module                
 Release: version 1.0, May 2013, Q-Chem Inc. Pittsburgh 
 -------------------------------------------------------
 A unrestricted SCF calculation will be
 performed using DIIS
 SCF converges when DIIS error is below 1.0e-08
 ---------------------------------------
  Cycle       Energy         DIIS error
 ---------------------------------------
    1    -350.2614114397      2.56e-02  
    2    -348.4855952111      3.76e-03  
    3    -348.3658637364      5.40e-03  
    4    -348.6422217558      5.71e-04  
    5    -348.6451310916      2.88e-04  
    6    -348.6461584912      4.90e-05  
    7    -348.6463226428      2.38e-05  
    8    -348.6463735274      1.24e-05  
    9    -348.6463932676      2.79e-06  
   10    -348.6463943963      7.30e-07  
   11    -348.6463944362      5.08e-07  
   12    -348.6463944436      2.49e-07  
   13    -348.6463944481      1.41e-07  
   14    -348.6463944495      7.41e-08  
   15    -348.6463944505      2.88e-08  
   16    -348.6463944506      1.81e-08  
   17    -348.6463944506      8.03e-09  Convergence criterion met
 ---------------------------------------
 SCF time:   CPU 119.82s  wall 11.00s 
 SCF   energy in the final basis set =     -348.6463944506
<S^2> =          0.750185260
 
 --------------------------------------------------------------
 
                    Orbital Energies (a.u.)
 --------------------------------------------------------------
 
 Alpha MOs
 -- Occupied --
-19.395 -19.395 -19.302 -10.540 -10.409 -10.408  -2.078  -1.371
 -1.252  -1.200  -0.941  -0.833  -0.804  -0.702  -0.679  -0.631
 -0.619  -0.564  -0.556  -0.550  -0.513  -0.455  -0.379  -0.141
 -- Virtual --
  0.009   0.017   0.017   0.026   0.030   0.031   0.035   0.042
  0.057   0.058   0.060   0.087   0.088   0.104   0.109   0.131
  0.134   0.138   0.148   0.150   0.159   0.169   0.169   0.172
  0.188   0.190   0.198   0.218   0.247   0.259   0.292   0.301
  0.303   0.307   0.309   0.343   0.348   0.358   0.360   0.367
  0.386   0.412   0.416   0.450   0.461   0.504   0.505   0.543
  0.555   0.560   0.565   0.570   0.584   0.603   0.607   0.622
  0.665   0.712   0.721   0.736   0.767   0.812   0.824   0.845
  0.879   0.899   0.934   0.966   1.037   1.042   1.076   1.087
  1.169   1.175   1.196   1.206   1.223   1.233   1.294   1.308
  1.329   1.378   1.452   1.489   1.524   1.641   1.704   1.746
  1.754   1.762   1.776   1.785   1.810   1.884   1.906   1.973
  2.091   2.149   2.168   2.435   2.552   2.571   2.685   2.738
  2.742   2.764   2.816   2.846   2.894   2.968   3.043   3.109
  3.145   3.147   3.157   3.208   3.270   3.376   3.417   3.436
  3.561   3.616   3.654   3.896   4.003   4.008   4.094   4.224
  4.226   4.994   4.998   5.096   5.199   5.327   5.524   5.568
  5.936   6.017  23.787  23.829  24.345  49.894  50.001  50.094
 
 Beta MOs
 -- Occupied --
-19.395 -19.395 -19.302 -10.540 -10.409 -10.408  -2.075  -1.371
 -1.252  -1.200  -0.941  -0.833  -0.804  -0.702  -0.679  -0.631
 -0.618  -0.564  -0.556  -0.550  -0.513  -0.455  -0.379
 -- Virtual --
  0.013   0.028   0.031   0.034   0.039   0.041   0.051   0.063
  0.072   0.091   0.100   0.112   0.132   0.134   0.137   0.140
  0.148   0.162   0.186   0.188   0.202   0.212   0.213   0.242
  0.249   0.259   0.261   0.274   0.279   0.280   0.293   0.305
  0.311   0.318   0.330   0.358   0.371   0.383   0.384   0.417
  0.418   0.440   0.442   0.455   0.485   0.504   0.541   0.557
  0.572   0.594   0.607   0.619   0.640   0.670   0.673   0.717
  0.721   0.737   0.770   0.778   0.799   0.812   0.847   0.849
  0.875   0.942   0.966   0.967   0.985   1.051   1.077   1.088
  1.091   1.170   1.185   1.201   1.209   1.224   1.238   1.295
  1.321   1.330   1.387   1.452   1.509   1.546   1.648   1.705
  1.747   1.755   1.766   1.776   1.785   1.816   1.885   1.907
  1.975   2.092   2.149   2.168   2.435   2.553   2.571   2.686
  2.738   2.742   2.764   2.816   2.846   2.894   2.968   3.043
  3.109   3.145   3.147   3.158   3.208   3.270   3.377   3.417
  3.437   3.563   3.618   3.655   3.906   4.004   4.008   4.094
  4.225   4.228   4.994   4.998   5.097   5.200   5.327   5.524
  5.568   5.937   6.017  23.787  23.829  24.345  49.894  50.001
 50.095
 --------------------------------------------------------------
 
          Ground-State Mulliken Net Atomic Charges

     Atom                 Charge (a.u.)    Spin (a.u.)
  --------------------------------------------------------
      1 O                    -0.011100      -0.008284
      2 C                     0.233408      -0.010452
      3 C                    -0.126777       0.003917
      4 O                    -0.313357      -0.061921
      5 O                    -0.011580      -0.008205
      6 C                    -0.127119       0.004140
      7 Li                   -0.134544       1.079103
      8 H                     0.245415       0.000848
      9 H                     0.245654       0.000854
  --------------------------------------------------------
  Sum of atomic charges =     0.000000
  Sum of spin   charges =     1.000000

 -----------------------------------------------------------------
                    Cartesian Multipole Moments
 -----------------------------------------------------------------
    Charge (ESU x 10^10)
                 0.0000
    Dipole Moment (Debye)
         X      -9.8906      Y       4.3538      Z       0.0404
       Tot      10.8066
    Quadrupole Moments (Debye-Ang)
        XX     -83.0689     XY      24.7393     YY     -55.9168
        XZ       0.1751     YZ      -0.1043     ZZ     -43.4778
    Octopole Moments (Debye-Ang^2)
       XXX    -415.3877    XXY     178.7444    XYY    -138.1652
       YYY     216.1444    XXZ       1.3175    XYZ      -0.5472
       YYZ       0.6655    XZZ     -58.6364    YZZ      55.2806
       ZZZ       0.9403
    Hexadecapole Moments (Debye-Ang^3)
      XXXX   -2871.6716   XXXY    1123.2841   XXYY    -798.4275
      XYYY     676.8667   YYYY    -985.4454   XXXZ       8.4140
      XXYZ      -3.5784   XYYZ       2.7781   YYYZ      -3.2119
      XXZZ    -310.6501   XYZZ     152.4255   YYZZ    -159.2921
      XZZZ       3.5695   YZZZ      -2.2424   ZZZZ    -104.9371
 -----------------------------------------------------------------
[HyperChem begin]
;Total dipole moment in Debye
[dipole-moment]
     10.806580134865
;Dipole moment components in Debye
[dipole-moment-components]
     -9.890634477477      4.353836060865      0.040440070701
[HyperChem end]
[HyperChem begin]
[HyperChem end]
[HyperChem begin]
[HyperChem end]
[HyperChem begin]
[HyperChem end]
 Calculating analytic gradient of the SCF energy
 Gradient of SCF Energy
            1           2           3           4           5           6
    1  -0.0316913  -0.0531349   0.0330322   0.0574358  -0.0363338   0.0333422
    2   0.0197963   0.0235552  -0.0154259  -0.0251720   0.0099658  -0.0141470
    3   0.0000477   0.0004077  -0.0000555  -0.0003003   0.0000872  -0.0002003
            7           8           9
    1   0.0030245   0.0001781  -0.0058529
    2  -0.0013305   0.0081910  -0.0054328
    3  -0.0000107  -0.0000031   0.0000273
 Max gradient component =       5.744E-02
 RMS gradient           =       2.187E-02
[HyperChem begin]
[HyperChem end]
 Gradient time:  CPU 21.83 s  wall 3.28 s
 Geometry Optimization Parameters
   NAtoms,    NIC,     NZ,  NCons,   NDum,   NFix, NCnnct, MaxDiis
        9      53       0       0       0       0       0       0


** GEOMETRY OPTIMIZATION IN DELOCALIZED INTERNAL COORDINATES **
   Searching for a Minimum

   Optimization Cycle:   1

                       Coordinates (Angstroms)
     ATOM                X               Y               Z
      1  O         0.8010000000    0.1690000000   -0.0030000000
      2  C         1.0790000000   -1.1530000000   -0.0060000000
      3  C        -0.5330000000    0.2830000000    0.0020000000
      4  O         2.2120000000   -1.6520000000   -0.0110000000
      5  O        -0.0850000000   -1.8400000000   -0.0040000000
      6  C        -1.0690000000   -0.9320000000    0.0010000000
      7  Li        4.0510000000   -2.4620000000   -0.0180000000
      8  H        -0.9340000000    1.2920000000    0.0050000000
      9  H        -2.0840000000   -1.3170000000    0.0040000000
   Point Group: c1    Number of degrees of freedom:    21


   Energy is   -348.646394451


 Attempting to Generate Delocalized Internal Coordinates

 21 Hessian modes will be used to form the next step
  Hessian Eigenvalues:
     0.022092    0.022785    0.027055    0.029135    0.030606    0.086894
     0.160000    0.160000    0.200000    0.200000    0.225787    0.247149
     0.250000    0.353064    0.353298    0.483581    0.504322    0.557285
     0.570156    0.586366    0.878215

 Minimum Search - Taking Simple RFO Step
 Searching for Lamda that Minimizes Along All modes
 Value Taken    Lamda =  -0.01019371
 Step Taken.  Stepsize is  0.133666

                             Maximum     Tolerance    Cnvgd?
         Gradient           0.053319      0.000300      NO
         Displacement       0.074530      0.001200      NO
         Energy change     *********      0.000001      NO


 New Cartesian Coordinates Obtained by Inverse Iteration

 Displacement from previous Coordinates is:  0.125973
 ----------------------------------------------------------------
             Standard Nuclear Orientation (Angstroms)
    I     Atom           X                Y                Z
 ----------------------------------------------------------------
    1      O       0.8210179577     0.1481736438    -0.0029975267
    2      C       1.1022992826    -1.1624515335    -0.0073707073
    3      C      -0.5409774542     0.2862537445     0.0019518992
    4      O       2.1990306451    -1.6462526503    -0.0113889553
    5      O      -0.0546457768    -1.8398383402    -0.0043335698
    6      C      -1.0757984647    -0.9281453636     0.0012220939
    7      Li      4.0208680431    -2.4505480659    -0.0169645428
    8      H      -0.9494305540     1.2803887170     0.0053697115
    9      H      -2.0843636788    -1.2995801517     0.0045115974
 ----------------------------------------------------------------
 Nuclear Repulsion Energy =   251.0995611505 hartrees
 There are       24 alpha and       23 beta electrons
[HyperChem begin]
;Nuclear Cartesian coordinates in Angstroms
[coordinates]
      0.821017957721      0.148173643791     -0.002997526721
      1.102299282638     -1.162451533472     -0.007370707322
     -0.540977454207      0.286253744509      0.001951899209
      2.199030645117     -1.646252650273     -0.011388955339
     -0.054645776771     -1.839838340224     -0.004333569827
     -1.075798464734     -0.928145363645      0.001222093917
      4.020868043051     -2.450548065902     -0.016964542826
     -0.949430554037      1.280388716961      0.005369711504
     -2.084363678778     -1.299580151745      0.004511597406
[HyperChem end]
 Nucleus-field energy     =     0.0000000010 hartrees
 Requested basis set is 6-311++G(d,p)
[HyperChem begin]
[basis]
;
1:
;
Shells = 6
Shell1 =[ S   6   1.00 ]
   1    8.588500E+03    1.895150E-03
   2    1.297230E+03    1.438590E-02
   3    2.992960E+02    7.073200E-02
   4    8.737710E+01    2.400010E-01
   5    2.567890E+01    5.947970E-01
   6    3.740040E+00    2.808020E-01
Shell2 =[ SP  3   1.00 ]
   1    4.211750E+01    1.138890E-01    3.651140E-02
   2    9.628370E+00    9.208110E-01    2.371530E-01
   3    2.853320E+00   -3.274470E-03    8.197020E-01
Shell3 =[ SP  1   1.00 ]
   1    9.056610E-01    1.000000E+00    1.000000E+00
Shell4 =[ SP  1   1.00 ]
   1    2.556110E-01    1.000000E+00    1.000000E+00
Shell5 =[ SP  1   1.00 ]
   1    8.450000E-02    1.000000E+00    1.000000E+00
Shell6 =[ D   1   1.00 ]
   1    1.292000E+00    1.000000E+00
;
2:
;
Shells = 6
Shell1 =[ S   6   1.00 ]
   1    4.563240E+03    1.966650E-03
   2    6.820240E+02    1.523060E-02
   3    1.549730E+02    7.612690E-02
   4    4.445530E+01    2.608010E-01
   5    1.302900E+01    6.164620E-01
   6    1.827730E+00    2.210060E-01
Shell2 =[ SP  3   1.00 ]
   1    2.096420E+01    1.146600E-01    4.024870E-02
   2    4.803310E+00    9.199990E-01    2.375940E-01
   3    1.459330E+00   -3.030680E-03    8.158540E-01
Shell3 =[ SP  1   1.00 ]
   1    4.834560E-01    1.000000E+00    1.000000E+00
Shell4 =[ SP  1   1.00 ]
   1    1.455850E-01    1.000000E+00    1.000000E+00
Shell5 =[ SP  1   1.00 ]
   1    4.380000E-02    1.000000E+00    1.000000E+00
Shell6 =[ D   1   1.00 ]
   1    6.260000E-01    1.000000E+00
;
3:
;
Shells = 6
Shell1 =[ S   6   1.00 ]
   1    4.563240E+03    1.966650E-03
   2    6.820240E+02    1.523060E-02
   3    1.549730E+02    7.612690E-02
   4    4.445530E+01    2.608010E-01
   5    1.302900E+01    6.164620E-01
   6    1.827730E+00    2.210060E-01
Shell2 =[ SP  3   1.00 ]
   1    2.096420E+01    1.146600E-01    4.024870E-02
   2    4.803310E+00    9.199990E-01    2.375940E-01
   3    1.459330E+00   -3.030680E-03    8.158540E-01
Shell3 =[ SP  1   1.00 ]
   1    4.834560E-01    1.000000E+00    1.000000E+00
Shell4 =[ SP  1   1.00 ]
   1    1.455850E-01    1.000000E+00    1.000000E+00
Shell5 =[ SP  1   1.00 ]
   1    4.380000E-02    1.000000E+00    1.000000E+00
Shell6 =[ D   1   1.00 ]
   1    6.260000E-01    1.000000E+00
;
4:
;
Shells = 6
Shell1 =[ S   6   1.00 ]
   1    8.588500E+03    1.895150E-03
   2    1.297230E+03    1.438590E-02
   3    2.992960E+02    7.073200E-02
   4    8.737710E+01    2.400010E-01
   5    2.567890E+01    5.947970E-01
   6    3.740040E+00    2.808020E-01
Shell2 =[ SP  3   1.00 ]
   1    4.211750E+01    1.138890E-01    3.651140E-02
   2    9.628370E+00    9.208110E-01    2.371530E-01
   3    2.853320E+00   -3.274470E-03    8.197020E-01
Shell3 =[ SP  1   1.00 ]
   1    9.056610E-01    1.000000E+00    1.000000E+00
Shell4 =[ SP  1   1.00 ]
   1    2.556110E-01    1.000000E+00    1.000000E+00
Shell5 =[ SP  1   1.00 ]
   1    8.450000E-02    1.000000E+00    1.000000E+00
Shell6 =[ D   1   1.00 ]
   1    1.292000E+00    1.000000E+00
;
5:
;
Shells = 6
Shell1 =[ S   6   1.00 ]
   1    8.588500E+03    1.895150E-03
   2    1.297230E+03    1.438590E-02
   3    2.992960E+02    7.073200E-02
   4    8.737710E+01    2.400010E-01
   5    2.567890E+01    5.947970E-01
   6    3.740040E+00    2.808020E-01
Shell2 =[ SP  3   1.00 ]
   1    4.211750E+01    1.138890E-01    3.651140E-02
   2    9.628370E+00    9.208110E-01    2.371530E-01
   3    2.853320E+00   -3.274470E-03    8.197020E-01
Shell3 =[ SP  1   1.00 ]
   1    9.056610E-01    1.000000E+00    1.000000E+00
Shell4 =[ SP  1   1.00 ]
   1    2.556110E-01    1.000000E+00    1.000000E+00
Shell5 =[ SP  1   1.00 ]
   1    8.450000E-02    1.000000E+00    1.000000E+00
Shell6 =[ D   1   1.00 ]
   1    1.292000E+00    1.000000E+00
;
6:
;
Shells = 6
Shell1 =[ S   6   1.00 ]
   1    4.563240E+03    1.966650E-03
   2    6.820240E+02    1.523060E-02
   3    1.549730E+02    7.612690E-02
   4    4.445530E+01    2.608010E-01
   5    1.302900E+01    6.164620E-01
   6    1.827730E+00    2.210060E-01
Shell2 =[ SP  3   1.00 ]
   1    2.096420E+01    1.146600E-01    4.024870E-02
   2    4.803310E+00    9.199990E-01    2.375940E-01
   3    1.459330E+00   -3.030680E-03    8.158540E-01
Shell3 =[ SP  1   1.00 ]
   1    4.834560E-01    1.000000E+00    1.000000E+00
Shell4 =[ SP  1   1.00 ]
   1    1.455850E-01    1.000000E+00    1.000000E+00
Shell5 =[ SP  1   1.00 ]
   1    4.380000E-02    1.000000E+00    1.000000E+00
Shell6 =[ D   1   1.00 ]
   1    6.260000E-01    1.000000E+00
;
7:
;
Shells = 6
Shell1 =[ S   6   1.00 ]
   1    9.004600E+02    2.287040E-03
   2    1.344330E+02    1.763500E-02
   3    3.043650E+01    8.734340E-02
   4    8.626390E+00    2.809770E-01
   5    2.483320E+00    6.587410E-01
   6    3.031790E-01    1.187120E-01
Shell2 =[ SP  3   1.00 ]
   1    4.868900E+00    9.332930E-02    3.276610E-02
   2    8.569240E-01    9.430450E-01    1.597920E-01
   3    2.432270E-01   -2.798270E-03    8.856670E-01
Shell3 =[ SP  1   1.00 ]
   1    6.350700E-02    1.000000E+00    1.000000E+00
Shell4 =[ SP  1   1.00 ]
   1    2.436830E-02    1.000000E+00    1.000000E+00
Shell5 =[ SP  1   1.00 ]
   1    7.400000E-03    1.000000E+00    1.000000E+00
Shell6 =[ D   1   1.00 ]
   1    2.000000E-01    1.000000E+00
;
8:
;
Shells = 5
Shell1 =[ S   3   1.00 ]
   1    3.386500E+01    2.549380E-02
   2    5.094790E+00    1.903730E-01
   3    1.158790E+00    8.521610E-01
Shell2 =[ S   1   1.00 ]
   1    3.258400E-01    1.000000E+00
Shell3 =[ S   1   1.00 ]
   1    1.027410E-01    1.000000E+00
Shell4 =[ S   1   1.00 ]
   1    3.600000E-02    1.000000E+00
Shell5 =[ P   1   1.00 ]
   1    7.500000E-01    1.000000E+00
;
9:
;
Shells = 5
Shell1 =[ S   3   1.00 ]
   1    3.386500E+01    2.549380E-02
   2    5.094790E+00    1.903730E-01
   3    1.158790E+00    8.521610E-01
Shell2 =[ S   1   1.00 ]
   1    3.258400E-01    1.000000E+00
Shell3 =[ S   1   1.00 ]
   1    1.027410E-01    1.000000E+00
Shell4 =[ S   1   1.00 ]
   1    3.600000E-02    1.000000E+00
Shell5 =[ P   1   1.00 ]
   1    7.500000E-01    1.000000E+00
[HyperChem end]
 There are 52 shells and 168 basis functions
 A cutoff of  1.0D-11 yielded   1317 shell pairs
 There are     14119 function pairs (     15338 Cartesian)
 Smallest overlap matrix eigenvalue = 3.14E-05
 Guess MOs from SCF MO coefficient file
 Reading MOs from coefficient file
 Reading MOs from coefficient file

 -----------------------------------------------------------------------
  General SCF calculation program by
  Eric Jon Sundstrom, Paul Horn, Yuezhi Mao, Dmitri Zuev, Alec White,
  David Stuck, Shaama M.S., Shane Yost, Joonho Lee, David Small,
  Daniel Levine, Susi Lehtola, Hugh Burton, Evgeny Epifanovsky
 -----------------------------------------------------------------------
 Exchange:     0.2220 Hartree-Fock + 1.0000 wB97X-D + LR-HF
 Correlation:  1.0000 wB97X-D
 Using SG-2 standard quadrature grid
 Dispersion:   Grimme D
 using 12 threads for integral computing
 -------------------------------------------------------
 OpenMP Integral computing Module                
 Release: version 1.0, May 2013, Q-Chem Inc. Pittsburgh 
 -------------------------------------------------------
 using 12 threads for integral computing
 -------------------------------------------------------
 OpenMP Integral computing Module                
 Release: version 1.0, May 2013, Q-Chem Inc. Pittsburgh 
 -------------------------------------------------------
 -------------------------------------------------------
 OpenMP BLAS3 based DFT computing Module                
 Release: version 1.0, May 2013, Q-Chem Inc. Pittsburgh 
 -------------------------------------------------------
 A unrestricted SCF calculation will be
 performed using DIIS
 SCF converges when DIIS error is below 1.0e-08
 ---------------------------------------
  Cycle       Energy         DIIS error
 ---------------------------------------
    1    -348.6837715979      1.09e-03  
    2    -348.6506494335      3.54e-04  
    3    -348.6509103824      3.45e-04  
    4    -348.6519994596      5.14e-05  
    5    -348.6520222744      1.74e-05  
    6    -348.6520257909      4.37e-06  
    7    -348.6520262446      2.08e-06  
    8    -348.6520263634      6.82e-07  
    9    -348.6520264081      2.69e-07  
   10    -348.6520264212      1.17e-07  
   11    -348.6520264235      4.37e-08  
   12    -348.6520264239      1.33e-08  
   13    -348.6520264240      8.38e-09  Convergence criterion met
 ---------------------------------------
 SCF time:   CPU 86.17s  wall 7.00s 
 SCF   energy in the final basis set =     -348.6520264240
<S^2> =          0.750176510
 
 --------------------------------------------------------------
 
                    Orbital Energies (a.u.)
 --------------------------------------------------------------
 
 Alpha MOs
 -- Occupied --
-19.387 -19.387 -19.302 -10.532 -10.410 -10.409  -2.078  -1.364
 -1.238  -1.220  -0.943  -0.829  -0.793  -0.701  -0.676  -0.637
 -0.626  -0.564  -0.544  -0.539  -0.520  -0.461  -0.383  -0.142
 -- Virtual --
  0.009   0.017   0.018   0.027   0.030   0.034   0.038   0.042
  0.057   0.058   0.062   0.087   0.089   0.105   0.109   0.132
  0.134   0.138   0.148   0.149   0.158   0.169   0.169   0.172
  0.181   0.190   0.199   0.229   0.245   0.255   0.293   0.303
  0.308   0.309   0.315   0.343   0.350   0.361   0.366   0.367
  0.390   0.413   0.419   0.452   0.458   0.500   0.518   0.549
  0.555   0.565   0.566   0.570   0.585   0.601   0.609   0.627
  0.668   0.715   0.722   0.741   0.770   0.815   0.823   0.847
  0.877   0.900   0.933   0.967   1.042   1.050   1.081   1.090
  1.169   1.173   1.206   1.208   1.217   1.235   1.299   1.309
  1.348   1.390   1.455   1.485   1.530   1.624   1.713   1.748
  1.763   1.766   1.781   1.782   1.820   1.895   1.926   1.993
  2.087   2.150   2.175   2.453   2.566   2.579   2.688   2.734
  2.745   2.763   2.796   2.836   2.893   2.993   3.008   3.084
  3.098   3.149   3.194   3.225   3.258   3.422   3.424   3.444
  3.574   3.649   3.660   3.909   4.011   4.019   4.105   4.229
  4.230   5.002   5.004   5.099   5.209   5.361   5.513   5.547
  5.955   6.033  23.770  23.910  24.347  49.895  50.008  50.128
 
 Beta MOs
 -- Occupied --
-19.387 -19.387 -19.302 -10.532 -10.410 -10.409  -2.075  -1.364
 -1.238  -1.219  -0.943  -0.829  -0.793  -0.701  -0.676  -0.637
 -0.626  -0.564  -0.544  -0.539  -0.520  -0.461  -0.383
 -- Virtual --
  0.013   0.027   0.034   0.039   0.040   0.043   0.051   0.063
  0.072   0.092   0.101   0.112   0.132   0.134   0.137   0.141
  0.149   0.162   0.178   0.189   0.208   0.215   0.215   0.242
  0.247   0.259   0.263   0.274   0.276   0.285   0.294   0.311
  0.317   0.321   0.332   0.361   0.377   0.386   0.388   0.420
  0.423   0.442   0.444   0.458   0.474   0.514   0.543   0.573
  0.576   0.590   0.609   0.618   0.647   0.670   0.671   0.717
  0.722   0.738   0.772   0.780   0.800   0.815   0.850   0.852
  0.878   0.940   0.966   0.968   0.987   1.051   1.082   1.091
  1.102   1.169   1.185   1.211   1.212   1.217   1.241   1.301
  1.323   1.349   1.399   1.456   1.516   1.541   1.632   1.714
  1.750   1.763   1.767   1.782   1.784   1.825   1.896   1.927
  1.995   2.087   2.150   2.175   2.453   2.567   2.580   2.688
  2.735   2.745   2.763   2.797   2.836   2.894   2.993   3.008
  3.084   3.098   3.149   3.195   3.225   3.258   3.422   3.424
  3.445   3.575   3.653   3.661   3.918   4.013   4.019   4.105
  4.229   4.232   5.002   5.004   5.100   5.210   5.362   5.514
  5.547   5.956   6.033  23.770  23.911  24.347  49.895  50.008
 50.128
 --------------------------------------------------------------
 
          Ground-State Mulliken Net Atomic Charges

     Atom                 Charge (a.u.)    Spin (a.u.)
  --------------------------------------------------------
      1 O                    -0.041088      -0.008982
      2 C                     0.251727      -0.011436
      3 C                    -0.113499       0.004414
      4 O                    -0.293748      -0.064877
      5 O                    -0.040871      -0.008894
      6 C                    -0.114448       0.004549
      7 Li                   -0.142391       1.083404
      8 H                     0.247074       0.000915
      9 H                     0.247244       0.000907
  --------------------------------------------------------
  Sum of atomic charges =     0.000000
  Sum of spin   charges =     1.000000

 -----------------------------------------------------------------
                    Cartesian Multipole Moments
 -----------------------------------------------------------------
    Charge (ESU x 10^10)
                 0.0000
    Dipole Moment (Debye)
         X      -9.8553      Y       4.3428      Z       0.0344
       Tot      10.7698
    Quadrupole Moments (Debye-Ang)
        XX     -82.2258     XY      24.2826     YY     -55.9208
        XZ       0.1457     YZ      -0.0885     ZZ     -43.3894
    Octopole Moments (Debye-Ang^2)
       XXX    -411.7519    XXY     176.8768    XYY    -136.9271
       YYY     215.7974    XXZ       1.1914    XYZ      -0.4748
       YYZ       0.6185    XZZ     -58.3039    YZZ      55.0868
       ZZZ       0.9069
    Hexadecapole Moments (Debye-Ang^3)
      XXXX   -2830.0555   XXXY    1108.1557   XXYY    -788.6968
      XYYY     669.6867   YYYY    -979.9589   XXXZ       7.5833
      XXYZ      -3.2028   XYYZ       2.5007   YYYZ      -2.9864
      XXZZ    -307.2058   XYZZ     150.9490   YYZZ    -158.2599
      XZZZ       3.3348   YZZZ      -2.1207   ZZZZ    -104.5710
 -----------------------------------------------------------------
[HyperChem begin]
;Total dipole moment in Debye
[dipole-moment]
     10.769822943776
;Dipole moment components in Debye
[dipole-moment-components]
     -9.855338586095      4.342833860267      0.034375221280
[HyperChem end]
[HyperChem begin]
[HyperChem end]
[HyperChem begin]
[HyperChem end]
[HyperChem begin]
[HyperChem end]
 Calculating analytic gradient of the SCF energy
 Gradient of SCF Energy
            1           2           3           4           5           6
    1  -0.0096114  -0.0013056   0.0067947   0.0037376  -0.0042219   0.0030594
    2  -0.0032313   0.0007127   0.0022473  -0.0017403   0.0091058  -0.0064889
    3   0.0001332  -0.0002606  -0.0000295   0.0000792   0.0001121  -0.0000500
            7           8           9
    1   0.0022719  -0.0004520  -0.0002728
    2  -0.0010047  -0.0000404   0.0004398
    3  -0.0000054  -0.0000047   0.0000256
 Max gradient component =       9.611E-03
 RMS gradient           =       3.508E-03
[HyperChem begin]
[HyperChem end]
 Gradient time:  CPU 20.94 s  wall 1.93 s
 Geometry Optimization Parameters
   NAtoms,    NIC,     NZ,  NCons,   NDum,   NFix, NCnnct, MaxDiis
        9      53       0       0       0       0       0       0

 Cartesian Hessian Update
 Hessian Updated using BFGS Update


** GEOMETRY OPTIMIZATION IN DELOCALIZED INTERNAL COORDINATES **
   Searching for a Minimum

   Optimization Cycle:   2

                       Coordinates (Angstroms)
     ATOM                X               Y               Z
      1  O         0.8210179577    0.1481736438   -0.0029975267
      2  C         1.1022992826   -1.1624515335   -0.0073707073
      3  C        -0.5409774542    0.2862537445    0.0019518992
      4  O         2.1990306451   -1.6462526503   -0.0113889553
      5  O        -0.0546457768   -1.8398383402   -0.0043335698
      6  C        -1.0757984647   -0.9281453636    0.0012220939
      7  Li        4.0208680431   -2.4505480659   -0.0169645428
      8  H        -0.9494305540    1.2803887170    0.0053697115
      9  H        -2.0843636788   -1.2995801517    0.0045115974
   Point Group: c1    Number of degrees of freedom:    21


   Energy is   -348.652026424

 Hessian Updated using BFGS Update

 21 Hessian modes will be used to form the next step
  Hessian Eigenvalues:
     0.022093    0.022787    0.027056    0.029135    0.030606    0.085484
     0.159999    0.161604    0.199998    0.200000    0.225788    0.249988
     0.257864    0.353174    0.355187    0.485303    0.504327    0.523567
     0.557286    0.584415    0.846966

 Minimum Search - Taking Simple RFO Step
 Searching for Lamda that Minimizes Along All modes
 Value Taken    Lamda =  -0.00054776
 Step Taken.  Stepsize is  0.051028

                             Maximum     Tolerance    Cnvgd?
         Gradient           0.007487      0.000300      NO
         Displacement       0.024518      0.001200      NO
         Energy change     -0.005632      0.000001      NO


 New Cartesian Coordinates Obtained by Inverse Iteration

 Displacement from previous Coordinates is:  0.060163
 ----------------------------------------------------------------
             Standard Nuclear Orientation (Angstroms)
    I     Atom           X                Y                Z
 ----------------------------------------------------------------
    1      O       0.8319626405     0.1520761037    -0.0023538859
    2      C       1.1013671851    -1.1616570206    -0.0034516890
    3      C      -0.5379011725     0.2844367166     0.0017635000
    4      O       2.1924680249    -1.6431088041    -0.0101231819
    5      O      -0.0496319852    -1.8499984897    -0.0033057237
    6      C      -1.0723551448    -0.9292702546     0.0010012129
    7      Li      3.9982158747    -2.4413339634    -0.0201058766
    8      H      -0.9460241492     1.2779852265     0.0038579748
    9      H      -2.0801012735    -1.3011295143     0.0027176694
 ----------------------------------------------------------------
 Nuclear Repulsion Energy =   251.1698074405 hartrees
 There are       24 alpha and       23 beta electrons
[HyperChem begin]
;Nuclear Cartesian coordinates in Angstroms
[coordinates]
      0.831962640524      0.152076103653     -0.002353885925
      1.101367185147     -1.161657020591     -0.003451689003
     -0.537901172543      0.284436716555      0.001763500045
      2.192468024944     -1.643108804136     -0.010123181927
     -0.049631985238     -1.849998489709     -0.003305723722
     -1.072355144772     -0.929270254581      0.001001212913
      3.998215874652     -2.441333963381     -0.020105876598
     -0.946024149201      1.277985226489      0.003857974780
     -2.080101273513     -1.301129514298      0.002717669437
[HyperChem end]
 Nucleus-field energy     =     0.0000000010 hartrees
 Requested basis set is 6-311++G(d,p)
[HyperChem begin]
[basis]
;
1:
;
Shells = 6
Shell1 =[ S   6   1.00 ]
   1    8.588500E+03    1.895150E-03
   2    1.297230E+03    1.438590E-02
   3    2.992960E+02    7.073200E-02
   4    8.737710E+01    2.400010E-01
   5    2.567890E+01    5.947970E-01
   6    3.740040E+00    2.808020E-01
Shell2 =[ SP  3   1.00 ]
   1    4.211750E+01    1.138890E-01    3.651140E-02
   2    9.628370E+00    9.208110E-01    2.371530E-01
   3    2.853320E+00   -3.274470E-03    8.197020E-01
Shell3 =[ SP  1   1.00 ]
   1    9.056610E-01    1.000000E+00    1.000000E+00
Shell4 =[ SP  1   1.00 ]
   1    2.556110E-01    1.000000E+00    1.000000E+00
Shell5 =[ SP  1   1.00 ]
   1    8.450000E-02    1.000000E+00    1.000000E+00
Shell6 =[ D   1   1.00 ]
   1    1.292000E+00    1.000000E+00
;
2:
;
Shells = 6
Shell1 =[ S   6   1.00 ]
   1    4.563240E+03    1.966650E-03
   2    6.820240E+02    1.523060E-02
   3    1.549730E+02    7.612690E-02
   4    4.445530E+01    2.608010E-01
   5    1.302900E+01    6.164620E-01
   6    1.827730E+00    2.210060E-01
Shell2 =[ SP  3   1.00 ]
   1    2.096420E+01    1.146600E-01    4.024870E-02
   2    4.803310E+00    9.199990E-01    2.375940E-01
   3    1.459330E+00   -3.030680E-03    8.158540E-01
Shell3 =[ SP  1   1.00 ]
   1    4.834560E-01    1.000000E+00    1.000000E+00
Shell4 =[ SP  1   1.00 ]
   1    1.455850E-01    1.000000E+00    1.000000E+00
Shell5 =[ SP  1   1.00 ]
   1    4.380000E-02    1.000000E+00    1.000000E+00
Shell6 =[ D   1   1.00 ]
   1    6.260000E-01    1.000000E+00
;
3:
;
Shells = 6
Shell1 =[ S   6   1.00 ]
   1    4.563240E+03    1.966650E-03
   2    6.820240E+02    1.523060E-02
   3    1.549730E+02    7.612690E-02
   4    4.445530E+01    2.608010E-01
   5    1.302900E+01    6.164620E-01
   6    1.827730E+00    2.210060E-01
Shell2 =[ SP  3   1.00 ]
   1    2.096420E+01    1.146600E-01    4.024870E-02
   2    4.803310E+00    9.199990E-01    2.375940E-01
   3    1.459330E+00   -3.030680E-03    8.158540E-01
Shell3 =[ SP  1   1.00 ]
   1    4.834560E-01    1.000000E+00    1.000000E+00
Shell4 =[ SP  1   1.00 ]
   1    1.455850E-01    1.000000E+00    1.000000E+00
Shell5 =[ SP  1   1.00 ]
   1    4.380000E-02    1.000000E+00    1.000000E+00
Shell6 =[ D   1   1.00 ]
   1    6.260000E-01    1.000000E+00
;
4:
;
Shells = 6
Shell1 =[ S   6   1.00 ]
   1    8.588500E+03    1.895150E-03
   2    1.297230E+03    1.438590E-02
   3    2.992960E+02    7.073200E-02
   4    8.737710E+01    2.400010E-01
   5    2.567890E+01    5.947970E-01
   6    3.740040E+00    2.808020E-01
Shell2 =[ SP  3   1.00 ]
   1    4.211750E+01    1.138890E-01    3.651140E-02
   2    9.628370E+00    9.208110E-01    2.371530E-01
   3    2.853320E+00   -3.274470E-03    8.197020E-01
Shell3 =[ SP  1   1.00 ]
   1    9.056610E-01    1.000000E+00    1.000000E+00
Shell4 =[ SP  1   1.00 ]
   1    2.556110E-01    1.000000E+00    1.000000E+00
Shell5 =[ SP  1   1.00 ]
   1    8.450000E-02    1.000000E+00    1.000000E+00
Shell6 =[ D   1   1.00 ]
   1    1.292000E+00    1.000000E+00
;
5:
;
Shells = 6
Shell1 =[ S   6   1.00 ]
   1    8.588500E+03    1.895150E-03
   2    1.297230E+03    1.438590E-02
   3    2.992960E+02    7.073200E-02
   4    8.737710E+01    2.400010E-01
   5    2.567890E+01    5.947970E-01
   6    3.740040E+00    2.808020E-01
Shell2 =[ SP  3   1.00 ]
   1    4.211750E+01    1.138890E-01    3.651140E-02
   2    9.628370E+00    9.208110E-01    2.371530E-01
   3    2.853320E+00   -3.274470E-03    8.197020E-01
Shell3 =[ SP  1   1.00 ]
   1    9.056610E-01    1.000000E+00    1.000000E+00
Shell4 =[ SP  1   1.00 ]
   1    2.556110E-01    1.000000E+00    1.000000E+00
Shell5 =[ SP  1   1.00 ]
   1    8.450000E-02    1.000000E+00    1.000000E+00
Shell6 =[ D   1   1.00 ]
   1    1.292000E+00    1.000000E+00
;
6:
;
Shells = 6
Shell1 =[ S   6   1.00 ]
   1    4.563240E+03    1.966650E-03
   2    6.820240E+02    1.523060E-02
   3    1.549730E+02    7.612690E-02
   4    4.445530E+01    2.608010E-01
   5    1.302900E+01    6.164620E-01
   6    1.827730E+00    2.210060E-01
Shell2 =[ SP  3   1.00 ]
   1    2.096420E+01    1.146600E-01    4.024870E-02
   2    4.803310E+00    9.199990E-01    2.375940E-01
   3    1.459330E+00   -3.030680E-03    8.158540E-01
Shell3 =[ SP  1   1.00 ]
   1    4.834560E-01    1.000000E+00    1.000000E+00
Shell4 =[ SP  1   1.00 ]
   1    1.455850E-01    1.000000E+00    1.000000E+00
Shell5 =[ SP  1   1.00 ]
   1    4.380000E-02    1.000000E+00    1.000000E+00
Shell6 =[ D   1   1.00 ]
   1    6.260000E-01    1.000000E+00
;
7:
;
Shells = 6
Shell1 =[ S   6   1.00 ]
   1    9.004600E+02    2.287040E-03
   2    1.344330E+02    1.763500E-02
   3    3.043650E+01    8.734340E-02
   4    8.626390E+00    2.809770E-01
   5    2.483320E+00    6.587410E-01
   6    3.031790E-01    1.187120E-01
Shell2 =[ SP  3   1.00 ]
   1    4.868900E+00    9.332930E-02    3.276610E-02
   2    8.569240E-01    9.430450E-01    1.597920E-01
   3    2.432270E-01   -2.798270E-03    8.856670E-01
Shell3 =[ SP  1   1.00 ]
   1    6.350700E-02    1.000000E+00    1.000000E+00
Shell4 =[ SP  1   1.00 ]
   1    2.436830E-02    1.000000E+00    1.000000E+00
Shell5 =[ SP  1   1.00 ]
   1    7.400000E-03    1.000000E+00    1.000000E+00
Shell6 =[ D   1   1.00 ]
   1    2.000000E-01    1.000000E+00
;
8:
;
Shells = 5
Shell1 =[ S   3   1.00 ]
   1    3.386500E+01    2.549380E-02
   2    5.094790E+00    1.903730E-01
   3    1.158790E+00    8.521610E-01
Shell2 =[ S   1   1.00 ]
   1    3.258400E-01    1.000000E+00
Shell3 =[ S   1   1.00 ]
   1    1.027410E-01    1.000000E+00
Shell4 =[ S   1   1.00 ]
   1    3.600000E-02    1.000000E+00
Shell5 =[ P   1   1.00 ]
   1    7.500000E-01    1.000000E+00
;
9:
;
Shells = 5
Shell1 =[ S   3   1.00 ]
   1    3.386500E+01    2.549380E-02
   2    5.094790E+00    1.903730E-01
   3    1.158790E+00    8.521610E-01
Shell2 =[ S   1   1.00 ]
   1    3.258400E-01    1.000000E+00
Shell3 =[ S   1   1.00 ]
   1    1.027410E-01    1.000000E+00
Shell4 =[ S   1   1.00 ]
   1    3.600000E-02    1.000000E+00
Shell5 =[ P   1   1.00 ]
   1    7.500000E-01    1.000000E+00
[HyperChem end]
 There are 52 shells and 168 basis functions
 A cutoff of  1.0D-11 yielded   1319 shell pairs
 There are     14127 function pairs (     15346 Cartesian)
 Smallest overlap matrix eigenvalue = 3.12E-05
 Guess MOs from SCF MO coefficient file
 Reading MOs from coefficient file
 Reading MOs from coefficient file

 -----------------------------------------------------------------------
  General SCF calculation program by
  Eric Jon Sundstrom, Paul Horn, Yuezhi Mao, Dmitri Zuev, Alec White,
  David Stuck, Shaama M.S., Shane Yost, Joonho Lee, David Small,
  Daniel Levine, Susi Lehtola, Hugh Burton, Evgeny Epifanovsky
 -----------------------------------------------------------------------
 Exchange:     0.2220 Hartree-Fock + 1.0000 wB97X-D + LR-HF
 Correlation:  1.0000 wB97X-D
 Using SG-2 standard quadrature grid
 Dispersion:   Grimme D
 using 12 threads for integral computing
 -------------------------------------------------------
 OpenMP Integral computing Module                
 Release: version 1.0, May 2013, Q-Chem Inc. Pittsburgh 
 -------------------------------------------------------
 using 12 threads for integral computing
 -------------------------------------------------------
 OpenMP Integral computing Module                
 Release: version 1.0, May 2013, Q-Chem Inc. Pittsburgh 
 -------------------------------------------------------
 -------------------------------------------------------
 OpenMP BLAS3 based DFT computing Module                
 Release: version 1.0, May 2013, Q-Chem Inc. Pittsburgh 
 -------------------------------------------------------
 A unrestricted SCF calculation will be
 performed using DIIS
 SCF converges when DIIS error is below 1.0e-08
 ---------------------------------------
  Cycle       Energy         DIIS error
 ---------------------------------------
    1    -348.6531116450      2.33e-04  
    2    -348.6522716517      3.38e-05  
    3    -348.6522849163      2.25e-05  
    4    -348.6522900526      7.78e-06  
    5    -348.6522906905      2.33e-06  
    6    -348.6522908024      1.45e-06  
    7    -348.6522908334      3.76e-07  
    8    -348.6522908381      1.67e-07  
    9    -348.6522908405      7.39e-08  
   10    -348.6522908415      4.78e-08  
   11    -348.6522908424      2.50e-08  
   12    -348.6522908427      5.78e-09  Convergence criterion met
 ---------------------------------------
 SCF time:   CPU 81.79s  wall 7.00s 
 SCF   energy in the final basis set =     -348.6522908427
<S^2> =          0.750178642
 
 --------------------------------------------------------------
 
                    Orbital Energies (a.u.)
 --------------------------------------------------------------
 
 Alpha MOs
 -- Occupied --
-19.387 -19.387 -19.302 -10.532 -10.411 -10.410  -2.077  -1.362
 -1.238  -1.222  -0.942  -0.827  -0.792  -0.700  -0.675  -0.637
 -0.627  -0.565  -0.545  -0.538  -0.521  -0.462  -0.384  -0.141
 -- Virtual --
  0.009   0.017   0.017   0.026   0.030   0.034   0.038   0.042
  0.056   0.058   0.062   0.086   0.089   0.105   0.109   0.132
  0.134   0.138   0.148   0.149   0.158   0.169   0.169   0.172
  0.178   0.190   0.199   0.229   0.245   0.255   0.292   0.303
  0.308   0.309   0.313   0.344   0.351   0.361   0.365   0.370
  0.392   0.415   0.419   0.451   0.455   0.499   0.518   0.550
  0.555   0.565   0.566   0.570   0.585   0.599   0.609   0.628
  0.669   0.714   0.722   0.742   0.771   0.815   0.825   0.846
  0.877   0.902   0.934   0.967   1.044   1.054   1.080   1.089
  1.167   1.174   1.204   1.209   1.218   1.235   1.298   1.309
  1.352   1.393   1.453   1.484   1.531   1.622   1.712   1.747
  1.762   1.762   1.782   1.783   1.820   1.896   1.926   1.993
  2.087   2.154   2.177   2.446   2.567   2.584   2.686   2.735
  2.745   2.764   2.795   2.834   2.892   2.990   2.996   3.078
  3.086   3.154   3.198   3.223   3.250   3.421   3.425   3.448
  3.574   3.651   3.669   3.910   4.011   4.021   4.092   4.230
  4.232   5.002   5.004   5.099   5.213   5.354   5.512   5.558
  5.957   6.017  23.765  23.920  24.349  49.895  50.006  50.134
 
 Beta MOs
 -- Occupied --
-19.387 -19.387 -19.301 -10.532 -10.411 -10.410  -2.074  -1.362
 -1.238  -1.222  -0.942  -0.827  -0.792  -0.700  -0.675  -0.637
 -0.626  -0.565  -0.545  -0.538  -0.521  -0.462  -0.384
 -- Virtual --
  0.013   0.026   0.034   0.039   0.040   0.044   0.051   0.062
  0.072   0.092   0.101   0.112   0.133   0.134   0.138   0.141
  0.149   0.163   0.175   0.189   0.207   0.216   0.218   0.243
  0.247   0.261   0.266   0.275   0.276   0.285   0.293   0.309
  0.316   0.322   0.333   0.361   0.379   0.386   0.390   0.421
  0.424   0.442   0.444   0.460   0.472   0.514   0.544   0.572
  0.578   0.586   0.609   0.620   0.646   0.670   0.670   0.715
  0.721   0.737   0.774   0.781   0.803   0.815   0.849   0.852
  0.880   0.941   0.966   0.968   0.990   1.053   1.081   1.090
  1.106   1.167   1.186   1.211   1.212   1.218   1.242   1.299
  1.323   1.354   1.402   1.453   1.515   1.541   1.630   1.713
  1.749   1.762   1.763   1.783   1.786   1.825   1.897   1.927
  1.995   2.088   2.154   2.177   2.446   2.568   2.584   2.686
  2.735   2.745   2.764   2.795   2.834   2.893   2.990   2.996
  3.078   3.087   3.154   3.198   3.223   3.250   3.421   3.425
  3.448   3.575   3.654   3.670   3.918   4.013   4.021   4.092
  4.232   4.233   5.002   5.005   5.101   5.214   5.355   5.513
  5.558   5.958   6.017  23.765  23.920  24.349  49.895  50.006
 50.134
 --------------------------------------------------------------
 
          Ground-State Mulliken Net Atomic Charges

     Atom                 Charge (a.u.)    Spin (a.u.)
  --------------------------------------------------------
      1 O                    -0.041612      -0.009349
      2 C                     0.250333      -0.012696
      3 C                    -0.112966       0.004754
      4 O                    -0.287088      -0.066614
      5 O                    -0.041300      -0.009266
      6 C                    -0.114046       0.004898
      7 Li                   -0.148868       1.086383
      8 H                     0.247694       0.000950
      9 H                     0.247853       0.000941
  --------------------------------------------------------
  Sum of atomic charges =     0.000000
  Sum of spin   charges =     1.000000

 -----------------------------------------------------------------
                    Cartesian Multipole Moments
 -----------------------------------------------------------------
    Charge (ESU x 10^10)
                 0.0000
    Dipole Moment (Debye)
         X      -9.8694      Y       4.3506      Z       0.0519
       Tot      10.7858
    Quadrupole Moments (Debye-Ang)
        XX     -82.1535     XY      24.2627     YY     -55.9537
        XZ       0.2287     YZ      -0.1357     ZZ     -43.4153
    Octopole Moments (Debye-Ang^2)
       XXX    -410.0661    XXY     176.1654    XYY    -136.6258
       YYY     215.7520    XXZ       1.5435    XYZ      -0.6818
       YYZ       0.7535    XZZ     -58.2745    YZZ      55.0975
       ZZZ       0.9952
    Hexadecapole Moments (Debye-Ang^3)
      XXXX   -2806.9552   XXXY    1099.0084   XXYY    -783.7609
      XYYY     665.9467   YYYY    -978.9951   XXXZ       9.8063
      XXYZ      -4.2235   XYYZ       3.2686   YYYZ      -3.6217
      XXZZ    -305.6924   XYZZ     150.1663   YYZZ    -158.2837
      XZZZ       3.9668   YZZZ      -2.4538   ZZZZ    -105.0513
 -----------------------------------------------------------------
[HyperChem begin]
;Total dipole moment in Debye
[dipole-moment]
     10.785837300138
;Dipole moment components in Debye
[dipole-moment-components]
     -9.869353155130      4.350570429816      0.051879664364
[HyperChem end]
[HyperChem begin]
[HyperChem end]
[HyperChem begin]
[HyperChem end]
[HyperChem begin]
[HyperChem end]
 Calculating analytic gradient of the SCF energy
 Gradient of SCF Energy
            1           2           3           4           5           6
    1  -0.0005387   0.0020830   0.0028118  -0.0065371  -0.0006153   0.0007449
    2   0.0003064  -0.0008042   0.0015302   0.0027446   0.0002336  -0.0031344
    3  -0.0003297   0.0008986   0.0000754  -0.0002974  -0.0003081   0.0000105
            7           8           9
    1   0.0017041   0.0000404   0.0003069
    2  -0.0007569  -0.0004180   0.0002986
    3  -0.0000101  -0.0000258  -0.0000134
 Max gradient component =       6.537E-03
 RMS gradient           =       1.739E-03
[HyperChem begin]
[HyperChem end]
 Gradient time:  CPU 21.77 s  wall 2.01 s
 Geometry Optimization Parameters
   NAtoms,    NIC,     NZ,  NCons,   NDum,   NFix, NCnnct, MaxDiis
        9      53       0       0       0       0       0       0

 Cartesian Hessian Update
 Hessian Updated using BFGS Update


** GEOMETRY OPTIMIZATION IN DELOCALIZED INTERNAL COORDINATES **
   Searching for a Minimum

   Optimization Cycle:   3

                       Coordinates (Angstroms)
     ATOM                X               Y               Z
      1  O         0.8319626405    0.1520761037   -0.0023538859
      2  C         1.1013671851   -1.1616570206   -0.0034516890
      3  C        -0.5379011725    0.2844367166    0.0017635000
      4  O         2.1924680249   -1.6431088041   -0.0101231819
      5  O        -0.0496319852   -1.8499984897   -0.0033057237
      6  C        -1.0723551448   -0.9292702546    0.0010012129
      7  Li        3.9982158747   -2.4413339634   -0.0201058766
      8  H        -0.9460241492    1.2779852265    0.0038579748
      9  H        -2.0801012735   -1.3011295143    0.0027176694
   Point Group: c1    Number of degrees of freedom:    21


   Energy is   -348.652290843

 Hessian Updated using BFGS Update

 21 Hessian modes will be used to form the next step
  Hessian Eigenvalues:
     0.022236    0.022957    0.027057    0.029153    0.030605    0.067200
     0.159995    0.160767    0.199968    0.200000    0.225792    0.250001
     0.317175    0.353177    0.354877    0.454825    0.491268    0.504331
     0.557289    0.588321    1.017831

 Minimum Search - Taking Simple RFO Step
 Searching for Lamda that Minimizes Along All modes
 Value Taken    Lamda =  -0.00012800
 Step Taken.  Stepsize is  0.038349

                             Maximum     Tolerance    Cnvgd?
         Gradient           0.004942      0.000300      NO
         Displacement       0.021747      0.001200      NO
         Energy change     -0.000264      0.000001      NO


 New Cartesian Coordinates Obtained by Inverse Iteration

 Displacement from previous Coordinates is:  0.038061
 ----------------------------------------------------------------
             Standard Nuclear Orientation (Angstroms)
    I     Atom           X                Y                Z
 ----------------------------------------------------------------
    1      O       0.8337923528     0.1512006847    -0.0045916674
    2      C       1.1045372144    -1.1630438991    -0.0143602165
    3      C      -0.5394394323     0.2841154734     0.0023138744
    4      O       2.1973132124    -1.6450498770    -0.0135584651
    5      O      -0.0476808170    -1.8507649653    -0.0056740567
    6      C      -1.0730861046    -0.9278944956     0.0016934992
    7      Li      3.9893829744    -2.4376553799    -0.0111743275
    8      H      -0.9462153444     1.2786917471     0.0082432406
    9      H      -2.0806040556    -1.3015992884     0.0071081189
 ----------------------------------------------------------------
 Nuclear Repulsion Energy =   251.0073634538 hartrees
 There are       24 alpha and       23 beta electrons
[HyperChem begin]
;Nuclear Cartesian coordinates in Angstroms
[coordinates]
      0.833792352787      0.151200684737     -0.004591667420
      1.104537214409     -1.163043899064     -0.014360216461
     -0.539439432341      0.284115473375      0.002313874441
      2.197313212435     -1.645049876985     -0.013558465133
     -0.047680817033     -1.850764965289     -0.005674056668
     -1.073086104634     -0.927894495615      0.001693499225
      3.989382974411     -2.437655379891     -0.011174327476
     -0.946215344388      1.278691747112      0.008243240568
     -2.080604055645     -1.301599288381      0.007108118923
[HyperChem end]
 Nucleus-field energy     =     0.0000000010 hartrees
 Requested basis set is 6-311++G(d,p)
[HyperChem begin]
[basis]
;
1:
;
Shells = 6
Shell1 =[ S   6   1.00 ]
   1    8.588500E+03    1.895150E-03
   2    1.297230E+03    1.438590E-02
   3    2.992960E+02    7.073200E-02
   4    8.737710E+01    2.400010E-01
   5    2.567890E+01    5.947970E-01
   6    3.740040E+00    2.808020E-01
Shell2 =[ SP  3   1.00 ]
   1    4.211750E+01    1.138890E-01    3.651140E-02
   2    9.628370E+00    9.208110E-01    2.371530E-01
   3    2.853320E+00   -3.274470E-03    8.197020E-01
Shell3 =[ SP  1   1.00 ]
   1    9.056610E-01    1.000000E+00    1.000000E+00
Shell4 =[ SP  1   1.00 ]
   1    2.556110E-01    1.000000E+00    1.000000E+00
Shell5 =[ SP  1   1.00 ]
   1    8.450000E-02    1.000000E+00    1.000000E+00
Shell6 =[ D   1   1.00 ]
   1    1.292000E+00    1.000000E+00
;
2:
;
Shells = 6
Shell1 =[ S   6   1.00 ]
   1    4.563240E+03    1.966650E-03
   2    6.820240E+02    1.523060E-02
   3    1.549730E+02    7.612690E-02
   4    4.445530E+01    2.608010E-01
   5    1.302900E+01    6.164620E-01
   6    1.827730E+00    2.210060E-01
Shell2 =[ SP  3   1.00 ]
   1    2.096420E+01    1.146600E-01    4.024870E-02
   2    4.803310E+00    9.199990E-01    2.375940E-01
   3    1.459330E+00   -3.030680E-03    8.158540E-01
Shell3 =[ SP  1   1.00 ]
   1    4.834560E-01    1.000000E+00    1.000000E+00
Shell4 =[ SP  1   1.00 ]
   1    1.455850E-01    1.000000E+00    1.000000E+00
Shell5 =[ SP  1   1.00 ]
   1    4.380000E-02    1.000000E+00    1.000000E+00
Shell6 =[ D   1   1.00 ]
   1    6.260000E-01    1.000000E+00
;
3:
;
Shells = 6
Shell1 =[ S   6   1.00 ]
   1    4.563240E+03    1.966650E-03
   2    6.820240E+02    1.523060E-02
   3    1.549730E+02    7.612690E-02
   4    4.445530E+01    2.608010E-01
   5    1.302900E+01    6.164620E-01
   6    1.827730E+00    2.210060E-01
Shell2 =[ SP  3   1.00 ]
   1    2.096420E+01    1.146600E-01    4.024870E-02
   2    4.803310E+00    9.199990E-01    2.375940E-01
   3    1.459330E+00   -3.030680E-03    8.158540E-01
Shell3 =[ SP  1   1.00 ]
   1    4.834560E-01    1.000000E+00    1.000000E+00
Shell4 =[ SP  1   1.00 ]
   1    1.455850E-01    1.000000E+00    1.000000E+00
Shell5 =[ SP  1   1.00 ]
   1    4.380000E-02    1.000000E+00    1.000000E+00
Shell6 =[ D   1   1.00 ]
   1    6.260000E-01    1.000000E+00
;
4:
;
Shells = 6
Shell1 =[ S   6   1.00 ]
   1    8.588500E+03    1.895150E-03
   2    1.297230E+03    1.438590E-02
   3    2.992960E+02    7.073200E-02
   4    8.737710E+01    2.400010E-01
   5    2.567890E+01    5.947970E-01
   6    3.740040E+00    2.808020E-01
Shell2 =[ SP  3   1.00 ]
   1    4.211750E+01    1.138890E-01    3.651140E-02
   2    9.628370E+00    9.208110E-01    2.371530E-01
   3    2.853320E+00   -3.274470E-03    8.197020E-01
Shell3 =[ SP  1   1.00 ]
   1    9.056610E-01    1.000000E+00    1.000000E+00
Shell4 =[ SP  1   1.00 ]
   1    2.556110E-01    1.000000E+00    1.000000E+00
Shell5 =[ SP  1   1.00 ]
   1    8.450000E-02    1.000000E+00    1.000000E+00
Shell6 =[ D   1   1.00 ]
   1    1.292000E+00    1.000000E+00
;
5:
;
Shells = 6
Shell1 =[ S   6   1.00 ]
   1    8.588500E+03    1.895150E-03
   2    1.297230E+03    1.438590E-02
   3    2.992960E+02    7.073200E-02
   4    8.737710E+01    2.400010E-01
   5    2.567890E+01    5.947970E-01
   6    3.740040E+00    2.808020E-01
Shell2 =[ SP  3   1.00 ]
   1    4.211750E+01    1.138890E-01    3.651140E-02
   2    9.628370E+00    9.208110E-01    2.371530E-01
   3    2.853320E+00   -3.274470E-03    8.197020E-01
Shell3 =[ SP  1   1.00 ]
   1    9.056610E-01    1.000000E+00    1.000000E+00
Shell4 =[ SP  1   1.00 ]
   1    2.556110E-01    1.000000E+00    1.000000E+00
Shell5 =[ SP  1   1.00 ]
   1    8.450000E-02    1.000000E+00    1.000000E+00
Shell6 =[ D   1   1.00 ]
   1    1.292000E+00    1.000000E+00
;
6:
;
Shells = 6
Shell1 =[ S   6   1.00 ]
   1    4.563240E+03    1.966650E-03
   2    6.820240E+02    1.523060E-02
   3    1.549730E+02    7.612690E-02
   4    4.445530E+01    2.608010E-01
   5    1.302900E+01    6.164620E-01
   6    1.827730E+00    2.210060E-01
Shell2 =[ SP  3   1.00 ]
   1    2.096420E+01    1.146600E-01    4.024870E-02
   2    4.803310E+00    9.199990E-01    2.375940E-01
   3    1.459330E+00   -3.030680E-03    8.158540E-01
Shell3 =[ SP  1   1.00 ]
   1    4.834560E-01    1.000000E+00    1.000000E+00
Shell4 =[ SP  1   1.00 ]
   1    1.455850E-01    1.000000E+00    1.000000E+00
Shell5 =[ SP  1   1.00 ]
   1    4.380000E-02    1.000000E+00    1.000000E+00
Shell6 =[ D   1   1.00 ]
   1    6.260000E-01    1.000000E+00
;
7:
;
Shells = 6
Shell1 =[ S   6   1.00 ]
   1    9.004600E+02    2.287040E-03
   2    1.344330E+02    1.763500E-02
   3    3.043650E+01    8.734340E-02
   4    8.626390E+00    2.809770E-01
   5    2.483320E+00    6.587410E-01
   6    3.031790E-01    1.187120E-01
Shell2 =[ SP  3   1.00 ]
   1    4.868900E+00    9.332930E-02    3.276610E-02
   2    8.569240E-01    9.430450E-01    1.597920E-01
   3    2.432270E-01   -2.798270E-03    8.856670E-01
Shell3 =[ SP  1   1.00 ]
   1    6.350700E-02    1.000000E+00    1.000000E+00
Shell4 =[ SP  1   1.00 ]
   1    2.436830E-02    1.000000E+00    1.000000E+00
Shell5 =[ SP  1   1.00 ]
   1    7.400000E-03    1.000000E+00    1.000000E+00
Shell6 =[ D   1   1.00 ]
   1    2.000000E-01    1.000000E+00
;
8:
;
Shells = 5
Shell1 =[ S   3   1.00 ]
   1    3.386500E+01    2.549380E-02
   2    5.094790E+00    1.903730E-01
   3    1.158790E+00    8.521610E-01
Shell2 =[ S   1   1.00 ]
   1    3.258400E-01    1.000000E+00
Shell3 =[ S   1   1.00 ]
   1    1.027410E-01    1.000000E+00
Shell4 =[ S   1   1.00 ]
   1    3.600000E-02    1.000000E+00
Shell5 =[ P   1   1.00 ]
   1    7.500000E-01    1.000000E+00
;
9:
;
Shells = 5
Shell1 =[ S   3   1.00 ]
   1    3.386500E+01    2.549380E-02
   2    5.094790E+00    1.903730E-01
   3    1.158790E+00    8.521610E-01
Shell2 =[ S   1   1.00 ]
   1    3.258400E-01    1.000000E+00
Shell3 =[ S   1   1.00 ]
   1    1.027410E-01    1.000000E+00
Shell4 =[ S   1   1.00 ]
   1    3.600000E-02    1.000000E+00
Shell5 =[ P   1   1.00 ]
   1    7.500000E-01    1.000000E+00
[HyperChem end]
 There are 52 shells and 168 basis functions
 A cutoff of  1.0D-11 yielded   1317 shell pairs
 There are     14119 function pairs (     15338 Cartesian)
 Smallest overlap matrix eigenvalue = 3.10E-05
 Guess MOs from SCF MO coefficient file
 Reading MOs from coefficient file
 Reading MOs from coefficient file

 -----------------------------------------------------------------------
  General SCF calculation program by
  Eric Jon Sundstrom, Paul Horn, Yuezhi Mao, Dmitri Zuev, Alec White,
  David Stuck, Shaama M.S., Shane Yost, Joonho Lee, David Small,
  Daniel Levine, Susi Lehtola, Hugh Burton, Evgeny Epifanovsky
 -----------------------------------------------------------------------
 Exchange:     0.2220 Hartree-Fock + 1.0000 wB97X-D + LR-HF
 Correlation:  1.0000 wB97X-D
 Using SG-2 standard quadrature grid
 Dispersion:   Grimme D
 using 12 threads for integral computing
 -------------------------------------------------------
 OpenMP Integral computing Module                
 Release: version 1.0, May 2013, Q-Chem Inc. Pittsburgh 
 -------------------------------------------------------
 using 12 threads for integral computing
 -------------------------------------------------------
 OpenMP Integral computing Module                
 Release: version 1.0, May 2013, Q-Chem Inc. Pittsburgh 
 -------------------------------------------------------
 -------------------------------------------------------
 OpenMP BLAS3 based DFT computing Module                
 Release: version 1.0, May 2013, Q-Chem Inc. Pittsburgh 
 -------------------------------------------------------
 A unrestricted SCF calculation will be
 performed using DIIS
 SCF converges when DIIS error is below 1.0e-08
 ---------------------------------------
  Cycle       Energy         DIIS error
 ---------------------------------------
    1    -348.6464467263      1.42e-04  
    2    -348.6523430985      2.56e-05  
    3    -348.6523487189      2.37e-05  
    4    -348.6523541579      5.08e-06  
    5    -348.6523545072      2.35e-06  
    6    -348.6523546229      9.33e-07  
    7    -348.6523546688      4.11e-07  
    8    -348.6523546917      2.68e-07  
    9    -348.6523547160      1.44e-07  
   10    -348.6523547244      6.62e-08  
   11    -348.6523547257      2.72e-08  
   12    -348.6523547259      1.45e-08  
   13    -348.6523547260      1.04e-08  
   14    -348.6523547260      2.13e-09  Convergence criterion met
 ---------------------------------------
 SCF time:   CPU 97.07s  wall 8.00s 
 SCF   energy in the final basis set =     -348.6523547260
<S^2> =          0.750182038
 
 --------------------------------------------------------------
 
                    Orbital Energies (a.u.)
 --------------------------------------------------------------
 
 Alpha MOs
 -- Occupied --
-19.387 -19.387 -19.302 -10.533 -10.412 -10.411  -2.077  -1.361
 -1.237  -1.222  -0.943  -0.827  -0.791  -0.701  -0.675  -0.638
 -0.628  -0.566  -0.545  -0.538  -0.521  -0.462  -0.385  -0.141
 -- Virtual --
  0.009   0.017   0.018   0.026   0.030   0.034   0.038   0.042
  0.056   0.058   0.062   0.086   0.088   0.105   0.109   0.132
  0.134   0.138   0.148   0.149   0.159   0.168   0.169   0.173
  0.177   0.190   0.200   0.229   0.244   0.254   0.292   0.303
  0.307   0.309   0.313   0.344   0.351   0.361   0.365   0.370
  0.391   0.416   0.419   0.451   0.453   0.499   0.518   0.549
  0.555   0.564   0.565   0.569   0.586   0.598   0.609   0.629
  0.668   0.715   0.722   0.743   0.770   0.815   0.827   0.846
  0.876   0.902   0.933   0.967   1.043   1.055   1.080   1.089
  1.166   1.174   1.205   1.209   1.217   1.235   1.298   1.310
  1.352   1.394   1.453   1.484   1.530   1.620   1.712   1.746
  1.761   1.762   1.782   1.782   1.819   1.896   1.924   1.992
  2.086   2.151   2.178   2.444   2.566   2.581   2.686   2.734
  2.745   2.763   2.794   2.834   2.891   2.987   2.991   3.075
  3.081   3.151   3.195   3.222   3.247   3.417   3.422   3.447
  3.571   3.650   3.665   3.911   4.010   4.019   4.090   4.230
  4.235   5.001   5.005   5.099   5.212   5.354   5.508   5.553
  5.956   6.013  23.760  23.916  24.355  49.894  50.005  50.131
 
 Beta MOs
 -- Occupied --
-19.387 -19.387 -19.302 -10.533 -10.412 -10.411  -2.074  -1.361
 -1.237  -1.222  -0.943  -0.827  -0.791  -0.701  -0.675  -0.638
 -0.627  -0.566  -0.545  -0.538  -0.521  -0.462  -0.385
 -- Virtual --
  0.012   0.026   0.034   0.039   0.040   0.043   0.051   0.062
  0.072   0.092   0.101   0.112   0.133   0.134   0.138   0.141
  0.149   0.163   0.173   0.189   0.207   0.216   0.220   0.243
  0.246   0.260   0.268   0.275   0.276   0.285   0.293   0.309
  0.316   0.322   0.334   0.361   0.379   0.386   0.390   0.422
  0.423   0.442   0.444   0.461   0.471   0.514   0.545   0.572
  0.576   0.584   0.609   0.621   0.647   0.669   0.671   0.714
  0.720   0.736   0.774   0.780   0.803   0.815   0.849   0.853
  0.880   0.940   0.967   0.967   0.990   1.053   1.081   1.090
  1.109   1.166   1.186   1.212   1.212   1.217   1.242   1.299
  1.324   1.354   1.403   1.453   1.515   1.539   1.629   1.713
  1.748   1.761   1.762   1.782   1.786   1.825   1.897   1.925
  1.994   2.087   2.151   2.178   2.445   2.567   2.581   2.686
  2.734   2.745   2.763   2.794   2.834   2.892   2.988   2.991
  3.075   3.081   3.151   3.196   3.222   3.247   3.417   3.423
  3.447   3.572   3.653   3.665   3.919   4.012   4.020   4.090
  4.231   4.237   5.001   5.005   5.100   5.214   5.354   5.508
  5.553   5.957   6.013  23.760  23.916  24.355  49.894  50.005
 50.132
 --------------------------------------------------------------
 
          Ground-State Mulliken Net Atomic Charges

     Atom                 Charge (a.u.)    Spin (a.u.)
  --------------------------------------------------------
      1 O                    -0.043081      -0.009580
      2 C                     0.250753      -0.013604
      3 C                    -0.111453       0.004710
      4 O                    -0.283439      -0.067896
      5 O                    -0.042757      -0.009496
      6 C                    -0.112507       0.004860
      7 Li                   -0.154594       1.089126
      8 H                     0.248462       0.000944
      9 H                     0.248616       0.000936
  --------------------------------------------------------
  Sum of atomic charges =     0.000000
  Sum of spin   charges =     1.000000

 -----------------------------------------------------------------
                    Cartesian Multipole Moments
 -----------------------------------------------------------------
    Charge (ESU x 10^10)
                 0.0000
    Dipole Moment (Debye)
         X      -9.9203      Y       4.3739      Z       0.0021
       Tot      10.8417
    Quadrupole Moments (Debye-Ang)
        XX     -82.2422     XY      24.3260     YY     -56.0350
        XZ      -0.0042     YZ       0.0004     ZZ     -43.4491
    Octopole Moments (Debye-Ang^2)
       XXX    -410.3600    XXY     176.2520    XYY    -136.8353
       YYY     216.0999    XXZ       0.5316    XYZ      -0.0943
       YYZ       0.3653    XZZ     -58.3981    YZZ      55.1783
       ZZZ       0.7415
    Hexadecapole Moments (Debye-Ang^3)
      XXXX   -2804.3170   XXXY    1098.0251   XXYY    -783.5194
      XYYY     666.1767   YYYY    -980.2273   XXXZ       3.3904
      XXYZ      -1.2679   XYYZ       1.0666   YYYZ      -1.7779
      XXZZ    -305.8577   XYZZ     150.2720   YYZZ    -158.5548
      XZZZ       2.1522   YZZZ      -1.4819   ZZZZ    -105.5267
 -----------------------------------------------------------------
[HyperChem begin]
;Total dipole moment in Debye
[dipole-moment]
     10.841698586163
;Dipole moment components in Debye
[dipole-moment-components]
     -9.920266305502      4.373870150813      0.002136578745
[HyperChem end]
[HyperChem begin]
[HyperChem end]
[HyperChem begin]
[HyperChem end]
[HyperChem begin]
[HyperChem end]
 Calculating analytic gradient of the SCF energy
 Gradient of SCF Energy
            1           2           3           4           5           6
    1   0.0007455   0.0018966  -0.0003530  -0.0030422   0.0000563  -0.0003283
    2   0.0005645  -0.0007663   0.0001281   0.0012260  -0.0008995   0.0001711
    3   0.0008437  -0.0024110  -0.0001285   0.0008727   0.0008392  -0.0001240
            7           8           9
    1   0.0011609  -0.0001192  -0.0000167
    2  -0.0005173  -0.0001085   0.0002018
    3   0.0000060   0.0000491   0.0000528
 Max gradient component =       3.042E-03
 RMS gradient           =       9.929E-04
[HyperChem begin]
[HyperChem end]
 Gradient time:  CPU 20.83 s  wall 1.90 s
 Geometry Optimization Parameters
   NAtoms,    NIC,     NZ,  NCons,   NDum,   NFix, NCnnct, MaxDiis
        9      53       0       0       0       0       0       0

 Cartesian Hessian Update
 Hessian Updated using BFGS Update


** GEOMETRY OPTIMIZATION IN DELOCALIZED INTERNAL COORDINATES **
   Searching for a Minimum

   Optimization Cycle:   4

                       Coordinates (Angstroms)
     ATOM                X               Y               Z
[...]
    2   0.0167535  -0.1068587  -0.0000697   0.0616747  -0.0542768  -0.0001996
    3   0.0003486  -0.0000013  -0.0600947   0.0001961  -0.0002623   0.0182762
    4  -0.0175808   0.0362150   0.0000768  -0.6067178   0.2371389   0.0015237
    5   0.0902283  -0.0373461  -0.0002053   0.2368929  -0.2172234  -0.0007378
    6   0.0001223  -0.0001148   0.0083131   0.0013605  -0.0006718  -0.0915054
    7   0.5765127   0.0088491  -0.0007158  -0.0030106  -0.0100073  -0.0000002
    8   0.0088491   1.0538681   0.0008430   0.0016673  -0.0047235  -0.0000148
    9  -0.0007158   0.0008430   0.1612751   0.0000091   0.0000062   0.0021173
   10  -0.0030106   0.0016673   0.0000091   0.7299362  -0.2942693  -0.0021025
   11  -0.0100073  -0.0047235   0.0000062  -0.2942693   0.2410980   0.0011454
   12  -0.0000002  -0.0000148   0.0021173  -0.0021025   0.0011454   0.0438456
   13  -0.0348419   0.0461891   0.0001488  -0.1054612  -0.0114695   0.0002417
   14   0.0106698  -0.0831674  -0.0001294  -0.0012415   0.0340425   0.0000001
   15   0.0001159  -0.0001890   0.0194755   0.0003133   0.0000251   0.0180558
   16  -0.1777140  -0.1638843  -0.0000125  -0.0000413   0.0041849   0.0000111
   17  -0.1996464  -0.4784500  -0.0000240  -0.0075687  -0.0075980   0.0000055
   18  -0.0000560  -0.0000890  -0.0916358  -0.0000054  -0.0000128   0.0020635
   19  -0.0007867  -0.0007001   0.0000004   0.0030334   0.0002539   0.0001459
   20   0.0003252   0.0001555   0.0000010   0.0001512   0.0070617  -0.0001930
   21   0.0000034   0.0000032   0.0000258   0.0002188  -0.0002256   0.0055848
   22  -0.0987352   0.0919817   0.0001917  -0.0010801   0.0031646   0.0000084
   23   0.1017379  -0.3500630  -0.0004576  -0.0000472   0.0005222   0.0000010
   24   0.0001951  -0.0004389  -0.0413279   0.0000029  -0.0000064   0.0007864
   25   0.0005791   0.0023478   0.0000044  -0.0016812  -0.0005017   0.0000042
   26  -0.0189101   0.0065851   0.0000357   0.0027405   0.0010972  -0.0000067
   27  -0.0000133   0.0000017   0.0018515   0.0000071   0.0000022   0.0007756
           13          14          15          16          17          18
    1   0.0015385  -0.0072096   0.0000131  -0.0917183  -0.0364709   0.0001687
    2  -0.0763285  -0.0683078   0.0000556  -0.0006807  -0.0268925  -0.0000461
    3  -0.0000670  -0.0000706   0.0153043   0.0002078   0.0000134   0.0195337
    4  -0.1782747  -0.0338219   0.0001197  -0.0915420   0.0293405   0.0002217
    5  -0.0646565  -0.1801846   0.0000312  -0.0248504   0.0365169   0.0000626
    6   0.0001522  -0.0000121  -0.0862300   0.0001576  -0.0000117   0.0088050
    7  -0.0348419   0.0106698   0.0001159  -0.1777140  -0.1996464  -0.0000560
    8   0.0461891  -0.0831674  -0.0001890  -0.1638843  -0.4784500  -0.0000890
    9   0.0001488  -0.0001294   0.0194755  -0.0000125  -0.0000240  -0.0916358
   10  -0.1054612  -0.0012415   0.0003133  -0.0000413  -0.0075687  -0.0000054
   11  -0.0114695   0.0340425   0.0000251   0.0041849  -0.0075980  -0.0000128
   12   0.0002417   0.0000001   0.0180558   0.0000111   0.0000055   0.0020635
   13   0.4862378  -0.0078883  -0.0007970  -0.1600658   0.0874609   0.0002741
   14  -0.0078883   0.4819805   0.0004269   0.0479677  -0.1927621  -0.0002232
   15  -0.0007970   0.0004269   0.0853776   0.0002406  -0.0003127  -0.0601302
   16  -0.1600658   0.0479677   0.0002406   0.8508116   0.2366684  -0.0009700
   17   0.0874609  -0.1927621  -0.0003127   0.2366684   0.7809273   0.0002206
   18   0.0002741  -0.0002232  -0.0601302  -0.0009700   0.0002206   0.1603876
   19   0.0058965   0.0017728  -0.0000347   0.0001092   0.0009281  -0.0000007
   20  -0.0023539  -0.0003414   0.0000099  -0.0001437  -0.0005488  -0.0000010
   21  -0.0000301  -0.0000065  -0.0002076  -0.0000015  -0.0000043  -0.0000009
   22   0.0028776  -0.0048782   0.0000060   0.0122166  -0.0092634  -0.0000282
   23  -0.0015945  -0.0016485  -0.0000080   0.0120181  -0.0051739  -0.0000294
   24   0.0000117  -0.0000053   0.0099171  -0.0000071   0.0000134   0.0018063
   25  -0.0179067  -0.0053709   0.0000231  -0.3420560  -0.1014485   0.0003959
   26   0.0306410   0.0103889  -0.0000391  -0.1112800  -0.1060189   0.0001182
   27   0.0000656   0.0000201  -0.0015626   0.0003740   0.0000998  -0.0408291
           19          20          21          22          23          24
    1   0.0024806  -0.0006290  -0.0000146  -0.0134666  -0.0016913   0.0000219
    2  -0.0056325   0.0020352   0.0000274   0.0342079   0.0059868  -0.0000570
    3  -0.0000364   0.0000123  -0.0002787   0.0000543   0.0000079  -0.0015857
    4  -0.0111142   0.0041011   0.0000212  -0.0065983  -0.0020230   0.0000120
    5   0.0049248  -0.0028865  -0.0000071  -0.0067856   0.0005346   0.0000122
    6   0.0001217  -0.0000409   0.0009896   0.0000049   0.0000039   0.0002716
    7  -0.0007867   0.0003252   0.0000034  -0.0987352   0.1017379   0.0001951
    8  -0.0007001   0.0001555   0.0000032   0.0919817  -0.3500630  -0.0004389
    9   0.0000004   0.0000010   0.0000258   0.0001917  -0.0004576  -0.0413279
   10   0.0030334   0.0001512   0.0002188  -0.0010801  -0.0000472   0.0000029
   11   0.0002539   0.0070617  -0.0002256   0.0031646   0.0005222  -0.0000064
   12   0.0001459  -0.0001930   0.0055848   0.0000084   0.0000010   0.0007864
   13   0.0058965  -0.0023539  -0.0000301   0.0028776  -0.0015945   0.0000117
   14   0.0017728  -0.0003414  -0.0000065  -0.0048782  -0.0016485  -0.0000053
   15  -0.0000347   0.0000099  -0.0002076   0.0000060  -0.0000080   0.0099171
   16   0.0001092  -0.0001437  -0.0000015   0.0122166   0.0120181  -0.0000071
   17   0.0009281  -0.0005488  -0.0000043  -0.0092634  -0.0051739   0.0000134
   18  -0.0000007  -0.0000010  -0.0000009  -0.0000282  -0.0000294   0.0018063
   19  -0.0006403  -0.0011419  -0.0001926   0.0003620  -0.0004614  -0.0000018
   20  -0.0011419  -0.0058400   0.0002106  -0.0001381   0.0003221   0.0000008
   21  -0.0001926   0.0002106  -0.0061268  -0.0000020   0.0000019   0.0000078
   22   0.0003620  -0.0001381  -0.0000020   0.1047368  -0.1084578  -0.0002315
   23  -0.0004614   0.0003221   0.0000019  -0.1084578   0.3492675   0.0004782
   24  -0.0000018   0.0000008   0.0000078  -0.0002315   0.0004782   0.0328251
   25   0.0006594  -0.0001710  -0.0000027  -0.0003129   0.0005192  -0.0000033
   26   0.0000564   0.0000422   0.0000003   0.0001690   0.0002523   0.0000030
   27  -0.0000018   0.0000003   0.0000059  -0.0000038   0.0000020  -0.0027008
           25          26          27
    1   0.0033262  -0.0044564   0.0000071
    2  -0.0011984  -0.0021473  -0.0000074
    3   0.0000090  -0.0000043   0.0098842
    4   0.0019512   0.0002721  -0.0000020
    5   0.0050558  -0.0079738  -0.0000210
    6   0.0000024  -0.0000095   0.0002910
    7   0.0005791  -0.0189101  -0.0000133
    8   0.0023478   0.0065851   0.0000017
    9   0.0000044   0.0000357   0.0018515
   10  -0.0016812   0.0027405   0.0000071
   11  -0.0005017   0.0010972   0.0000022
   12   0.0000042  -0.0000067   0.0007756
   13  -0.0179067   0.0306410   0.0000656
   14  -0.0053709   0.0103889   0.0000201
   15   0.0000231  -0.0000391  -0.0015626
   16  -0.3420560  -0.1112800   0.0003740
   17  -0.1014485  -0.1060189   0.0000998
   18   0.0003959   0.0001182  -0.0408291
   19   0.0006594   0.0000564  -0.0000018
   20  -0.0001710   0.0000422   0.0000003
   21  -0.0000027   0.0000003   0.0000059
   22  -0.0003129   0.0001690  -0.0000038
   23   0.0005192   0.0002523   0.0000020
   24  -0.0000033   0.0000030  -0.0027008
   25   0.3554410   0.1007676  -0.0004329
   26   0.1007676   0.0977744  -0.0000976
   27  -0.0004329  -0.0000976   0.0322842
 Gradient time:  CPU 942.87 s  wall 396.87 s
 **********************************************************************
 **                                                                  **
 **                       VIBRATIONAL ANALYSIS                       **
 **                       --------------------                       **
 **                                                                  **
 **        VIBRATIONAL FREQUENCIES (CM**-1) AND NORMAL MODES         **
 **     FORCE CONSTANTS (mDYN/ANGSTROM) AND REDUCED MASSES (AMU)     **
 **                  INFRARED INTENSITIES (KM/MOL)                   **
 **                                                                  **
 **********************************************************************
 

 Mode:                 1                      2                      3
 Frequency:       -69.17                 117.81                 244.67
 Force Cnst:      0.0223                 0.0626                 0.2536
 Red. Mass:       7.9126                 7.6506                 7.1899
 IR Active:          YES                    YES                    YES
 IR Intens:      108.841                 47.084                 16.415
 Raman Active:       YES                    YES                    YES
               X      Y      Z        X      Y      Z        X      Y      Z
 O          0.004 -0.004 -0.069    0.105 -0.114  0.002   -0.086  0.037 -0.000
 C         -0.003 -0.005 -0.183   -0.064 -0.144  0.007   -0.052  0.020 -0.000
 C          0.005  0.002  0.155    0.128  0.064 -0.008   -0.084  0.033  0.001
 O         -0.006 -0.010 -0.403   -0.128 -0.279  0.014   -0.047  0.025  0.001
 O         -0.006  0.000 -0.014   -0.151  0.005  0.003   -0.086  0.032 -0.000
 C         -0.001  0.005  0.188   -0.027  0.137 -0.007   -0.083  0.033  0.001
 Li         0.014  0.026  0.749    0.306  0.734 -0.027    0.899 -0.368 -0.005
 H          0.010  0.004  0.259    0.259  0.114 -0.014   -0.087  0.032  0.002
 H         -0.002  0.010  0.333   -0.073  0.272 -0.012   -0.084  0.035  0.002
 TransDip  -0.007 -0.006 -0.334   -0.041 -0.216  0.009    0.127  0.017 -0.023

 Mode:                 4                      5                      6
 Frequency:       257.93                 530.00                 579.64
 Force Cnst:      0.2687                 1.4812                 0.7633
 Red. Mass:       6.8562                 8.9499                 3.8560
 IR Active:          YES                    YES                    YES
 IR Intens:        2.787                  3.687                  0.048
 Raman Active:       YES                    YES                    YES
               X      Y      Z        X      Y      Z        X      Y      Z
 O         -0.000 -0.000 -0.311    0.028 -0.288 -0.000   -0.000  0.000 -0.183
 C         -0.000 -0.000 -0.152   -0.114 -0.238 -0.000   -0.000 -0.000 -0.001
 C          0.001 -0.000  0.224    0.195  0.024 -0.001    0.001 -0.000  0.292
 O          0.001 -0.001  0.324    0.214  0.458 -0.000    0.000  0.000  0.001
 O         -0.001  0.000 -0.312   -0.239 -0.164  0.000    0.000 -0.000  0.182
 C          0.000  0.000  0.225   -0.103  0.163  0.001   -0.001  0.000 -0.289
 Li        -0.001  0.003  0.018   -0.009 -0.003  0.001   -0.000  0.000  0.000
 H          0.002 -0.000  0.533    0.448  0.120 -0.001    0.001 -0.001  0.608
 H          0.001  0.000  0.541   -0.191  0.424  0.002   -0.001  0.001 -0.628
 TransDip  -0.000 -0.001  0.053    0.000  0.061  0.001   -0.000  0.000 -0.007

 Mode:                 7                      8                      9
 Frequency:       737.42                 771.10                 787.32
 Force Cnst:      0.5600                 4.1253                 1.1023
 Red. Mass:       1.7478                11.7757                 3.0180
 IR Active:          YES                    YES                    YES
 IR Intens:      870.149                  9.619                611.088
 Raman Active:       YES                    YES                    YES
               X      Y      Z        X      Y      Z        X      Y      Z
 O         -0.000  0.000 -0.038   -0.243 -0.238  0.000   -0.000  0.000 -0.120
 C          0.000 -0.000  0.216    0.305 -0.147 -0.001    0.001 -0.001  0.336
 C         -0.000  0.000 -0.075   -0.297  0.130  0.000    0.000 -0.000  0.094
 O         -0.000  0.000 -0.054    0.452 -0.210 -0.001   -0.000  0.000 -0.084
 O         -0.000 -0.000 -0.036    0.028  0.336  0.001   -0.000  0.000 -0.121
 C         -0.000  0.000 -0.086   -0.289  0.151  0.001    0.000 -0.000  0.109
 Li         0.000 -0.000  0.001   -0.052  0.021  0.000    0.000 -0.000  0.001
 H          0.001 -0.001  0.663    0.107  0.293  0.001   -0.001  0.001 -0.610
 H          0.001 -0.001  0.703   -0.154 -0.267  0.001   -0.001  0.001 -0.677
 TransDip   0.008 -0.003  0.945   -0.095  0.028  0.008    0.010 -0.003  0.792

 Mode:                10                     11                     12
 Frequency:       869.29                 924.77                 962.67
 Force Cnst:      0.6002                 4.2094                 2.6169
 Red. Mass:       1.3482                 8.3541                 4.7927
 IR Active:          YES                    YES                    YES
 IR Intens:        0.022                 17.985                 57.507
 Raman Active:       YES                    YES                    YES
               X      Y      Z        X      Y      Z        X      Y      Z
 O         -0.000 -0.000  0.001   -0.313 -0.036  0.001    0.087  0.286  0.000
 C         -0.000  0.000 -0.002   -0.084 -0.176 -0.000    0.132 -0.061 -0.001
 C         -0.000  0.000 -0.129   -0.104  0.409  0.001   -0.097  0.038  0.000
 O         -0.000  0.000  0.001   -0.020 -0.039  0.000    0.186 -0.087 -0.000
 O          0.000  0.000  0.002    0.170 -0.265 -0.001   -0.167 -0.249  0.000
 C          0.000 -0.000  0.120    0.384  0.179 -0.001   -0.089  0.049  0.000
 Li         0.000 -0.000  0.000    0.000 -0.000 -0.000   -0.026  0.009  0.000
 H          0.002 -0.001  0.728   -0.203  0.400  0.001   -0.587 -0.137  0.001
 H         -0.001  0.001 -0.663    0.440  0.099 -0.001   -0.271  0.547  0.001
 TransDip  -0.000  0.000 -0.005    0.047  0.127 -0.000    0.216 -0.111  0.008

 Mode:                13                     14                     15
 Frequency:      1084.55                1117.49                1143.10
 Force Cnst:      3.3947                 1.6433                 1.9395
 Red. Mass:       4.8983                 2.2335                 2.5192
 IR Active:          YES                    YES                    YES
 IR Intens:       14.008                 40.493                 91.560
 Raman Active:       YES                    YES                    YES
               X      Y      Z        X      Y      Z        X      Y      Z
 O         -0.224  0.139  0.001   -0.135 -0.023  0.000   -0.036 -0.105 -0.000
 C         -0.022 -0.049 -0.000    0.025  0.002 -0.000    0.129  0.278  0.000
 C          0.266 -0.133 -0.001    0.103 -0.123 -0.000   -0.068  0.009  0.000
 O         -0.017 -0.043  0.000    0.028 -0.014 -0.000   -0.016 -0.028 -0.000
 O          0.239 -0.075 -0.001   -0.082  0.115  0.000   -0.045 -0.103 -0.000
 C         -0.256  0.117  0.001    0.175 -0.010 -0.000    0.032 -0.045 -0.000
 Li         0.000  0.000 -0.000   -0.004  0.001  0.000    0.000 -0.001 -0.000
 H          0.566 -0.029 -0.001   -0.529 -0.385  0.001    0.625  0.270 -0.001
 H         -0.387  0.474  0.001   -0.043  0.688  0.001   -0.197  0.609  0.001
 TransDip   0.058  0.105 -0.000    0.190 -0.074  0.001    0.138  0.274 -0.000

 Mode:                16                     17                     18
 Frequency:      1196.27                1378.76                1696.26
 Force Cnst:      1.9298                 2.5525                 9.4957
 Red. Mass:       2.2888                 2.2790                 5.6013
 IR Active:          YES                    YES                    YES
 IR Intens:      251.085                 41.654                  0.373
 Raman Active:       YES                    YES                    YES
               X      Y      Z        X      Y      Z        X      Y      Z
 O          0.118 -0.123 -0.000   -0.047 -0.086 -0.000    0.027  0.031 -0.000
 C         -0.037  0.011  0.000    0.087  0.185  0.000    0.026 -0.013 -0.000
 C         -0.117  0.012  0.000    0.151  0.023 -0.000   -0.243 -0.383  0.000
 O         -0.058  0.028  0.000   -0.011 -0.022 -0.000   -0.025  0.012  0.000
 O          0.174 -0.010 -0.000   -0.034 -0.091 -0.000   -0.006 -0.041 -0.000
 C         -0.085  0.083  0.000   -0.078  0.133  0.000    0.140  0.431  0.000
 Li         0.008 -0.003 -0.000    0.000 -0.000 -0.000    0.000  0.000 -0.000
 H         -0.651 -0.183  0.001   -0.617 -0.275  0.001    0.498 -0.215 -0.001
 H         -0.274  0.612  0.001    0.180 -0.635 -0.001    0.483 -0.238 -0.001
 TransDip  -0.461  0.212 -0.002    0.105  0.178 -0.000    0.015 -0.012 -0.000

 Mode:                19                     20         
 Frequency:      1860.75                3321.43         
 Force Cnst:     26.1758                 7.0982         
 Red. Mass:      12.8314                 1.0921         
 IR Active:          YES                    YES         
 IR Intens:     1087.197                 21.310         
 Raman Active:       YES                    YES         
               X      Y      Z        X      Y      Z   
 O         -0.042  0.015  0.000    0.001  0.000 -0.000  
 C          0.774 -0.365 -0.002    0.001  0.002  0.000  
 C         -0.009  0.050  0.000    0.022 -0.056 -0.000  
 O         -0.447  0.211  0.001   -0.000 -0.000 -0.000  
 O         -0.037  0.023  0.000   -0.000  0.001  0.000  
 C         -0.045 -0.025  0.000   -0.060 -0.020  0.000  
 Li        -0.009  0.003 -0.000   -0.000 -0.000 -0.000  
 H         -0.061  0.061  0.000   -0.246  0.646  0.001  
 H         -0.085  0.007  0.000    0.678  0.234 -0.001  
 TransDip   0.953 -0.455 -0.012    0.066  0.132 -0.000  

 STANDARD THERMODYNAMIC QUANTITIES AT   298.15 K  AND     1.00 ATM

   This Molecule has  1 Imaginary Frequencies
   Zero point vibrational energy:       32.776 kcal/mol

   Atom    1 Element O  Has Mass   15.99491
   Atom    2 Element C  Has Mass   12.00000
   Atom    3 Element C  Has Mass   12.00000
   Atom    4 Element O  Has Mass   15.99491
   Atom    5 Element O  Has Mass   15.99491
   Atom    6 Element C  Has Mass   12.00000
   Atom    7 Element Li Has Mass    7.01600
   Atom    8 Element H  Has Mass    1.00783
   Atom    9 Element H  Has Mass    1.00783
   Molecular Mass:    93.016390 amu
   Principal axes and moments of inertia in amu*Bohr^2:
                             1           2           3
    Eigenvalues --      188.72937   789.35977   978.08538
          X               0.92007     0.39173     0.00335
          Y              -0.39173     0.92008    -0.00156
          Z              -0.00369     0.00012     0.99999
   Rotational Symmetry Number is   1
   The Molecule is an Asymmetric Top
   Translational Enthalpy:        0.889 kcal/mol
   Rotational Enthalpy:           0.889 kcal/mol
   Vibrational Enthalpy:         34.385 kcal/mol
   gas constant (RT):             0.592 kcal/mol
   Translational Entropy:        39.502  cal/mol.K
   Rotational Entropy:           26.480  cal/mol.K
   Vibrational Entropy:           9.007  cal/mol.K

   Total Enthalpy:               36.755 kcal/mol
   Total Entropy:                74.989  cal/mol.K
Archival summary:
1\1\nid00488\FREQ\ProcedureUnspecified\BasisUnspecified\33i12(2)\sblau\ThuApr512:46:082018ThuApr512:46:082018\0\\#,FREQ,ProcedureUnspecified,BasisUnspecified,\\0,2\O\C,1,1.33998\O,2,1.19858,1,125.553\O,2,1.33993,1,109.207,3,-179.986,0\C,4,1.38319,2,107.273,1,0.0148154,0\H,5,1.07453,4,117.684,2,179.982,0\C,5,1.3234,4,108.132,2,-0.00496112,0\H,7,1.07452,5,134.077,4,179.99,0\Li,3,2.0517,2,172.766,1,-2.53887,0\\\@

 Total job time:  407.38s(wall), 1061.02s(cpu) 
 Thu Apr  5 12:46:08 2018

        *************************************************************
        *                                                           *
        *  Thank you very much for using Q-Chem.  Have a nice day.  *
        *                                                           *
        *************************************************************


0 sent ACK to 0 
now end server 0 ... 
cleanup process ... done
remove work dirs /tmp/qchem52393.0 -- /tmp/qchem52393.0
rm -rf /tmp/qchem52393.0
rm -rf /tmp/qchem52393
