Jobname.Temp
FREQ      U                             6-311++G(d,p)       
Number of atoms                            I                9
Charge                                     I                0
Multiplicity                               I                2
Number of electrons                        I               47
Number of alpha electrons                  I               24
Number of beta electrons                   I               23
Atomic numbers                             I   N=           9
           8           6           6           8           8           6
           3           1           1
Current cartesian coordinates              R   N=          27
  1.58699724E+00  2.19458836E-01 -2.83833136E-03  2.03456300E+00 -2.27285829E+00
 -6.70252417E-03 -1.00766409E+00  5.41234703E-01  2.02824413E-03  4.08106972E+00
 -3.24341824E+00 -1.24926576E-02 -1.71703488E-01 -3.51539615E+00 -3.66660780E-03
 -2.07276865E+00 -1.72147086E+00  1.69453028E-03  7.76528834E+00 -4.45084320E+00
 -4.39285131E-02 -1.72592806E+00  2.44049567E+00  5.04801584E-03 -3.99297559E+00
 -2.38179774E+00  4.16606007E-03
Nuclear charges                            R   N=           9
  8.00000000E+00  6.00000000E+00  6.00000000E+00  8.00000000E+00  8.00000000E+00
  6.00000000E+00  3.00000000E+00  1.00000000E+00  1.00000000E+00
Number of basis functions                  I              168
Number of contracted shells                I               52
Number of primitive shells                 I              105
Highest angular momentum                   I                2
Largest degree of contraction              I                6
Shell types                                I   N=          52
           0          -1          -1          -1          -1          -2
           0          -1          -1          -1          -1          -2
           0          -1          -1          -1          -1          -2
           0          -1          -1          -1          -1          -2
           0          -1          -1          -1          -1          -2
           0          -1          -1          -1          -1          -2
           0          -1          -1          -1          -1          -2
           0           0           0           0           1           0
           0           0           0           1
Number of primitives per shell             I   N=          52
           6           3           1           1           1           1
           6           3           1           1           1           1
           6           3           1           1           1           1
           6           3           1           1           1           1
           6           3           1           1           1           1
           6           3           1           1           1           1
           6           3           1           1           1           1
           3           1           1           1           1           3
           1           1           1           1
Shell to atom map                          I   N=          52
           1           1           1           1           1           1
           2           2           2           2           2           2
           3           3           3           3           3           3
           4           4           4           4           4           4
           5           5           5           5           5           5
           6           6           6           6           6           6
           7           7           7           7           7           7
           8           8           8           8           8           9
           9           9           9           9
Primitive exponents                        R   N=         105
  8.58850000E+03  1.29723000E+03  2.99296000E+02  8.73771000E+01  2.56789000E+01
  3.74004000E+00  4.21175000E+01  9.62837000E+00  2.85332000E+00  9.05661000E-01
  2.55611000E-01  8.45000000E-02  1.29200000E+00  4.56324000E+03  6.82024000E+02
  1.54973000E+02  4.44553000E+01  1.30290000E+01  1.82773000E+00  2.09642000E+01
  4.80331000E+00  1.45933000E+00  4.83456000E-01  1.45585000E-01  4.38000000E-02
  6.26000000E-01  4.56324000E+03  6.82024000E+02  1.54973000E+02  4.44553000E+01
  1.30290000E+01  1.82773000E+00  2.09642000E+01  4.80331000E+00  1.45933000E+00
  4.83456000E-01  1.45585000E-01  4.38000000E-02  6.26000000E-01  8.58850000E+03
  1.29723000E+03  2.99296000E+02  8.73771000E+01  2.56789000E+01  3.74004000E+00
  4.21175000E+01  9.62837000E+00  2.85332000E+00  9.05661000E-01  2.55611000E-01
  8.45000000E-02  1.29200000E+00  8.58850000E+03  1.29723000E+03  2.99296000E+02
  8.73771000E+01  2.56789000E+01  3.74004000E+00  4.21175000E+01  9.62837000E+00
  2.85332000E+00  9.05661000E-01  2.55611000E-01  8.45000000E-02  1.29200000E+00
  4.56324000E+03  6.82024000E+02  1.54973000E+02  4.44553000E+01  1.30290000E+01
  1.82773000E+00  2.09642000E+01  4.80331000E+00  1.45933000E+00  4.83456000E-01
  1.45585000E-01  4.38000000E-02  6.26000000E-01  9.00460000E+02  1.34433000E+02
  3.04365000E+01  8.62639000E+00  2.48332000E+00  3.03179000E-01  4.86890000E+00
  8.56924000E-01  2.43227000E-01  6.35070000E-02  2.43683000E-02  7.40000000E-03
  2.00000000E-01  3.38650000E+01  5.09479000E+00  1.15879000E+00  3.25840000E-01
  1.02741000E-01  3.60000000E-02  7.50000000E-01  3.38650000E+01  5.09479000E+00
  1.15879000E+00  3.25840000E-01  1.02741000E-01  3.60000000E-02  7.50000000E-01
Contraction coefficients                   R   N=         105
  1.89515008E-03  1.43859006E-02  7.07320031E-02  2.40001011E-01  5.94797026E-01
  2.80802012E-01  1.13889012E-01  9.20811101E-01 -3.27447036E-03  1.00000000E+00
  1.00000000E+00  1.00000000E+00  1.00000000E+00  1.96665025E-03  1.52306019E-02
  7.61269097E-02  2.60801033E-01  6.16462078E-01  2.21006028E-01  1.14660081E-01
  9.19999648E-01 -3.03068213E-03  1.00000000E+00  1.00000000E+00  1.00000000E+00
  1.00000000E+00  1.96665025E-03  1.52306019E-02  7.61269097E-02  2.60801033E-01
  6.16462078E-01  2.21006028E-01  1.14660081E-01  9.19999648E-01 -3.03068213E-03
  1.00000000E+00  1.00000000E+00  1.00000000E+00  1.00000000E+00  1.89515008E-03
  1.43859006E-02  7.07320031E-02  2.40001011E-01  5.94797026E-01  2.80802012E-01
  1.13889012E-01  9.20811101E-01 -3.27447036E-03  1.00000000E+00  1.00000000E+00
  1.00000000E+00  1.00000000E+00  1.89515008E-03  1.43859006E-02  7.07320031E-02
  2.40001011E-01  5.94797026E-01  2.80802012E-01  1.13889012E-01  9.20811101E-01
 -3.27447036E-03  1.00000000E+00  1.00000000E+00  1.00000000E+00  1.00000000E+00
  1.96665025E-03  1.52306019E-02  7.61269097E-02  2.60801033E-01  6.16462078E-01
  2.21006028E-01  1.14660081E-01  9.19999648E-01 -3.03068213E-03  1.00000000E+00
  1.00000000E+00  1.00000000E+00  1.00000000E+00  2.28704037E-03  1.76350029E-02
  8.73434143E-02  2.80977046E-01  6.58741108E-01  1.18712019E-01  9.33292995E-02
  9.43044995E-01 -2.79826999E-03  1.00000000E+00  1.00000000E+00  1.00000000E+00
  1.00000000E+00  2.54938145E-02  1.90373109E-01  8.52161486E-01  1.00000000E+00
  1.00000000E+00  1.00000000E+00  1.00000000E+00  2.54938145E-02  1.90373109E-01
  8.52161486E-01  1.00000000E+00  1.00000000E+00  1.00000000E+00  1.00000000E+00
P(S=P) Contraction coefficients            R   N=         105
  0.00000000E+00  0.00000000E+00  0.00000000E+00  0.00000000E+00  0.00000000E+00
  0.00000000E+00  3.65113974E-02  2.37152983E-01  8.19701941E-01  1.00000000E+00
  1.00000000E+00  1.00000000E+00  0.00000000E+00  0.00000000E+00  0.00000000E+00
  0.00000000E+00  0.00000000E+00  0.00000000E+00  0.00000000E+00  4.02486927E-02
  2.37593957E-01  8.15853851E-01  1.00000000E+00  1.00000000E+00  1.00000000E+00
  0.00000000E+00  0.00000000E+00  0.00000000E+00  0.00000000E+00  0.00000000E+00
  0.00000000E+00  0.00000000E+00  4.02486927E-02  2.37593957E-01  8.15853851E-01
  1.00000000E+00  1.00000000E+00  1.00000000E+00  0.00000000E+00  0.00000000E+00
  0.00000000E+00  0.00000000E+00  0.00000000E+00  0.00000000E+00  0.00000000E+00
  3.65113974E-02  2.37152983E-01  8.19701941E-01  1.00000000E+00  1.00000000E+00
  1.00000000E+00  0.00000000E+00  0.00000000E+00  0.00000000E+00  0.00000000E+00
  0.00000000E+00  0.00000000E+00  0.00000000E+00  3.65113974E-02  2.37152983E-01
  8.19701941E-01  1.00000000E+00  1.00000000E+00  1.00000000E+00  0.00000000E+00
  0.00000000E+00  0.00000000E+00  0.00000000E+00  0.00000000E+00  0.00000000E+00
  0.00000000E+00  4.02486927E-02  2.37593957E-01  8.15853851E-01  1.00000000E+00
  1.00000000E+00  1.00000000E+00  0.00000000E+00  0.00000000E+00  0.00000000E+00
  0.00000000E+00  0.00000000E+00  0.00000000E+00  0.00000000E+00  3.27660966E-02
  1.59791983E-01  8.85666908E-01  1.00000000E+00  1.00000000E+00  1.00000000E+00
  0.00000000E+00  0.00000000E+00  0.00000000E+00  0.00000000E+00  0.00000000E+00
  0.00000000E+00  0.00000000E+00  0.00000000E+00  0.00000000E+00  0.00000000E+00
  0.00000000E+00  0.00000000E+00  0.00000000E+00  0.00000000E+00  0.00000000E+00
Coordinates of each shell                  R   N=         156
  1.58699724E+00  2.19458836E-01 -2.83833136E-03  1.58699724E+00  2.19458836E-01
 -2.83833136E-03  1.58699724E+00  2.19458836E-01 -2.83833136E-03  1.58699724E+00
  2.19458836E-01 -2.83833136E-03  1.58699724E+00  2.19458836E-01 -2.83833136E-03
  1.58699724E+00  2.19458836E-01 -2.83833136E-03  2.03456300E+00 -2.27285829E+00
 -6.70252417E-03  2.03456300E+00 -2.27285829E+00 -6.70252417E-03  2.03456300E+00
 -2.27285829E+00 -6.70252417E-03  2.03456300E+00 -2.27285829E+00 -6.70252417E-03
  2.03456300E+00 -2.27285829E+00 -6.70252417E-03  2.03456300E+00 -2.27285829E+00
 -6.70252417E-03 -1.00766409E+00  5.41234703E-01  2.02824413E-03 -1.00766409E+00
  5.41234703E-01  2.02824413E-03 -1.00766409E+00  5.41234703E-01  2.02824413E-03
 -1.00766409E+00  5.41234703E-01  2.02824413E-03 -1.00766409E+00  5.41234703E-01
  2.02824413E-03 -1.00766409E+00  5.41234703E-01  2.02824413E-03  4.08106972E+00
 -3.24341824E+00 -1.24926576E-02  4.08106972E+00 -3.24341824E+00 -1.24926576E-02
  4.08106972E+00 -3.24341824E+00 -1.24926576E-02  4.08106972E+00 -3.24341824E+00
 -1.24926576E-02  4.08106972E+00 -3.24341824E+00 -1.24926576E-02  4.08106972E+00
 -3.24341824E+00 -1.24926576E-02 -1.71703488E-01 -3.51539615E+00 -3.66660780E-03
 -1.71703488E-01 -3.51539615E+00 -3.66660780E-03 -1.71703488E-01 -3.51539615E+00
 -3.66660780E-03 -1.71703488E-01 -3.51539615E+00 -3.66660780E-03 -1.71703488E-01
 -3.51539615E+00 -3.66660780E-03 -1.71703488E-01 -3.51539615E+00 -3.66660780E-03
 -2.07276865E+00 -1.72147086E+00  1.69453028E-03 -2.07276865E+00 -1.72147086E+00
  1.69453028E-03 -2.07276865E+00 -1.72147086E+00  1.69453028E-03 -2.07276865E+00
 -1.72147086E+00  1.69453028E-03 -2.07276865E+00 -1.72147086E+00  1.69453028E-03
 -2.07276865E+00 -1.72147086E+00  1.69453028E-03  7.76528834E+00 -4.45084320E+00
 -4.39285131E-02  7.76528834E+00 -4.45084320E+00 -4.39285131E-02  7.76528834E+00
 -4.45084320E+00 -4.39285131E-02  7.76528834E+00 -4.45084320E+00 -4.39285131E-02
  7.76528834E+00 -4.45084320E+00 -4.39285131E-02  7.76528834E+00 -4.45084320E+00
 -4.39285131E-02 -1.72592806E+00  2.44049567E+00  5.04801584E-03 -1.72592806E+00
  2.44049567E+00  5.04801584E-03 -1.72592806E+00  2.44049567E+00  5.04801584E-03
 -1.72592806E+00  2.44049567E+00  5.04801584E-03 -1.72592806E+00  2.44049567E+00
  5.04801584E-03 -3.99297559E+00 -2.38179774E+00  4.16606007E-03 -3.99297559E+00
 -2.38179774E+00  4.16606007E-03 -3.99297559E+00 -2.38179774E+00  4.16606007E-03
 -3.99297559E+00 -2.38179774E+00  4.16606007E-03 -3.99297559E+00 -2.38179774E+00
  4.16606007E-03
Overlap Matrix                             R   N=       14196
  1.00000000E+00  9.01978651E-01  1.00000000E+00 -3.59461562E-16 -2.37219136E-17
  1.00000000E+00 -3.35142453E-17  6.73810160E-17  0.00000000E+00  1.00000000E+00
  1.51082803E-19 -8.03225669E-19 -8.60399224E-35 -7.55194842E-35  1.00000000E+00
  3.52480886E-01  4.01486367E-01 -4.86382939E-16 -5.87743698E-17  2.67945934E-19
  1.00000000E+00  9.17634487E-18  1.09463927E-18  6.11992348E-01  2.56945727E-32
  0.00000000E+00  0.00000000E+00  1.00000000E+00  1.04527320E-17  1.06239636E-18
  2.56945727E-32  6.11992348E-01  0.00000000E+00  0.00000000E+00  0.00000000E+00
  1.00000000E+00  4.60351184E-24  3.19077053E-19  0.00000000E+00  0.00000000E+00
  6.11992348E-01  8.25435406E-19  0.00000000E+00  0.00000000E+00  1.00000000E+00
  1.57945028E-01  1.70297476E-01 -2.50395955E-16  7.30603225E-18  4.89054599E-19
  7.54315385E-01  0.00000000E+00  0.00000000E+00  6.22638626E-19  1.00000000E+00
  1.00433470E-17  2.99382863E-19  1.97194908E-01  0.00000000E+00 -1.09803792E-34
  0.00000000E+00  6.25059859E-01  0.00000000E+00  0.00000000E+00  0.00000000E+00
  1.00000000E+00  2.72426519E-18  4.62207431E-18  0.00000000E+00  1.97194908E-01
  0.00000000E+00  0.00000000E+00  0.00000000E+00  6.25059859E-01  0.00000000E+00
  0.00000000E+00  0.00000000E+00  1.00000000E+00 -4.62492473E-20 -5.84732155E-22
 -1.09803792E-34  0.00000000E+00  1.97194908E-01  3.30782858E-19  0.00000000E+00
  0.00000000E+00  6.25059859E-01  0.00000000E+00  0.00000000E+00  0.00000000E+00
  1.00000000E+00  7.19421353E-02  7.61173868E-02  2.81296859E-18  1.19369082E-17
  5.10900087E-20  4.17689012E-01  1.76524953E-16  0.00000000E+00  0.00000000E+00
  8.03417269E-01 -1.80385304E-16  0.00000000E+00  0.00000000E+00  1.00000000E+00
 -1.21558494E-22  3.93020602E-19  5.65704101E-02  4.53913888E-35  0.00000000E+00
  5.39202163E-17  2.33393317E-01  0.00000000E+00  0.00000000E+00 -1.03714562E-16
  6.94334274E-01  0.00000000E+00  0.00000000E+00  0.00000000E+00  1.00000000E+00
 -4.31142627E-19 -1.15043500E-18  4.53913888E-35  5.65704101E-02 -8.24412495E-37
  0.00000000E+00  0.00000000E+00  2.33393317E-01  0.00000000E+00  0.00000000E+00
  0.00000000E+00  6.94334274E-01  0.00000000E+00  0.00000000E+00  0.00000000E+00
  1.00000000E+00  6.30641749E-21  1.85836022E-20  0.00000000E+00 -8.24412495E-37
  5.65704101E-02  0.00000000E+00  0.00000000E+00  0.00000000E+00  2.33393317E-01
  0.00000000E+00  0.00000000E+00  0.00000000E+00  6.94334274E-01  0.00000000E+00
  0.00000000E+00  0.00000000E+00  1.00000000E+00  0.00000000E+00  0.00000000E+00
 -1.96590644E-16  0.00000000E+00  2.79897322E-21  0.00000000E+00 -2.80220118E-16
 -3.50275148E-17  0.00000000E+00  0.00000000E+00 -1.38520448E-16  0.00000000E+00
  0.00000000E+00  0.00000000E+00 -4.65397803E-17 -5.81747254E-18  0.00000000E+00
  1.00000000E+00 -1.14234510E-34 -1.12299149E-35  2.42398191E-21  0.00000000E+00
  3.40504983E-16  0.00000000E+00  0.00000000E+00  0.00000000E+00  4.85355482E-16
  0.00000000E+00  0.00000000E+00  0.00000000E+00  2.39924453E-16  0.00000000E+00
  0.00000000E+00  0.00000000E+00  8.06092640E-17  0.00000000E+00  1.00000000E+00
 -3.49224092E-35  0.00000000E+00  0.00000000E+00  2.42398191E-21  0.00000000E+00
  0.00000000E+00  0.00000000E+00  0.00000000E+00  6.06694352E-17  0.00000000E+00
  0.00000000E+00  0.00000000E+00  0.00000000E+00  0.00000000E+00  0.00000000E+00
  0.00000000E+00  1.00761580E-17  0.00000000E+00  0.00000000E+00  1.00000000E+00
  0.00000000E+00  0.00000000E+00  3.40504983E-16  0.00000000E+00  0.00000000E+00
  0.00000000E+00  4.85355482E-16 -6.06694352E-17  0.00000000E+00  0.00000000E+00
  2.39924453E-16  0.00000000E+00  0.00000000E+00  0.00000000E+00  8.06092640E-17
 -1.00761580E-17  0.00000000E+00  0.00000000E+00  0.00000000E+00  0.00000000E+00
  1.00000000E+00  7.30375374E-33  0.00000000E+00  0.00000000E+00  3.40504983E-16
  0.00000000E+00  3.11091429E-32  6.06694352E-17  4.85355482E-16  0.00000000E+00
  0.00000000E+00  0.00000000E+00  2.39924453E-16  0.00000000E+00  1.05945632E-32
  1.00761580E-17  8.06092640E-17  0.00000000E+00  0.00000000E+00  0.00000000E+00
  0.00000000E+00  0.00000000E+00  1.00000000E+00  2.24418086E-05  6.26284897E-06
  8.23363032E-05 -4.58498392E-04 -7.10875101E-07  5.23707719E-03  3.23411533E-03
 -1.80095125E-02 -2.79227020E-05  4.90404624E-02  2.04821821E-02 -1.14057192E-01
 -1.76839045E-04  6.21104464E-02  1.57218496E-02 -8.75487784E-02 -1.35739291E-04
 -6.82304389E-03 -6.37522708E-06  3.55011247E-05 -1.10795103E-02 -4.11187755E-03
  1.00000000E+00 -5.97594371E-07 -4.77918438E-07  4.61480052E-06 -2.56980036E-05
 -3.98432606E-08  4.36943219E-03  3.15811661E-03 -1.75863056E-02 -2.72665444E-05
  5.81297247E-02  2.50384377E-02 -1.39429182E-01 -2.16176841E-04  7.43476631E-02
  1.90269808E-02 -1.05953750E-01 -1.64275130E-04 -5.92938467E-03 -5.54022138E-06
  3.08513074E-05 -9.62835347E-03 -3.57331772E-03  8.78443835E-01  1.00000000E+00
 -2.05745811E-04 -1.14906928E-04  7.42872263E-04  2.63923247E-03  4.09197650E-06
 -9.35348269E-03  1.69748810E-02  2.77605355E-02  4.30410964E-05 -2.10767955E-02
  8.49611375E-02  4.55708105E-02  7.06548923E-05 -9.52500717E-03  7.08624739E-02
  1.30815542E-02  2.02821892E-05  1.11525361E-02 -3.47724463E-05 -7.48003130E-05
  2.89276381E-02 -2.24274429E-02 -1.56497125E-16  6.25028583E-16  1.00000000E+00
  1.14571726E-03  6.39871351E-04  2.63923247E-03 -1.34800237E-02 -2.27866029E-05
  5.20858554E-02  2.77605355E-02 -1.32627404E-01 -2.39678887E-04  1.17368360E-01
  4.55708105E-02 -1.60621207E-01 -3.93449223E-04  5.30410075E-02  1.30815542E-02
  3.65620695E-04 -1.12943511E-04 -6.21040743E-02 -7.48003130E-05  3.68328486E-04
 -9.89043964E-02 -4.26612296E-02  8.80100812E-17 -6.25028583E-16 -6.29512949E-31
  1.00000000E+00  1.77636800E-06  9.92083328E-07  4.09197650E-06 -2.27866029E-05
  1.21678548E-03  8.07560905E-05  4.30410964E-05 -2.39678887E-04  2.19596956E-02
  1.81972818E-04  7.06548923E-05 -3.93449223E-04  9.31440504E-02  8.22369984E-05
  2.02821892E-05 -1.12943511E-04  7.32114604E-02 -1.79782179E-04  5.58316772E-03
 -3.10904586E-02 -2.01550466E-04 -7.48003130E-05  1.58579332E-19 -2.30633469E-18
 -2.45903496E-33  2.45903496E-33  1.00000000E+00  1.38370411E-02  1.37937985E-02
  7.95770464E-03 -4.43133180E-02 -6.87052233E-05  1.23225564E-01  3.65332763E-02
 -2.03439404E-01 -3.15420968E-04  3.17581126E-01  9.40165784E-02 -5.23541237E-01
 -8.11720251E-04  3.78604620E-01  8.38577817E-02 -4.66970906E-01 -7.24011241E-04
 -6.24347307E-02 -5.83369522E-05  3.24855474E-04 -1.01383818E-01 -3.76260172E-02
  3.29179496E-01  4.18799588E-01  7.03849384E-16 -7.03849384E-16 -1.37470583E-18
  1.00000000E+00 -7.91119983E-03 -8.19472082E-03  2.13074297E-02  2.37437078E-02
  3.68132386E-05 -5.00026449E-02  1.02571474E-01  8.25519309E-02  1.27991969E-04
 -6.83621533E-02  2.81874891E-01  1.12696893E-01  1.74729981E-04 -3.50584933E-02
  2.61703359E-01  4.32411426E-02  6.70428777E-05  1.57420845E-02 -1.61038158E-04
 -1.47132329E-04  6.76307125E-02 -1.03865977E-01  3.58669575E-21 -1.50490636E-18
  6.29120213E-01 -4.34668760E-31 -8.48962423E-34  0.00000000E+00  1.00000000E+00
  4.40543510E-02  4.56331676E-02  2.37437078E-02 -1.06648061E-01 -2.04998403E-04
  2.78445004E-01  8.25519309E-02 -3.42303139E-01 -7.12736787E-04  3.80681864E-01
  1.12696893E-01 -3.25451749E-01 -9.73002338E-04  1.95226919E-01  4.32411426E-02
  2.86756591E-02 -3.73335339E-04 -8.76614587E-02 -1.47132329E-04  6.31861988E-04
 -1.34793935E-01 -7.31846988E-02 -8.79415803E-17  1.50490636E-18 -4.34668760E-31
  6.29120213E-01  8.48962423E-34 -6.17559339E-16  0.00000000E+00  1.00000000E+00
  6.83037101E-05  7.07515733E-05  3.68132386E-05 -2.04998403E-04  2.55709635E-02
  4.31712791E-04  1.27991969E-04 -7.12736787E-04  1.17394894E-01  5.90225098E-04
  1.74729981E-04 -9.73002338E-04  3.02111285E-01  3.02687988E-04  6.70428777E-05
 -3.73335339E-04  2.69467946E-01 -4.60604089E-04  2.17121039E-02 -1.20906142E-01
 -3.96450073E-04 -1.47132329E-04  1.42272919E-19  2.93927023E-21 -8.48962423E-34
  8.48962423E-34  6.29120213E-01  0.00000000E+00  0.00000000E+00  0.00000000E+00
  1.00000000E+00  4.28599791E-02  4.51990079E-02  7.45384449E-03 -4.15075195E-02
 -6.43549959E-05  2.56912952E-01  3.03087447E-02 -1.68777443E-01 -2.61679613E-04
  5.20280340E-01  8.54425233E-02 -4.75795707E-01 -7.37693582E-04  6.71899073E-01
  1.10623543E-01 -6.16018874E-01 -9.55101449E-04 -1.98707117E-02 -1.85665374E-05
  1.03389722E-04 -3.22667944E-02 -1.19749975E-02  1.53761267E-01  1.87145450E-01
  0.00000000E+00  3.92095524E-16  5.66819900E-19  7.74696784E-01  0.00000000E+00
  0.00000000E+00  9.34416473E-19  1.00000000E+00 -1.42685192E-02 -1.52188641E-02
  4.12203246E-02  1.35192228E-02  2.09607690E-05 -7.55948949E-02  1.68563233E-01
  4.96616189E-02  7.69974528E-05 -1.13215404E-01  4.81740029E-01  1.03535342E-01
  1.60525529E-04 -8.42786565E-02  6.33911359E-01  7.72694071E-02  1.19801723E-04
 -1.17090801E-03 -1.03022495E-04 -3.17359505E-05  2.24969946E-02 -6.64471838E-02
 -3.90998848E-19  0.00000000E+00  2.20230251E-01  0.00000000E+00  0.00000000E+00
  0.00000000E+00  6.53460872E-01  0.00000000E+00  0.00000000E+00  0.00000000E+00
  1.00000000E+00  7.94557548E-02  8.47478505E-02  1.35192228E-02 -3.16351369E-02
 -1.16722254E-04  4.20958149E-01  4.96616189E-02 -9.90645893E-02 -4.28768441E-04
  6.30451922E-01  1.03535342E-01 -7.62147616E-02 -8.93903345E-04  4.69314592E-01
  7.72694071E-02  2.17504411E-01 -6.67128538E-04  6.52032482E-03 -3.17359505E-05
  6.80034097E-05  1.49690404E-02 -7.87641788E-03 -2.57732556E-20  2.16947923E-18
  0.00000000E+00  2.20230251E-01  2.52230416E-34  0.00000000E+00  0.00000000E+00
  6.53460872E-01  0.00000000E+00  3.38889827E-16  0.00000000E+00  1.00000000E+00
  1.23191528E-04  1.31396615E-04  2.09607690E-05 -1.16722254E-04  4.36479010E-02
  6.52671137E-04  7.69974528E-05 -4.28768441E-04  1.77480711E-01  9.77479052E-04
  1.60525529E-04 -8.93903345E-04  5.00331330E-01  7.27644989E-04  1.19801723E-04
 -6.67128538E-04  6.47786224E-01 -1.78201915E-04  1.25925045E-02 -7.01226903E-02
 -8.55129525E-05 -3.17359505E-05  1.34078614E-19 -1.20506493E-19  0.00000000E+00
  2.52230416E-34  2.20230251E-01  5.12767303E-19  0.00000000E+00  0.00000000E+00
  6.53460872E-01  0.00000000E+00  0.00000000E+00  0.00000000E+00  1.00000000E+00
  3.36218213E-02  3.53671751E-02  1.82692852E-03 -1.01734443E-02 -1.57733339E-05
  2.07881831E-01  8.16926887E-03 -4.54914357E-02 -7.05318263E-05  4.67527247E-01
  3.09520842E-02 -1.72359947E-01 -2.67234077E-04  7.67578250E-01  6.81844454E-02
 -3.79692279E-01 -5.88690804E-04 -1.66610117E-03 -1.55674996E-06  8.66892642E-06
 -2.70547652E-03 -1.00406858E-03  6.55624968E-02  7.83157104E-02  0.00000000E+00
  0.00000000E+00  8.31819370E-20  4.10096437E-01  2.53258885E-16 -2.53258885E-16
 -4.94646260E-19  7.74407735E-01  0.00000000E+00  2.62438903E-16 -5.12575983E-19
  1.00000000E+00 -6.24940761E-03 -6.59709565E-03  1.91668735E-02  1.87831634E-03
  2.91222029E-06 -3.71474466E-02  8.57548111E-02  8.12909274E-03  1.26036857E-05
 -7.47726225E-02  3.25492341E-01  2.75658913E-02  4.27393118E-05 -9.47058075E-02
  7.19520227E-01  4.68474242E-02  7.26342076E-05 -8.09491187E-04 -1.63376936E-05
 -1.57076165E-06  2.41518323E-03 -1.05374436E-02  4.50219812E-18  0.00000000E+00
  5.73499015E-02  0.00000000E+00  0.00000000E+00  7.62295346E-17  2.26365373E-01
 -4.70762611E-32 -9.19458224E-35  0.00000000E+00  6.53054566E-01  0.00000000E+00
  0.00000000E+00  0.00000000E+00  1.00000000E+00  3.48004857E-02  3.67366233E-02
  1.87831634E-03  9.04457531E-03 -1.62170060E-05  2.06859476E-01  8.12909274E-03
  4.19469080E-02 -7.01849537E-05  4.16379238E-01  2.75658913E-02  1.76938999E-01
 -2.37998367E-04  5.27379282E-01  4.68474242E-02  4.67058176E-01 -4.04471249E-04
  4.50773709E-03 -1.57076165E-06 -7.87281610E-06  7.98954779E-03  9.11860005E-04
 -1.20878349E-17  0.00000000E+00  0.00000000E+00  5.73499015E-02  0.00000000E+00
 -7.62295346E-17 -4.70762611E-32  2.26365373E-01  9.19458224E-35  1.43948437E-16
  0.00000000E+00  6.53054566E-01 -9.52786347E-35  0.00000000E+00  0.00000000E+00
  1.00000000E+00  5.39561298E-05  5.69579986E-05  2.91222029E-06 -1.62170060E-05
  1.95041529E-02  3.20723592E-04  1.26036857E-05 -7.01849537E-05  8.72145099E-02
  6.45571802E-04  4.27393118E-05 -2.37998367E-04  3.30442204E-01  8.17670917E-04
  7.26342076E-05 -4.04471249E-04  7.27932374E-01 -2.17972985E-05  1.92496338E-03
 -1.07193617E-02 -4.23243875E-06 -1.57076165E-06 -1.02801172E-20  2.86472492E-20
  0.00000000E+00  0.00000000E+00  5.73499015E-02 -1.48885810E-19 -9.19458224E-35
  9.19458224E-35  2.26365373E-01 -2.81149291E-19  0.00000000E+00 -9.52786347E-35
  6.53054566E-01  0.00000000E+00  0.00000000E+00  0.00000000E+00  1.00000000E+00
 -2.83658006E-02 -2.96727766E-02 -1.30652810E-02  7.27553957E-02  2.58613083E-04
 -1.47178454E-01 -2.96516033E-02  1.65118082E-01  8.15225961E-04 -1.05186933E-01
 -4.75656731E-03  2.64874470E-02  7.93371113E-04 -2.11869762E-02  5.31780598E-03
 -2.96127637E-02  2.17636450E-04  8.73819747E-02  1.66767601E-04 -9.28662983E-04
  5.50739127E-02  2.04392775E-02  0.00000000E+00  0.00000000E+00 -2.66309672E-16
 -1.06531402E-18 -1.04027216E-18  0.00000000E+00  0.00000000E+00  0.00000000E+00
  0.00000000E+00  0.00000000E+00 -2.19763726E-16  0.00000000E+00  0.00000000E+00
  0.00000000E+00  0.00000000E+00  0.00000000E+00 -5.44865704E-19  1.00000000E+00
 -2.65040681E-05 -2.77252633E-05  6.67157644E-05  9.72708417E-05 -9.75030589E-03
 -1.37518691E-04  2.74987022E-04  2.66618044E-04 -3.73951524E-02 -9.82831992E-05
  4.02759851E-04  1.75873208E-04 -5.03069947E-02 -1.97964115E-05  1.47621774E-04
  2.52730918E-05 -1.76237517E-02  1.66767601E-04  4.44340750E-02  5.02993116E-02
  2.75675809E-04 -3.60912515E-04  0.00000000E+00  2.56551102E-36 -9.00902115E-19
  0.00000000E+00  4.61261883E-16  0.00000000E+00  0.00000000E+00  0.00000000E+00
  0.00000000E+00  0.00000000E+00  0.00000000E+00  0.00000000E+00  3.80641939E-16
  0.00000000E+00 -4.71867541E-19  0.00000000E+00  0.00000000E+00  0.00000000E+00
  1.00000000E+00  1.47590700E-04  1.54391055E-04  9.72708417E-05 -4.57479462E-04
  5.42956072E-02  7.65787341E-04  2.66618044E-04 -1.16182491E-03  2.08238852E-01
  5.47300365E-04  1.75873208E-04 -5.45025675E-04  2.80139808E-01  1.10238406E-04
  2.52730918E-05  1.14243913E-05  9.81397209E-02 -9.28662983E-04  5.02993116E-02
 -2.26630291E-01 -6.66570593E-04 -3.30565328E-04  0.00000000E+00  0.00000000E+00
  0.00000000E+00 -9.00902115E-19  1.84517802E-18  0.00000000E+00  0.00000000E+00
  0.00000000E+00  0.00000000E+00  0.00000000E+00  0.00000000E+00  0.00000000E+00
  0.00000000E+00  0.00000000E+00  0.00000000E+00 -4.71867541E-19  0.00000000E+00
  0.00000000E+00  0.00000000E+00  1.00000000E+00 -4.60614330E-02 -4.81837488E-02
 -4.01076158E-02  1.14750597E-01  2.62097613E-04 -2.38993800E-01 -1.20604123E-01
  2.55114476E-01  7.18405966E-04 -1.70806420E-01 -1.05195360E-01  2.55088074E-02
  4.73892763E-04 -3.44041932E-02 -2.55112446E-02 -5.42178204E-02  6.80986915E-05
  5.50739127E-02  2.75675809E-04 -6.66570593E-04  1.07897318E-01  1.27504729E-01
  0.00000000E+00  0.00000000E+00  4.61261883E-16 -1.84517802E-18  0.00000000E+00
  0.00000000E+00  0.00000000E+00  0.00000000E+00  0.00000000E+00  0.00000000E+00
  3.80641939E-16  0.00000000E+00  0.00000000E+00  0.00000000E+00  0.00000000E+00
  0.00000000E+00  0.00000000E+00  0.00000000E+00  0.00000000E+00  0.00000000E+00
  1.00000000E+00 -1.70945256E-02 -1.78821690E-02  4.30301620E-02  5.29870403E-02
  9.72708417E-05 -8.86964511E-02  1.77360421E-01  1.34567054E-01  2.66618044E-04
 -6.33904447E-02  2.59771012E-01  6.31269813E-02  1.75873208E-04 -1.27682385E-02
  9.52127118E-02 -1.32321718E-03  2.52730918E-05  2.04392775E-02 -3.60912515E-04
 -3.30565328E-04  1.27504729E-01 -1.88345790E-01  0.00000000E+00  0.00000000E+00
  1.84517802E-18  4.61261883E-16  0.00000000E+00  0.00000000E+00  0.00000000E+00
  0.00000000E+00  0.00000000E+00  0.00000000E+00  0.00000000E+00  3.80641939E-16
  0.00000000E+00  0.00000000E+00  0.00000000E+00  0.00000000E+00  0.00000000E+00
  0.00000000E+00  0.00000000E+00  0.00000000E+00  0.00000000E+00  1.00000000E+00
  1.32356807E-05  3.20585704E-06 -2.97016238E-04  3.68343476E-05  5.57086941E-07
  3.96841257E-03 -1.41180543E-02  1.75084474E-03  2.64799787E-05  4.43749431E-02
 -1.07409621E-01  1.33203603E-02  2.01458673E-04  5.99836940E-02 -8.80217832E-02
  1.09159856E-02  1.65094630E-04 -5.11220391E-03 -3.27126814E-05  4.05684984E-06
  8.58642111E-03 -2.16294835E-03  7.45681047E-09 -5.65403581E-10 -6.47390961E-07
  5.98843649E-07  1.85792195E-09  2.82088656E-04 -9.84134224E-04  9.10334813E-04
  2.82432825E-06  1.41486287E-02 -3.13007573E-02  2.89535394E-02  8.98288169E-05
  3.12382229E-02 -3.92015890E-02  3.62618942E-02  1.12503104E-04 -4.88262678E-04
 -2.61585664E-06  2.41969571E-06  6.57892364E-05 -8.43140441E-04  1.00000000E+00
 -4.57594526E-07 -2.74360636E-07 -9.77212534E-06  1.21188614E-06  1.83287064E-08
  3.15467039E-03 -1.32225584E-02  1.63979019E-03  2.48003768E-05  5.24342497E-02
 -1.30932949E-01  1.62375963E-02  2.45579288E-04  7.17742878E-02 -1.06486694E-01
  1.32059040E-02  1.99727622E-04 -4.08807457E-03 -2.61593401E-05  3.24413990E-06
  6.86630079E-03 -1.72964426E-03 -5.65403581E-10  1.37122138E-11  1.80561358E-08
 -1.67021211E-08 -5.18185967E-11  2.13960873E-04 -8.27192797E-04  7.65162294E-04
  2.37392819E-06  1.64723128E-02 -3.71695198E-02  3.43822083E-02  1.06671348E-04
  3.71507526E-02 -4.69001084E-02  4.33831080E-02  1.34596783E-04 -3.36579705E-04
 -1.80321842E-06  1.66799656E-06  4.53512480E-05 -5.81211658E-04  8.78443835E-01
  1.00000000E+00  7.52156171E-04  3.87153371E-04 -9.73439508E-03  1.30716855E-03
  1.97697686E-05  4.26530863E-02 -1.14369893E-01  1.63257343E-02  2.46912297E-04
  1.11342681E-01 -1.65725457E-01  3.10783908E-02  4.70033183E-04  5.33759926E-02
 -5.54804890E-03  9.46430385E-03  1.43139228E-04 -5.21373740E-02 -3.77476355E-04
  5.24207363E-05  8.68393371E-02 -2.49585733E-02  6.47390961E-07 -1.80561358E-08
 -3.00823344E-05  3.00508702E-05  9.32333029E-08  2.41529802E-03 -6.57941908E-03
  7.14223699E-03  2.21589039E-05  2.60399002E-02 -3.27748533E-02  5.10679583E-02
  1.58439154E-04  1.75732651E-02  5.84583634E-03  2.01237008E-02  6.24341020E-05
 -4.62038784E-03 -2.50258355E-05  2.63855402E-05 -5.01734052E-04 -8.06630367E-03
  2.75558241E-17  1.73034508E-17  1.00000000E+00 -9.32783408E-05 -4.80126674E-05