<?xml version="1.0" encoding="ISO-8859-1"?>
<modeling>
 <generator>
  <i name="program" type="string">vasp </i>
  <i name="version" type="string">5.4.4.18Apr17-6-g9f103f2a35  </i>
  <i name="subversion" type="string">(build Sep 10 2019 12:14:21) complex            parallel </i>
  <i name="platform" type="string">LinuxIFC </i>
  <i name="date" type="string">2020 09 09 </i>
  <i name="time" type="string">16:09:40 </i>
 </generator>
 <incar>
  <i type="string" name="PREC">accurate</i>
  <i type="string" name="ALGO"> All</i>
  <i type="int" name="ISPIN">     2</i>
  <i type="int" name="NELM">   200</i>
  <i type="int" name="IBRION">     2</i>
  <i name="EDIFF">      0.00001000</i>
  <i name="EDIFFG">     -0.05000000</i>
  <i type="int" name="NSW">     0</i>
  <i type="int" name="ISIF">     3</i>
  <i name="ENCUT">    680.00000000</i>
  <i name="ENAUG">   1360.00000000</i>
  <v name="MAGMOM">      0.00000000      0.00000000</v>
  <i type="string" name="LREAL"> Auto</i>
  <i type="int" name="ISMEAR">     2</i>
  <i name="SIGMA">      0.20000000</i>
  <i name="KSPACING">      0.22000000</i>
  <i type="logical" name="LWAVE"> F  </i>
  <i type="logical" name="LCHARG"> T  </i>
  <i type="logical" name="LVTOT"> T  </i>
  <i type="int" name="LORBIT">    11</i>
  <i type="logical" name="LELF"> T  </i>
  <i type="logical" name="LASPH"> T  </i>
  <i type="logical" name="LAECHG"> T  </i>
  <v type="int" name="KPOINT_BSE">    -1     0     0     0</v>
  <i type="int" name="NELM">   200</i>
  <i type="string" name="GGA"> Ps</i>
  <i type="string" name="METAGGA"> None</i>
  <i type="logical" name="LASPH"> T  </i>
  <i type="int" name="LMIXTAU">    -1</i>
 </incar>
 <structure name="primitive_cell" >
  <crystal>
   <varray name="basis" >
    <v>       0.00000000       2.04171400       2.04171400 </v>
    <v>       2.04171400       0.00000000       2.04171400 </v>
    <v>       2.04171400       2.04171400       0.00000000 </v>
   </varray>
   <i name="volume">     17.02216186 </i>
   <varray name="rec_basis" >
    <v>      -0.24489228       0.24489228       0.24489228 </v>
    <v>       0.24489228      -0.24489228       0.24489228 </v>
    <v>       0.24489228       0.24489228      -0.24489228 </v>
   </varray>
  </crystal>
  <varray name="positions" >
   <v>       0.00000000       0.00000000       0.00000000 </v>
   <v>      -0.50000000      -0.50000000      -0.50000000 </v>
  </varray>
 </structure>
 <varray name="primitive_index" >
  <v type="int" >        1 </v>
  <v type="int" >        2 </v>
 </varray>
 <kpoints>
  <generation param="Gamma">
   <v type="int" name="divisions">      13       13       13 </v>
   <v name="usershift">      0.00000000       0.00000000       0.00000000 </v>
   <v name="genvec1">      0.07692308       0.00000000       0.00000000 </v>
   <v name="genvec2">      0.00000000       0.07692308       0.00000000 </v>
   <v name="genvec3">      0.00000000       0.00000000       0.07692308 </v>
   <v name="shift">      0.00000000       0.00000000       0.00000000 </v>
  </generation>
  <varray name="kpointlist" >
   <v>       0.00000000       0.00000000       0.00000000 </v>
   <v>       0.07692308       0.00000000       0.00000000 </v>
   <v>       0.15384615       0.00000000       0.00000000 </v>
   <v>       0.23076923       0.00000000       0.00000000 </v>
   <v>       0.30769231       0.00000000       0.00000000 </v>
   <v>       0.38461538       0.00000000       0.00000000 </v>
   <v>       0.46153846       0.00000000       0.00000000 </v>
   <v>       0.07692308       0.07692308       0.00000000 </v>
   <v>       0.15384615       0.07692308       0.00000000 </v>
   <v>       0.23076923       0.07692308       0.00000000 </v>
   <v>       0.30769231       0.07692308       0.00000000 </v>
   <v>       0.38461538       0.07692308       0.00000000 </v>
   <v>       0.46153846       0.07692308       0.00000000 </v>
   <v>      -0.46153846       0.07692308       0.00000000 </v>
   <v>      -0.38461538       0.07692308       0.00000000 </v>
   <v>      -0.30769231       0.07692308       0.00000000 </v>
   <v>      -0.23076923       0.07692308       0.00000000 </v>
   <v>      -0.15384615       0.07692308       0.00000000 </v>
   <v>      -0.07692308       0.07692308       0.00000000 </v>
   <v>       0.15384615       0.15384615       0.00000000 </v>
   <v>       0.23076923       0.15384615       0.00000000 </v>
   <v>       0.30769231       0.15384615       0.00000000 </v>
   <v>       0.38461538       0.15384615       0.00000000 </v>
   <v>       0.46153846       0.15384615       0.00000000 </v>
   <v>      -0.46153846       0.15384615       0.00000000 </v>
   <v>      -0.38461538       0.15384615       0.00000000 </v>
   <v>      -0.30769231       0.15384615       0.00000000 </v>
   <v>      -0.23076923       0.15384615       0.00000000 </v>
   <v>      -0.15384615       0.15384615       0.00000000 </v>
   <v>       0.23076923       0.23076923       0.00000000 </v>
   <v>       0.30769231       0.23076923       0.00000000 </v>
   <v>       0.38461538       0.23076923       0.00000000 </v>
   <v>       0.46153846       0.23076923       0.00000000 </v>
   <v>      -0.46153846       0.23076923       0.00000000 </v>
   <v>      -0.38461538       0.23076923       0.00000000 </v>
   <v>      -0.30769231       0.23076923       0.00000000 </v>
   <v>      -0.23076923       0.23076923       0.00000000 </v>
   <v>       0.30769231       0.30769231       0.00000000 </v>
   <v>       0.38461538       0.30769231       0.00000000 </v>
   <v>       0.46153846       0.30769231       0.00000000 </v>
   <v>      -0.46153846       0.30769231       0.00000000 </v>
   <v>      -0.38461538       0.30769231       0.00000000 </v>
   <v>      -0.30769231       0.30769231       0.00000000 </v>
   <v>       0.38461538       0.38461538       0.00000000 </v>
   <v>       0.46153846       0.38461538       0.00000000 </v>
   <v>      -0.46153846       0.38461538       0.00000000 </v>
   <v>      -0.38461538       0.38461538       0.00000000 </v>
   <v>       0.46153846       0.46153846       0.00000000 </v>
   <v>      -0.46153846       0.46153846       0.00000000 </v>
   <v>       0.23076923       0.15384615       0.07692308 </v>
   <v>       0.30769231       0.15384615       0.07692308 </v>
   <v>       0.38461538       0.15384615       0.07692308 </v>
   <v>       0.46153846       0.15384615       0.07692308 </v>
   <v>      -0.46153846       0.15384615       0.07692308 </v>
   <v>       0.30769231       0.23076923       0.07692308 </v>
   <v>       0.38461538       0.23076923       0.07692308 </v>
   <v>       0.46153846       0.23076923       0.07692308 </v>
   <v>      -0.46153846       0.23076923       0.07692308 </v>
   <v>      -0.38461538       0.23076923       0.07692308 </v>
   <v>      -0.30769231       0.23076923       0.07692308 </v>
   <v>      -0.23076923       0.23076923       0.07692308 </v>
   <v>      -0.15384615       0.23076923       0.07692308 </v>
   <v>       0.38461538       0.30769231       0.07692308 </v>
   <v>       0.46153846       0.30769231       0.07692308 </v>
   <v>      -0.46153846       0.30769231       0.07692308 </v>
   <v>      -0.38461538       0.30769231       0.07692308 </v>
   <v>      -0.30769231       0.30769231       0.07692308 </v>
   <v>      -0.23076923       0.30769231       0.07692308 </v>
   <v>       0.46153846       0.38461538       0.07692308 </v>
   <v>      -0.46153846       0.38461538       0.07692308 </v>
   <v>      -0.38461538       0.38461538       0.07692308 </v>
   <v>      -0.30769231       0.38461538       0.07692308 </v>
   <v>      -0.46153846       0.46153846       0.07692308 </v>
   <v>      -0.38461538       0.46153846       0.07692308 </v>
   <v>       0.46153846       0.30769231       0.15384615 </v>
   <v>      -0.46153846       0.30769231       0.15384615 </v>
   <v>      -0.38461538       0.30769231       0.15384615 </v>
   <v>      -0.46153846       0.38461538       0.15384615 </v>
   <v>      -0.38461538       0.38461538       0.15384615 </v>
   <v>      -0.30769231       0.38461538       0.15384615 </v>
   <v>      -0.23076923       0.38461538       0.15384615 </v>
   <v>      -0.38461538       0.46153846       0.15384615 </v>
   <v>      -0.30769231       0.46153846       0.15384615 </v>
   <v>      -0.30769231       0.46153846       0.23076923 </v>
  </varray>
  <varray name="weights" >
   <v>       0.00045517 </v>
   <v>       0.00364133 </v>
   <v>       0.00364133 </v>
   <v>       0.00364133 </v>
   <v>       0.00364133 </v>
   <v>       0.00364133 </v>
   <v>       0.00364133 </v>
   <v>       0.00273100 </v>
   <v>       0.01092399 </v>
   <v>       0.01092399 </v>
   <v>       0.01092399 </v>
   <v>       0.01092399 </v>
   <v>       0.01092399 </v>
   <v>       0.01092399 </v>
   <v>       0.01092399 </v>
   <v>       0.01092399 </v>
   <v>       0.01092399 </v>
   <v>       0.01092399 </v>
   <v>       0.00546199 </v>
   <v>       0.00273100 </v>
   <v>       0.01092399 </v>
   <v>       0.01092399 </v>
   <v>       0.01092399 </v>
   <v>       0.01092399 </v>
   <v>       0.01092399 </v>
   <v>       0.01092399 </v>
   <v>       0.01092399 </v>
   <v>       0.01092399 </v>
   <v>       0.00546199 </v>
   <v>       0.00273100 </v>
   <v>       0.01092399 </v>
   <v>       0.01092399 </v>
   <v>       0.01092399 </v>
   <v>       0.01092399 </v>
   <v>       0.01092399 </v>
   <v>       0.01092399 </v>
   <v>       0.00546199 </v>
   <v>       0.00273100 </v>
   <v>       0.01092399 </v>
   <v>       0.01092399 </v>
   <v>       0.01092399 </v>
   <v>       0.01092399 </v>
   <v>       0.00546199 </v>
   <v>       0.00273100 </v>
   <v>       0.01092399 </v>
   <v>       0.01092399 </v>
   <v>       0.00546199 </v>
   <v>       0.00273100 </v>
   <v>       0.00546199 </v>
   <v>       0.01092399 </v>
   <v>       0.02184797 </v>
   <v>       0.02184797 </v>
   <v>       0.02184797 </v>
   <v>       0.02184797 </v>
   <v>       0.01092399 </v>
   <v>       0.02184797 </v>
   <v>       0.02184797 </v>
   <v>       0.02184797 </v>
   <v>       0.02184797 </v>
   <v>       0.02184797 </v>
   <v>       0.02184797 </v>
   <v>       0.01092399 </v>
   <v>       0.01092399 </v>
   <v>       0.02184797 </v>
   <v>       0.02184797 </v>
   <v>       0.02184797 </v>
   <v>       0.02184797 </v>
   <v>       0.01092399 </v>
   <v>       0.01092399 </v>
   <v>       0.02184797 </v>
   <v>       0.02184797 </v>
   <v>       0.01092399 </v>
   <v>       0.01092399 </v>
   <v>       0.01092399 </v>
   <v>       0.01092399 </v>
   <v>       0.02184797 </v>
   <v>       0.02184797 </v>
   <v>       0.01092399 </v>
   <v>       0.02184797 </v>
   <v>       0.02184797 </v>
   <v>       0.01092399 </v>
   <v>       0.01092399 </v>
   <v>       0.01092399 </v>
   <v>       0.01092399 </v>
  </varray>
 </kpoints>
 <parameters>
  <separator name="general" >
   <i type="string" name="SYSTEM">unknown system</i>
   <i type="logical" name="LCOMPAT"> F  </i>
  </separator>
  <separator name="electronic" >
   <i type="string" name="PREC">accura</i>
   <i name="ENMAX">    680.00000000</i>
   <i name="ENAUG">   1360.00000000</i>
   <i name="EDIFF">      0.00001000</i>
   <i type="int" name="IALGO">    58</i>
   <i type="int" name="IWAVPR">    10</i>
   <i type="int" name="NBANDS">     9</i>
   <i name="NELECT">     10.00000000</i>
   <i type="int" name="TURBO">     0</i>
   <i type="int" name="IRESTART">     0</i>
   <i type="int" name="NREBOOT">     0</i>
   <i type="int" name="NMIN">     0</i>
   <i name="EREF">      0.00000000</i>
   <separator name="electronic smearing" >
    <i type="int" name="ISMEAR">     2</i>
    <i name="SIGMA">      0.20000000</i>
    <i name="KSPACING">      0.22000000</i>
    <i type="logical" name="KGAMMA"> T  </i>
   </separator>
   <separator name="electronic projectors" >
    <i type="logical" name="LREAL"> T  </i>
    <v name="ROPT">     -0.00025000     -0.00025000</v>
    <i type="int" name="LMAXPAW">  -100</i>
    <i type="int" name="LMAXMIX">     2</i>
    <i type="logical" name="NLSPLINE"> F  </i>
   </separator>
   <separator name="electronic startup" >
    <i type="int" name="ISTART">     0</i>
    <i type="int" name="ICHARG">     2</i>
    <i type="int" name="INIWAV">     1</i>
   </separator>
   <separator name="electronic spin" >
    <i type="int" name="ISPIN">     2</i>
    <i type="logical" name="LNONCOLLINEAR"> F  </i>
    <v name="MAGMOM">      0.00000000      0.00000000</v>
    <i name="NUPDOWN">     -1.00000000</i>
    <i type="logical" name="LSORBIT"> F  </i>
    <v name="SAXIS">      0.00000000      0.00000000      1.00000000</v>
    <i type="logical" name="LSPIRAL"> F  </i>
    <v name="QSPIRAL">      0.00000000      0.00000000      0.00000000</v>
    <i type="logical" name="LZEROZ"> F  </i>
   </separator>
   <separator name="electronic exchange-correlation" >
    <i type="logical" name="LASPH"> T  </i>
    <i type="logical" name="LMETAGGA"> F  </i>
   </separator>
   <separator name="electronic convergence" >
    <i type="int" name="NELM">   200</i>
    <i type="int" name="NELMDL">    -5</i>
    <i type="int" name="NELMIN">     2</i>
    <i name="ENINI">    680.00000000</i>
    <separator name="electronic convergence detail" >
     <i type="logical" name="LDIAG"> T  </i>
     <i type="logical" name="LSUBROT"> F  </i>
     <i name="WEIMIN">      0.00000000</i>
     <i name="EBREAK">      0.00000028</i>
     <i name="DEPER">      0.30000000</i>
     <i type="int" name="NRMM">     4</i>
     <i name="TIME">      0.40000000</i>
    </separator>
   </separator>
   <separator name="electronic mixer" >
    <i name="AMIX">      0.40000000</i>
    <i name="BMIX">      1.00000000</i>
    <i name="AMIN">      0.10000000</i>
    <i name="AMIX_MAG">      1.60000000</i>
    <i name="BMIX_MAG">      1.00000000</i>
    <separator name="electronic mixer details" >
     <i type="int" name="IMIX">     4</i>
     <i type="logical" name="MIXFIRST"> F  </i>
     <i type="int" name="MAXMIX">   -45</i>
     <i name="WC">    100.00000000</i>
     <i type="int" name="INIMIX">     1</i>
     <i type="int" name="MIXPRE">     1</i>
     <i type="int" name="MREMOVE">     5</i>
    </separator>
   </separator>
   <separator name="electronic dipolcorrection" >
    <i type="logical" name="LDIPOL"> F  </i>
    <i type="logical" name="LMONO"> F  </i>
    <i type="int" name="IDIPOL">     0</i>
    <i name="EPSILON">      1.00000000</i>
    <v name="DIPOL">   -100.00000000   -100.00000000   -100.00000000</v>
    <i name="EFIELD">      0.00000000</i>
   </separator>
  </separator>
  <separator name="grids" >
   <i type="int" name="NGX">    28</i>
   <i type="int" name="NGY">    28</i>
   <i type="int" name="NGZ">    28</i>
   <i type="int" name="NGXF">    56</i>
   <i type="int" name="NGYF">    56</i>
   <i type="int" name="NGZF">    56</i>
   <i type="logical" name="ADDGRID"> F  </i>
  </separator>
  <separator name="ionic" >
   <i type="int" name="NSW">     0</i>
   <i type="int" name="IBRION">    -1</i>
   <i type="int" name="MDALGO">     0</i>
   <i type="int" name="ISIF">     3</i>
   <i name="PSTRESS">      0.00000000</i>
   <i name="EDIFFG">     -0.05000000</i>
   <i type="int" name="NFREE">     1</i>
   <i name="POTIM">      0.50000000</i>
   <i name="SMASS">     -3.00000000</i>
   <i name="SCALEE">      1.00000000</i>
  </separator>
  <separator name="ionic md" >
   <i name="TEBEG">      0.00010000</i>
   <i name="TEEND">      0.00010000</i>
   <i type="int" name="NBLOCK">     1</i>
   <i type="int" name="KBLOCK">     1</i>
   <i type="int" name="NPACO">   256</i>
   <i name="APACO">     16.00000000</i>
  </separator>
  <separator name="symmetry" >
   <i type="int" name="ISYM">     2</i>
   <i name="SYMPREC">      0.00001000</i>
  </separator>
  <separator name="dos" >
   <i type="int" name="LORBIT">    11</i>
   <v name="RWIGS">     -1.00000000     -1.00000000</v>
   <i type="int" name="NEDOS">   301</i>
   <i name="EMIN">     10.00000000</i>
   <i name="EMAX">    -10.00000000</i>
   <i name="EFERMI">      0.00000000</i>
  </separator>
  <separator name="writing" >
   <i type="int" name="NWRITE">     2</i>
   <i type="logical" name="LWAVE"> F  </i>
   <i type="logical" name="LDOWNSAMPLE"> F  </i>
   <i type="logical" name="LCHARG"> T  </i>
   <i type="logical" name="LPARD"> F  </i>
   <i type="logical" name="LVTOT"> T  </i>
   <i type="logical" name="LVHAR"> F  </i>
   <i type="logical" name="LELF"> T  </i>
   <i type="logical" name="LOPTICS"> F  </i>
   <v name="STM">      0.00000000      0.00000000      0.00000000      0.00000000      0.00000000      0.00000000      0.00000000</v>
  </separator>
  <separator name="performance" >
   <i type="int" name="NPAR">     1</i>
   <i type="int" name="NSIM">     4</i>
   <i type="int" name="NBLK">    -1</i>
   <i type="logical" name="LPLANE"> T  </i>
   <i type="logical" name="LSCALAPACK"> F  </i>
   <i type="logical" name="LSCAAWARE"> F  </i>
   <i type="logical" name="LSCALU"> F  </i>
   <i type="logical" name="LASYNC"> F  </i>
   <i type="logical" name="LORBITALREAL"> F  </i>
  </separator>
  <separator name="miscellaneous" >
   <i type="int" name="IDIOT">     3</i>
   <i type="int" name="ISPECIAL">     0</i>
   <i type="logical" name="LMUSIC"> F  </i>
   <v name="POMASS">      7.01000000     18.99800000</v>
   <v name="DARWINR">      0.00000000      0.00000000</v>
   <v name="DARWINV">      1.00000000      1.00000000</v>
   <i type="logical" name="LCORR"> T  </i>
  </separator>
  <i type="logical" name="GGA_COMPAT"> T  </i>
  <i type="logical" name="LBERRY"> F  </i>
  <i type="int" name="ICORELEVEL">     0</i>
  <i type="logical" name="LDAU"> F  </i>
  <i type="int" name="I_CONSTRAINED_M">     0</i>
  <separator name="electronic exchange-correlation" >
   <i type="string" name="GGA">PS</i>
   <i type="int" name="VOSKOWN">     0</i>
   <i type="logical" name="LHFCALC"> F  </i>
   <i type="string" name="PRECFOCK"></i>
   <i type="logical" name="LSYMGRAD"> F  </i>
   <i type="logical" name="LHFONE"> F  </i>
   <i type="logical" name="LRHFCALC"> F  </i>
   <i type="logical" name="LTHOMAS"> F  </i>
   <i type="logical" name="LMODELHF"> F  </i>
   <i name="ENCUT4O">     -1.00000000</i>
   <i type="int" name="EXXOEP">     0</i>
   <i type="int" name="FOURORBIT">     0</i>
   <i name="AEXX">      0.00000000</i>
   <i name="HFALPHA">      0.00000000</i>
   <i name="MCALPHA">      0.00000000</i>
   <i name="ALDAX">      1.00000000</i>
   <i name="AGGAX">      1.00000000</i>
   <i name="ALDAC">      1.00000000</i>
   <i name="AGGAC">      1.00000000</i>
   <i type="int" name="NKREDX">     1</i>
   <i type="int" name="NKREDY">     1</i>
   <i type="int" name="NKREDZ">     1</i>
   <i type="logical" name="SHIFTRED"> F  </i>
   <i type="logical" name="ODDONLY"> F  </i>
   <i type="logical" name="EVENONLY"> F  </i>
   <i type="int" name="LMAXFOCK">     0</i>
   <i type="int" name="NMAXFOCKAE">     0</i>
   <i type="logical" name="LFOCKAEDFT"> F  </i>
   <i name="HFSCREEN">      0.00000000</i>
   <i name="HFSCREENC">      0.00000000</i>
   <i type="int" name="NBANDSGWLOW">     0</i>
  </separator>
  <separator name="vdW DFT" >
   <i type="logical" name="LUSE_VDW"> F  </i>
   <i name="Zab_VDW">     -0.84910000</i>
   <i name="PARAM1">      0.12340000</i>
   <i name="PARAM2">      1.00000000</i>
   <i name="PARAM3">      0.00000000</i>
  </separator>
  <separator name="model GW" >
   <i type="int" name="MODEL_GW">     0</i>
   <i name="MODEL_EPS0">      5.10664856</i>
   <i name="MODEL_ALPHA">      1.00000000</i>
  </separator>
  <separator name="linear response parameters" >
   <i type="logical" name="LEPSILON"> F  </i>
   <i type="logical" name="LRPA"> F  </i>
   <i type="logical" name="LNABLA"> F  </i>
   <i type="logical" name="LVEL"> F  </i>
   <i type="int" name="KINTER">     0</i>
   <i name="CSHIFT">      0.10000000</i>
   <i name="OMEGAMAX">     -1.00000000</i>
   <i name="DEG_THRESHOLD">      0.00200000</i>
   <i name="RTIME">     -0.10000000</i>
   <i name="WPLASMAI">      0.00000000</i>
   <v name="DFIELD">      0.00000000      0.00000000      0.00000000</v>
   <v name="WPLASMA">      0.00000000      0.00000000      0.00000000      0.00000000      0.00000000      0.00000000      0.00000000      0.00000000      0.00000000</v>
  </separator>
  <separator name="orbital magnetization" >
   <i type="logical" name="NUCIND"> F  </i>
   <v name="MAGPOS">      0.00000000      0.00000000      0.00000000</v>
   <i type="logical" name="LNICSALL"> T  </i>
   <i type="logical" name="ORBITALMAG"> F  </i>
   <i type="logical" name="LMAGBLOCH"> F  </i>
   <i type="logical" name="LCHIMAG"> F  </i>
   <i type="logical" name="LGAUGE"> T  </i>
   <i type="int" name="MAGATOM">     0</i>
   <v name="MAGDIPOL">      0.00000000      0.00000000      0.00000000</v>
   <v name="AVECCONST">      0.00000000      0.00000000      0.00000000</v>
  </separator>
  <separator name="response functions" >
   <i type="logical" name="LADDER"> F  </i>
   <i type="logical" name="LRPAFORCE"> F  </i>
   <i type="logical" name="LFXC"> F  </i>
   <i type="logical" name="LHARTREE"> T  </i>
   <i type="int" name="IBSE">     0</i>
   <v type="int" name="KPOINT">    -1     0     0     0</v>
   <i type="logical" name="LTCTE"> F  </i>
   <i type="logical" name="LTETE"> F  </i>
   <i type="logical" name="LTRIPLET"> F  </i>
   <i type="logical" name="LFXCEPS"> F  </i>
   <i type="logical" name="LFXHEG"> F  </i>
   <i type="int" name="NATURALO">     2</i>
   <i type="logical" name="L2ORDER"> F  </i>
   <i type="logical" name="LMP2LT"> F  </i>
   <i type="logical" name="LUSEW"> F  </i>
   <i name="ENCUTGW">     -2.00000000</i>
   <i name="ENCUTGWSOFT">     -2.00000000</i>
   <i name="ENCUTLF">     -1.00000000</i>
   <i type="int" name="LMAXMP2">    -1</i>
   <i name="SCISSOR">      0.00000000</i>
   <i type="int" name="NOMEGA">     0</i>
   <i type="int" name="NOMEGAR">     0</i>
   <i type="int" name="NBANDSGW">    -1</i>
   <i type="int" name="NBANDSO">    -1</i>
   <i type="int" name="NBANDSV">    -1</i>
   <i type="int" name="NELM">   200</i>
   <i type="int" name="NELMHF">     1</i>
   <i type="int" name="DIM">     3</i>
   <i type="int" name="ANTIRES">     0</i>
   <i name="OMEGAMAX">    -30.00000000</i>
   <i name="OMEGAMIN">    -30.00000000</i>
   <i name="OMEGATL">   -200.00000000</i>
   <i type="int" name="OMEGAGRID">   140</i>
   <i name="CSHIFT">     -0.10000000</i>
   <i type="logical" name="SELFENERGY"> F  </i>
   <i type="logical" name="LSPECTRAL"> F  </i>
   <i type="logical" name="LSPECTRALGW"> F  </i>
   <i type="logical" name="LSINGLES"> F  </i>
   <i type="logical" name="LFERMIGW"> F  </i>
   <i type="logical" name="ODDONLYGW"> F  </i>
   <i type="logical" name="EVENONLYGW"> F  </i>
   <i type="int" name="NKREDLFX">     1</i>
   <i type="int" name="NKREDLFY">     1</i>
   <i type="int" name="NKREDLFZ">     1</i>
   <i type="int" name="MAXMEM">  2800</i>
   <i type="int" name="TELESCOPE">     0</i>
   <i type="int" name="TAUPAR">     1</i>
   <i type="int" name="OMEGAPAR">    -1</i>
   <i name="LAMBDA">      1.00000000</i>
  </separator>
  <separator name="External order field" >
   <i name="OFIELD_KAPPA">      0.00000000</i>
   <v name="OFIELD_K">      0.00000000      0.00000000      0.00000000</v>
   <i name="OFIELD_Q6_NEAR">      0.00000000</i>
   <i name="OFIELD_Q6_FAR">      0.00000000</i>
   <i name="OFIELD_A">      0.00000000</i>
  </separator>
 </parameters>
 <atominfo>
  <atoms>       2 </atoms>
  <types>       2 </types>
  <array name="atoms" >
   <dimension dim="1">ion</dimension>
   <field type="string">element</field>
   <field type="int">atomtype</field>
   <set>
    <rc><c>Li</c><c>   1</c></rc>
    <rc><c>F </c><c>   2</c></rc>
   </set>
  </array>
  <array name="atomtypes" >
   <dimension dim="1">type</dimension>
   <field type="int">atomspertype</field>
   <field type="string">element</field>
   <field>mass</field>
   <field>valence</field>
   <field type="string">pseudopotential</field>
   <set>
    <rc><c>   1</c><c>Li</c><c>      7.01000000</c><c>      3.00000000</c><c>  PAW_PBE Li_sv 10Sep2004               </c></rc>
    <rc><c>   1</c><c>F </c><c>     18.99800000</c><c>      7.00000000</c><c>  PAW_PBE F 08Apr2002                   </c></rc>
   </set>
  </array>
 </atominfo>
 <structure name="initialpos" >
  <crystal>
   <varray name="basis" >
    <v>       0.00000000       2.04171400       2.04171400 </v>
    <v>       2.04171400       0.00000000       2.04171400 </v>
    <v>       2.04171400       2.04171400       0.00000000 </v>
   </varray>
   <i name="volume">     17.02216186 </i>
   <varray name="rec_basis" >
    <v>      -0.24489228       0.24489228       0.24489228 </v>
    <v>       0.24489228      -0.24489228       0.24489228 </v>
    <v>       0.24489228       0.24489228      -0.24489228 </v>
   </varray>
  </crystal>
  <varray name="positions" >
   <v>       0.00000000       0.00000000       0.00000000 </v>
   <v>       0.50000000       0.50000000       0.50000000 </v>
  </varray>
 </structure>
 <calculation>
  <scstep>
   <time name="total">    2.98    3.00</time>
   <energy>
    <i name="alphaZ">     19.24755120 </i>
    <i name="ewald">   -549.57268052 </i>
    <i name="hartreedc">   -217.48188625 </i>
    <i name="XCdc">     50.33839578 </i>
    <i name="pawpsdc">    618.58917110 </i>
    <i name="pawaedc">   -638.32718659 </i>
    <i name="eentropy">     -0.00021761 </i>
    <i name="bandstr">    -99.19226351 </i>
    <i name="atom">    858.46677950 </i>
    <i name="e_fr_energy">     42.06766310 </i>
    <i name="e_wo_entrp">     42.06788071 </i>
    <i name="e_0_energy">     42.06771750 </i>
   </energy>
  </scstep>
  <scstep>
   <time name="total">    2.82    2.84</time>
   <energy>
    <i name="e_fr_energy">     -8.78499623 </i>
    <i name="e_wo_entrp">     -8.78501628 </i>
    <i name="e_0_energy">     -8.78500124 </i>
   </energy>
  </scstep>
  <scstep>
   <time name="total">    3.19    3.21</time>
   <energy>
    <i name="e_fr_energy">    -10.25637879 </i>
    <i name="e_wo_entrp">    -10.26023290 </i>
    <i name="e_0_energy">    -10.25734232 </i>
   </energy>
  </scstep>
  <scstep>
   <time name="total">    3.31    3.33</time>
   <energy>
    <i name="e_fr_energy">    -10.27304203 </i>
    <i name="e_wo_entrp">    -10.27691254 </i>
    <i name="e_0_energy">    -10.27400966 </i>
   </energy>
  </scstep>
  <scstep>
   <time name="total">    3.27    3.29</time>
   <energy>
    <i name="e_fr_energy">    -10.27313424 </i>
    <i name="e_wo_entrp">    -10.27700476 </i>
    <i name="e_0_energy">    -10.27410187 </i>
   </energy>
  </scstep>
  <scstep>
   <time name="total">    2.77    2.78</time>
   <energy>
    <i name="e_fr_energy">     -9.14904333 </i>
    <i name="e_wo_entrp">     -9.15240382 </i>
    <i name="e_0_energy">     -9.14988345 </i>
   </energy>
  </scstep>
  <scstep>
   <time name="total">    2.90    2.93</time>
   <energy>
    <i name="e_fr_energy">     -9.75768153 </i>
    <i name="e_wo_entrp">     -9.76076193 </i>
    <i name="e_0_energy">     -9.75845163 </i>
   </energy>
  </scstep>
  <scstep>
   <time name="total">    2.86    2.88</time>
   <energy>
    <i name="e_fr_energy">     -9.82638881 </i>
    <i name="e_wo_entrp">     -9.82933678 </i>
    <i name="e_0_energy">     -9.82712580 </i>
   </energy>
  </scstep>
  <scstep>
   <time name="total">    3.01    3.05</time>
   <energy>
    <i name="e_fr_energy">     -9.84599124 </i>
    <i name="e_wo_entrp">     -9.84892552 </i>
    <i name="e_0_energy">     -9.84672481 </i>
   </energy>
  </scstep>
  <scstep>
   <time name="total">    2.81    2.82</time>
   <energy>
    <i name="e_fr_energy">     -9.84743989 </i>
    <i name="e_wo_entrp">     -9.85037421 </i>
    <i name="e_0_energy">     -9.84817347 </i>
   </energy>
  </scstep>
  <scstep>
   <time name="total">    2.80    2.81</time>
   <energy>
    <i name="e_fr_energy">     -9.84757759 </i>
    <i name="e_wo_entrp">     -9.85051212 </i>
    <i name="e_0_energy">     -9.84831122 </i>
   </energy>
  </scstep>
  <scstep>
   <time name="total">    3.41    3.83</time>
   <energy>
    <i name="e_fr_energy">     -9.84759418 </i>
    <i name="e_wo_entrp">     -9.85052893 </i>
    <i name="e_0_energy">     -9.84832787 </i>
   </energy>
  </scstep>
  <scstep>
   <time name="total">    3.53    3.63</time>
   <energy>
    <i name="alphaZ">     19.24755120 </i>
    <i name="ewald">   -549.57268052 </i>
    <i name="hartreedc">   -229.41109845 </i>
    <i name="XCdc">     51.06007426 </i>
    <i name="pawpsdc">    708.70827462 </i>
    <i name="pawaedc">   -728.92794741 </i>
    <i name="eentropy">      0.00293491 </i>
    <i name="bandstr">   -139.42148448 </i>
    <i name="atom">    858.46677950 </i>
    <i name="e_fr_energy">     -9.84759655 </i>
    <i name="e_wo_entrp">     -9.85053146 </i>
    <i name="e_0_energy">     -9.84833027 </i>
   </energy>
  </scstep>
  <structure>
   <crystal>
    <varray name="basis" >
     <v>       0.00000000       2.04171400       2.04171400 </v>
     <v>       2.04171400       0.00000000       2.04171400 </v>
     <v>       2.04171400       2.04171400       0.00000000 </v>
    </varray>
    <i name="volume">     17.02216186 </i>
    <varray name="rec_basis" >
     <v>      -0.24489228       0.24489228       0.24489228 </v>
     <v>       0.24489228      -0.24489228       0.24489228 </v>
     <v>       0.24489228       0.24489228      -0.24489228 </v>
    </varray>
   </crystal>
   <varray name="positions" >
    <v>       0.00000000       0.00000000       0.00000000 </v>
    <v>       0.50000000       0.50000000       0.50000000 </v>
   </varray>
  </structure>
  <varray name="forces" >
   <v>      -0.00000000      -0.00000000      -0.00000000 </v>
   <v>       0.00000000       0.00000000       0.00000000 </v>
  </varray>
  <varray name="stress" >
   <v>     -43.14166566       0.00000000       0.00000000 </v>
   <v>      -0.00000000     -43.14166566       0.00000000 </v>
   <v>       0.00000000      -0.00000000     -43.14166566 </v>
  </varray>
  <energy>
   <i name="e_fr_energy">     -9.84759655 </i>
   <i name="e_wo_entrp">     -9.84833027 </i>
   <i name="e_0_energy">      0.00293491 </i>
  </energy>
  <time name="totalsc">   44.78   45.57</time>
  <eigenvalues>
   <array>
    <dimension dim="1">band</dimension>
    <dimension dim="2">kpoint</dimension>
    <dimension dim="3">spin</dimension>
    <field>eigene</field>
    <field>occ</field>
    <set>
     <set comment="spin 1">
      <set comment="kpoint 1">
       <r>  -41.6448    1.0000 </r>
       <r>  -21.1086    1.0000 </r>
       <r>   -1.3560    0.7145 </r>
       <r>   -1.3560    0.7141 </r>
       <r>   -1.3560    0.7141 </r>
       <r>    7.2054    0.0000 </r>
       <r>   21.9738    0.0000 </r>
       <r>   22.2874    0.0000 </r>
       <r>   22.3566    0.0000 </r>
      </set>
      <set comment="kpoint 2">
       <r>  -41.6417    1.0000 </r>
       <r>  -21.0864    1.0000 </r>
       <r>   -1.5266    1.0485 </r>
       <r>   -1.3690    0.7741 </r>
       <r>   -1.3690    0.7741 </r>
       <r>    7.3862    0.0000 </r>
       <r>   20.0064    0.0000 </r>
       <r>   21.0957    0.0000 </r>
       <r>   21.0962    0.0000 </r>
      </set>
      <set comment="kpoint 3">
       <r>  -41.6332    1.0000 </r>
       <r>  -21.0244    1.0000 </r>
       <r>   -1.9709    0.9999 </r>
       <r>   -1.4051    0.9119 </r>
       <r>   -1.4051    0.9119 </r>
       <r>    7.8414    0.0000 </r>
       <r>   17.9240    0.0000 </r>
       <r>   19.9737    0.0000 </r>
       <r>   19.9737    0.0000 </r>
      </set>
      <set comment="kpoint 4">
       <r>  -41.6212    1.0000 </r>
       <r>  -20.9347    1.0000 </r>
       <r>   -2.5423    1.0000 </r>
       <r>   -1.4549    1.0220 </r>
       <r>   -1.4549    1.0220 </r>
       <r>    8.3754    0.0000 </r>
       <r>   16.3283    0.0000 </r>
       <r>   18.9161    0.0000 </r>
       <r>   18.9162    0.0000 </r>
      </set>
      <set comment="kpoint 5">
       <r>  -41.6086    1.0000 </r>
       <r>  -20.8364    1.0000 </r>
       <r>   -3.0978    1.0000 </r>
       <r>   -1.5063    1.0516 </r>
       <r>   -1.5063    1.0516 </r>
       <r>    8.7858    0.0000 </r>
       <r>   15.3230    0.0000 </r>
       <r>   18.0460    0.0000 </r>
       <r>   18.0460    0.0000 </r>
      </set>
      <set comment="kpoint 6">
       <r>  -41.5980    1.0000 </r>
       <r>  -20.7523    1.0000 </r>
       <r>   -3.5293    1.0000 </r>
       <r>   -1.5478    1.0406 </r>
       <r>   -1.5478    1.0406 </r>
       <r>    8.9765    0.0000 </r>
       <r>   14.8604    0.0000 </r>
       <r>   17.4348    0.0000 </r>
       <r>   17.4348    0.0000 </r>
      </set>
      <set comment="kpoint 7">
       <r>  -41.5922    1.0000 </r>
       <r>  -20.7038    1.0000 </r>
       <r>   -3.7638    1.0000 </r>
       <r>   -1.5710    1.0297 </r>
       <r>   -1.5710    1.0297 </r>
       <r>    9.0164    0.0000 </r>
       <r>   14.7301    0.0000 </r>
       <r>   17.1207    0.0000 </r>
       <r>   17.1207    0.0000 </r>
      </set>
      <set comment="kpoint 8">
       <r>  -41.6407    1.0000 </r>
       <r>  -21.0788    1.0000 </r>
       <r>   -1.5104    1.0515 </r>
       <r>   -1.4124    0.9340 </r>
       <r>   -1.4124    0.9339 </r>
       <r>    7.4533    0.0000 </r>
       <r>   20.5623    0.0000 </r>
       <r>   20.5899    0.0000 </r>
       <r>   20.8659    0.0000 </r>
      </set>
      <set comment="kpoint 9">
       <r>  -41.6340    1.0000 </r>
       <r>  -21.0292    1.0000 </r>
       <r>   -1.8495    0.9989 </r>
       <r>   -1.4751    1.0419 </r>
       <r>   -1.4323    0.9836 </r>
       <r>    7.8376    0.0000 </r>
       <r>   18.5027    0.0000 </r>
       <r>   19.8310    0.0000 </r>
       <r>   20.1456    0.0000 </r>
      </set>
      <set comment="kpoint 10">
       <r>  -41.6233    1.0000 </r>
       <r>  -20.9474    1.0000 </r>
       <r>   -2.3765    1.0000 </r>
       <r>   -1.5421    1.0430 </r>
       <r>   -1.4719    1.0396 </r>
       <r>    8.3781    0.0000 </r>
       <r>   16.7258    0.0000 </r>
       <r>   19.0261    0.0000 </r>
       <r>   19.0849    0.0000 </r>
      </set>
      <set comment="kpoint 11">
       <r>  -41.6109    1.0000 </r>
       <r>  -20.8503    1.0000 </r>
       <r>   -2.9306    1.0000 </r>
       <r>   -1.5973    1.0176 </r>
       <r>   -1.5391    1.0442 </r>
       <r>    8.8707    0.0000 </r>
       <r>   15.5031    0.0000 </r>
       <r>   18.1868    0.0000 </r>
       <r>   18.2604    0.0000 </r>
      </set>
      <set comment="kpoint 12">
       <r>  -41.5997    1.0000 </r>
       <r>  -20.7599    1.0000 </r>
       <r>   -3.3954    1.0000 </r>
       <r>   -1.6288    1.0061 </r>
       <r>   -1.6179    1.0096 </r>
       <r>    9.1634    0.0000 </r>
       <r>   14.8470    0.0000 </r>
       <r>   17.5419    0.0000 </r>
       <r>   17.6426    0.0000 </r>
      </set>
      <set comment="kpoint 13">
       <r>  -41.5923    1.0000 </r>
       <r>  -20.6983    1.0000 </r>
       <r>   -3.6894    1.0000 </r>
       <r>   -1.6898    0.9958 </r>
       <r>   -1.6301    1.0057 </r>
       <r>    9.2581    0.0000 </r>
       <r>   14.6062    0.0000 </r>
       <r>   17.1860    0.0000 </r>
       <r>   17.2511    0.0000 </r>
      </set>
      <set comment="kpoint 14">
       <r>  -41.5903    1.0000 </r>
       <r>  -20.6819    1.0000 </r>
       <r>   -3.7639    1.0000 </r>
       <r>   -1.7381    0.9953 </r>
       <r>   -1.6012    1.0160 </r>
       <r>    9.2661    0.0000 </r>
       <r>   14.5583    0.0000 </r>
       <r>   17.1185    0.0000 </r>
       <r>   17.1350    0.0000 </r>
      </set>
      <set comment="kpoint 15">
       <r>  -41.5943    1.0000 </r>
       <r>  -20.7152    1.0000 </r>
       <r>   -3.6075    1.0000 </r>
       <r>   -1.7518    0.9957 </r>
       <r>   -1.5488    1.0402 </r>
       <r>    9.2325    0.0000 </r>
       <r>   14.6280    0.0000 </r>
       <r>   17.3175    0.0000 </r>
       <r>   17.3211    0.0000 </r>
      </set>
      <set comment="kpoint 16">
       <r>  -41.6031    1.0000 </r>
       <r>  -20.7890    1.0000 </r>
       <r>   -3.2463    1.0000 </r>
       <r>   -1.7268    0.9951 </r>
       <r>   -1.4841    1.0470 </r>
       <r>    9.0747    0.0000 </r>
       <r>   14.9621    0.0000 </r>
       <r>   17.7509    0.0000 </r>
       <r>   17.8182    0.0000 </r>
      </set>
      <set comment="kpoint 17">
       <r>  -41.6150    1.0000 </r>
       <r>  -20.8844    1.0000 </r>
       <r>   -2.7427    1.0000 </r>
       <r>   -1.6668    0.9980 </r>
       <r>   -1.4215    0.9583 </r>
       <r>    8.7014    0.0000 </r>
       <r>   15.7744    0.0000 </r>
       <r>   18.3634    0.0000 </r>
       <r>   18.6146    0.0000 </r>
      </set>
      <set comment="kpoint 18">
       <r>  -41.6272    1.0000 </r>
       <r>  -20.9785    1.0000 </r>
       <r>   -2.1950    1.0000 </r>
       <r>   -1.5804    1.0252 </r>
       <r>   -1.3748    0.7991 </r>
       <r>    8.1705    0.0000 </r>
       <r>   17.1321    0.0000 </r>
       <r>   19.0735    0.0000 </r>
       <r>   19.6623    0.0000 </r>
      </set>
      <set comment="kpoint 19">
       <r>  -41.6368    1.0000 </r>
       <r>  -21.0507    1.0000 </r>
       <r>   -1.7434    0.9955 </r>
       <r>   -1.4733    1.0407 </r>
       <r>   -1.3556    0.7123 </r>
       <r>    7.6653    0.0000 </r>
       <r>   18.8422    0.0000 </r>
       <r>   19.8673    0.0000 </r>
       <r>   20.7730    0.0000 </r>
      </set>
      <set comment="kpoint 20">
       <r>  -41.6295    1.0000 </r>
       <r>  -20.9921    1.0000 </r>
       <r>   -1.9452    0.9999 </r>
       <r>   -1.5676    1.0313 </r>
       <r>   -1.5676    1.0313 </r>
       <r>    8.1582    0.0000 </r>
       <r>   18.8763    0.0000 </r>
       <r>   19.4658    0.0000 </r>
       <r>   19.4705    0.0000 </r>
      </set>
      <set comment="kpoint 21">
       <r>  -41.6207    1.0000 </r>
       <r>  -20.9201    1.0000 </r>
       <r>   -2.3468    1.0000 </r>
       <r>   -1.6610    0.9988 </r>
       <r>   -1.6401    1.0030 </r>
       <r>    8.6911    0.0000 </r>
       <r>   17.1560    0.0000 </r>
       <r>   18.7269    0.0000 </r>
       <r>   18.9749    0.0000 </r>
      </set>
      <set comment="kpoint 22">
       <r>  -41.6097    1.0000 </r>
       <r>  -20.8281    1.0000 </r>
       <r>   -2.8408    1.0000 </r>
       <r>   -1.7356    0.9953 </r>
       <r>   -1.7337    0.9952 </r>
       <r>    9.2658    0.0000 </r>
       <r>   15.7138    0.0000 </r>
       <r>   17.9885    0.0000 </r>
       <r>   18.4215    0.0000 </r>
      </set>
      <set comment="kpoint 23">
       <r>  -41.5989    1.0000 </r>
       <r>  -20.7364    1.0000 </r>
       <r>   -3.2818    1.0000 </r>
       <r>   -1.8680    0.9992 </r>
       <r>   -1.7700    0.9963 </r>
       <r>    9.7041    0.0000 </r>
       <r>   14.8004    0.0000 </r>
       <r>   17.4464    0.0000 </r>
       <r>   17.8961    0.0000 </r>
      </set>
      <set comment="kpoint 24">
       <r>  -41.5908    1.0000 </r>
       <r>  -20.6668    1.0000 </r>
       <r>   -3.5834    1.0000 </r>
       <r>   -2.0082    1.0000 </r>
       <r>   -1.7621    0.9961 </r>
       <r>    9.9118    0.0000 </r>
       <r>   14.3567    0.0000 </r>
       <r>   17.1542    0.0000 </r>
       <r>   17.4922    0.0000 </r>
      </set>
      <set comment="kpoint 25">
       <r>  -41.5873    1.0000 </r>
       <r>  -20.6374    1.0000 </r>
       <r>   -3.6950    1.0000 </r>
       <r>   -2.1213    1.0000 </r>
       <r>   -1.7124    0.9951 </r>
       <r>    9.9467    0.0000 </r>
       <r>   14.1863    0.0000 </r>
       <r>   17.1047    0.0000 </r>
       <r>   17.2836    0.0000 </r>
      </set>
      <set comment="kpoint 26">
       <r>  -41.5892    1.0000 </r>
       <r>  -20.6562    1.0000 </r>
       <r>   -3.6003    1.0000 </r>
       <r>   -2.1775    1.0000 </r>
       <r>   -1.6315    1.0053 </r>
       <r>    9.8859    0.0000 </r>
       <r>   14.1606    0.0000 </r>
       <r>   17.2475    0.0000 </r>
       <r>   17.3187    0.0000 </r>
      </set>
      <set comment="kpoint 27">
       <r>  -41.5960    1.0000 </r>
       <r>  -20.7180    1.0000 </r>
       <r>   -3.3226    1.0000 </r>
       <r>   -2.1568    1.0000 </r>
       <r>   -1.5370    1.0450 </r>
       <r>    9.6861    0.0000 </r>
       <r>   14.3685    0.0000 </r>
       <r>   17.5296    0.0000 </r>
       <r>   17.6214    0.0000 </r>
      </set>
      <set comment="kpoint 28">
       <r>  -41.6062    1.0000 </r>
       <r>  -20.8067    1.0000 </r>
       <r>   -2.9274    1.0000 </r>
       <r>   -2.0467    1.0000 </r>
       <r>   -1.4502    1.0155 </r>
       <r>    9.2726    0.0000 </r>
       <r>   14.9820    0.0000 </r>
       <r>   17.9105    0.0000 </r>
       <r>   18.1838    0.0000 </r>
      </set>
      <set comment="kpoint 29">
       <r>  -41.6175    1.0000 </r>
       <r>  -20.9005    1.0000 </r>
       <r>   -2.5192    1.0000 </r>
       <r>   -1.8410    0.9987 </r>
       <r>   -1.3914    0.8649 </r>
       <r>    8.7086    0.0000 </r>
       <r>   16.0036    0.0000 </r>
       <r>   18.3827    0.0000 </r>
       <r>   18.9373    0.0000 </r>
      </set>
      <set comment="kpoint 30">
       <r>  -41.6142    1.0000 </r>
       <r>  -20.8582    1.0000 </r>
       <r>   -2.5743    1.0000 </r>
       <r>   -1.7837    0.9969 </r>
       <r>   -1.7837    0.9969 </r>
       <r>    9.2203    0.0000 </r>
       <r>   17.2225    0.0000 </r>
       <r>   18.1371    0.0000 </r>
       <r>   18.7896    0.0000 </r>
      </set>
      <set comment="kpoint 31">
       <r>  -41.6052    1.0000 </r>
       <r>  -20.7743    1.0000 </r>
       <r>   -2.9606    1.0000 </r>
       <r>   -1.9075    0.9997 </r>
       <r>   -1.8822    0.9994 </r>
       <r>    9.8438    0.0000 </r>
       <r>   16.0190    0.0000 </r>
       <r>   17.5475    0.0000 </r>
       <r>   18.4906    0.0000 </r>
      </set>
      <set comment="kpoint 32">
       <r>  -41.5957    1.0000 </r>
       <r>  -20.6866    1.0000 </r>
       <r>   -3.3242    1.0000 </r>
       <r>   -2.0850    1.0000 </r>
       <r>   -1.9356    0.9998 </r>
       <r>   10.4185    0.0000 </r>
       <r>   14.9056    0.0000 </r>
       <r>   17.1083    0.0000 </r>
       <r>   18.1275    0.0000 </r>
      </set>
      <set comment="kpoint 33">
       <r>  -41.5880    1.0000 </r>
       <r>  -20.6157    1.0000 </r>
       <r>   -3.5645    1.0000 </r>
       <r>   -2.3065    1.0000 </r>
       <r>   -1.9331    0.9998 </r>
       <r>   10.7923    0.0000 </r>
       <r>   14.2017    0.0000 </r>
       <r>   16.8922    0.0000 </r>
       <r>   17.7783    0.0000 </r>
      </set>
      <set comment="kpoint 34">
       <r>  -41.5838    1.0000 </r>
       <r>  -20.5797    1.0000 </r>
       <r>   -3.6331    1.0000 </r>
       <r>   -2.5223    1.0000 </r>
       <r>   -1.8749    0.9993 </r>
       <r>   10.9052    0.0000 </r>
       <r>   13.8265    0.0000 </r>
       <r>   16.9122    0.0000 </r>
       <r>   17.5213    0.0000 </r>
      </set>
      <set comment="kpoint 35">
       <r>  -41.5840    1.0000 </r>
       <r>  -20.5880    1.0000 </r>
       <r>   -3.5248    1.0000 </r>
       <r>   -2.6722    1.0000 </r>
       <r>   -1.7736    0.9965 </r>
       <r>   10.8056    0.0000 </r>
       <r>   13.6571    0.0000 </r>
       <r>   17.0940    0.0000 </r>
       <r>   17.4174    0.0000 </r>
      </set>
      <set comment="kpoint 36">
       <r>  -41.5887    1.0000 </r>
       <r>  -20.6385    1.0000 </r>
       <r>   -3.2992    1.0000 </r>
       <r>   -2.6803    1.0000 </r>
       <r>   -1.6507    1.0007 </r>
       <r>   10.4837    0.0000 </r>
       <r>   13.7512    0.0000 </r>
       <r>   17.3407    0.0000 </r>
       <r>   17.5012    0.0000 </r>
      </set>
      <set comment="kpoint 37">
       <r>  -41.5966    1.0000 </r>
       <r>  -20.7179    1.0000 </r>
       <r>   -3.0922    1.0000 </r>
       <r>   -2.4494    1.0000 </r>
       <r>   -1.5335    1.0463 </r>
       <r>    9.9296    0.0000 </r>
       <r>   14.2178    0.0000 </r>
       <r>   17.6055    0.0000 </r>
       <r>   17.7733    0.0000 </r>
      </set>
      <set comment="kpoint 38">
       <r>  -41.5984    1.0000 </r>
       <r>  -20.6998    1.0000 </r>
       <r>   -3.2654    1.0000 </r>
       <r>   -2.0091    1.0000 </r>
       <r>   -2.0091    1.0000 </r>
       <r>   10.4944    0.0000 </r>
       <r>   15.9672    0.0000 </r>
       <r>   17.0480    0.0000 </r>
       <r>   18.4398    0.0000 </r>
      </set>
      <set comment="kpoint 39">
       <r>  -41.5909    1.0000 </r>
       <r>  -20.6210    1.0000 </r>
       <r>   -3.5721    1.0000 </r>
       <r>   -2.1518    1.0000 </r>
       <r>   -2.0873    1.0000 </r>
       <r>   11.1368    0.0000 </r>
       <r>   15.1482    0.0000 </r>
       <r>   16.6364    0.0000 </r>
       <r>   18.2747    0.0000 </r>
      </set>
      <set comment="kpoint 40">
       <r>  -41.5844    1.0000 </r>
       <r>  -20.5563    1.0000 </r>
       <r>   -3.7547    1.0000 </r>
       <r>   -2.3799    1.0000 </r>
       <r>   -2.1015    1.0000 </r>
       <r>   11.6638    0.0000 </r>
       <r>   14.2896    0.0000 </r>
       <r>   16.4232    0.0000 </r>
       <r>   18.0368    0.0000 </r>
      </set>
      <set comment="kpoint 41">
       <r>  -41.5805    1.0000 </r>
       <r>  -20.5217    1.0000 </r>
       <r>   -3.7541    1.0000 </r>
       <r>   -2.6636    1.0000 </r>
       <r>   -2.0487    1.0000 </r>
       <r>   11.9413    0.0000 </r>
       <r>   13.6347    0.0000 </r>
       <r>   16.4896    0.0000 </r>
       <r>   17.7891    0.0000 </r>
      </set>
      <set comment="kpoint 42">
       <r>  -41.5799    1.0000 </r>
       <r>  -20.5263    1.0000 </r>
       <r>   -3.5543    1.0000 </r>
       <r>   -2.9447    1.0000 </r>
       <r>   -1.9393    0.9998 </r>
       <r>   11.8446    0.0000 </r>
       <r>   13.2561    0.0000 </r>
       <r>   16.7703    0.0000 </r>
       <r>   17.5919    0.0000 </r>
      </set>
      <set comment="kpoint 43">
       <r>  -41.5829    1.0000 </r>
       <r>  -20.5689    1.0000 </r>
       <r>   -3.1787    1.0000 </r>
       <r>   -3.1669    1.0000 </r>
       <r>   -1.7962    0.9973 </r>
       <r>   11.2862    0.0000 </r>
       <r>   13.3236    0.0000 </r>
       <r>   17.0901    0.0000 </r>
       <r>   17.4892    0.0000 </r>
      </set>
      <set comment="kpoint 44">
       <r>  -41.5856    1.0000 </r>
       <r>  -20.5543    1.0000 </r>
       <r>   -3.8565    1.0000 </r>
       <r>   -2.1927    1.0000 </r>
       <r>   -2.1927    1.0000 </r>
       <r>   11.7819    0.0000 </r>
       <r>   15.1264    0.0000 </r>
       <r>   16.2074    0.0000 </r>
       <r>   18.3019    0.0000 </r>
      </set>
      <set comment="kpoint 45">
       <r>  -41.5810    1.0000 </r>
       <r>  -20.5020    1.0000 </r>
       <r>   -4.0261    1.0000 </r>
       <r>   -2.3185    1.0000 </r>
       <r>   -2.2309    1.0000 </r>
       <r>   12.3265    0.0000 </r>
       <r>   14.5923    0.0000 </r>
       <r>   15.9080    0.0000 </r>
       <r>   18.3022    0.0000 </r>
      </set>
      <set comment="kpoint 46">
       <r>  -41.5782    1.0000 </r>
       <r>  -20.4771    1.0000 </r>
       <r>   -4.0156    1.0000 </r>
       <r>   -2.5400    1.0000 </r>
       <r>   -2.1944    1.0000 </r>
       <r>   12.7127    0.0000 </r>
       <r>   13.8129    0.0000 </r>
       <r>   15.9367    0.0000 </r>
       <r>   18.0311    0.0000 </r>
      </set>
      <set comment="kpoint 47">
       <r>  -41.5778    1.0000 </r>
       <r>  -20.4860    1.0000 </r>
       <r>   -3.8223    1.0000 </r>
       <r>   -2.7980    1.0000 </r>
       <r>   -2.0903    1.0000 </r>
       <r>   12.8616    0.0000 </r>
       <r>   12.9898    0.0000 </r>
       <r>   16.3156    0.0000 </r>
       <r>   17.8097    0.0000 </r>
      </set>
      <set comment="kpoint 48">
       <r>  -41.5785    1.0000 </r>
       <r>  -20.4658    1.0000 </r>
       <r>   -4.1978    1.0000 </r>
       <r>   -2.2952    1.0000 </r>
       <r>   -2.2952    1.0000 </r>
       <r>   12.7451    0.0000 </r>
       <r>   14.7051    0.0000 </r>
       <r>   15.5899    0.0000 </r>
       <r>   18.2670    0.0000 </r>
      </set>
      <set comment="kpoint 49">
       <r>  -41.5775    1.0000 </r>
       <r>  -20.4568    1.0000 </r>
       <r>   -4.1940    1.0000 </r>
       <r>   -2.3771    1.0000 </r>
       <r>   -2.2822    1.0000 </r>
       <r>   12.9084    0.0000 </r>
       <r>   14.3845    0.0000 </r>
       <r>   15.5424    0.0000 </r>
       <r>   18.2264    0.0000 </r>
      </set>
      <set comment="kpoint 50">
       <r>  -41.6263    1.0000 </r>
       <r>  -20.9688    1.0000 </r>
       <r>   -2.1596    1.0000 </r>
       <r>   -1.6408    1.0029 </r>
       <r>   -1.4477    1.0118 </r>
       <r>    8.2882    0.0000 </r>
       <r>   17.3519    0.0000 </r>
       <r>   18.9725    0.0000 </r>
       <r>   19.5531    0.0000 </r>
      </set>
      <set comment="kpoint 51">
       <r>  -41.6154    1.0000 </r>
       <r>  -20.8815    1.0000 </r>
       <r>   -2.6208    1.0000 </r>
       <r>   -1.7951    0.9973 </r>
       <r>   -1.4849    1.0474 </r>
       <r>    8.8549    0.0000 </r>
       <r>   15.9694    0.0000 </r>
       <r>   18.3372    0.0000 </r>
       <r>   18.7122    0.0000 </r>
      </set>
      <set comment="kpoint 52">
       <r>  -41.6039    1.0000 </r>
       <r>  -20.7860    1.0000 </r>
       <r>   -3.0992    1.0000 </r>
       <r>   -1.9062    0.9996 </r>
       <r>   -1.5509    1.0392 </r>
       <r>    9.3460    0.0000 </r>
       <r>   14.9748    0.0000 </r>
       <r>   17.7781    0.0000 </r>
       <r>   18.0073    0.0000 </r>
      </set>
      <set comment="kpoint 53">
       <r>  -41.5943    1.0000 </r>
       <r>  -20.7044    1.0000 </r>
       <r>   -3.4800    1.0000 </r>
       <r>   -1.9754    0.9999 </r>
       <r>   -1.6211    1.0085 </r>
       <r>    9.6286    0.0000 </r>
       <r>   14.4674    0.0000 </r>
       <r>   17.3585    0.0000 </r>
       <r>   17.5159    0.0000 </r>
      </set>
      <set comment="kpoint 54">
       <r>  -41.5889    1.0000 </r>
       <r>  -20.6573    1.0000 </r>
       <r>   -3.6895    1.0000 </r>
       <r>   -2.0070    1.0000 </r>
       <r>   -1.6671    0.9980 </r>
       <r>    9.7214    0.0000 </r>
       <r>   14.3055    0.0000 </r>
       <r>   17.1698    0.0000 </r>
       <r>   17.2327    0.0000 </r>
      </set>
      <set comment="kpoint 55">
       <r>  -41.6118    1.0000 </r>
       <r>  -20.8422    1.0000 </r>
       <r>   -2.6918    1.0000 </r>
       <r>   -1.8733    0.9993 </r>
       <r>   -1.6729    0.9973 </r>
       <r>    9.2672    0.0000 </r>
       <r>   16.1653    0.0000 </r>
       <r>   18.0508    0.0000 </r>
       <r>   18.6090    0.0000 </r>
      </set>
      <set comment="kpoint 56">
       <r>  -41.6016    1.0000 </r>
       <r>  -20.7513    1.0000 </r>
       <r>   -3.0793    1.0000 </r>
       <r>   -2.0679    1.0000 </r>
       <r>   -1.7306    0.9952 </r>
       <r>    9.8632    0.0000 </r>
       <r>   15.0771    0.0000 </r>
       <r>   17.5269    0.0000 </r>
       <r>   18.1478    0.0000 </r>
      </set>
      <set comment="kpoint 57">
       <r>  -41.5924    1.0000 </r>
       <r>  -20.6681    1.0000 </r>
       <r>   -3.4047    1.0000 </r>
       <r>   -2.2338    1.0000 </r>
       <r>   -1.7910    0.9971 </r>
       <r>   10.3107    0.0000 </r>
       <r>   14.3515    0.0000 </r>
       <r>   17.1735    0.0000 </r>
       <r>   17.7330    0.0000 </r>
      </set>
      <set comment="kpoint 58">
       <r>  -41.5863    1.0000 </r>
       <r>  -20.6132    1.0000 </r>
       <r>   -3.5957    1.0000 </r>
       <r>   -2.3708    1.0000 </r>
       <r>   -1.8125    0.9979 </r>
       <r>   10.5165    0.0000 </r>
       <r>   14.0064    0.0000 </r>
       <r>   17.0401    0.0000 </r>
       <r>   17.4199    0.0000 </r>
      </set>
      <set comment="kpoint 59">
       <r>  -41.5848    1.0000 </r>
       <r>  -20.6008    1.0000 </r>
       <r>   -3.6163    1.0000 </r>
       <r>   -2.4583    1.0000 </r>
       <r>   -1.7793    0.9967 </r>
       <r>   10.5296    0.0000 </r>
       <r>   13.8826    0.0000 </r>
       <r>   17.1169    0.0000 </r>
       <r>   17.2602    0.0000 </r>
      </set>
      <set comment="kpoint 60">
       <r>  -41.5881    1.0000 </r>
       <r>  -20.6343    1.0000 </r>
       <r>   -3.4699    1.0000 </r>
       <r>   -2.4640    1.0000 </r>
       <r>   -1.7024    0.9953 </r>
       <r>   10.3855    0.0000 </r>
       <r>   13.9277    0.0000 </r>
       <r>   17.2904    0.0000 </r>
       <r>   17.3514    0.0000 </r>
      </set>
      <set comment="kpoint 61">
       <r>  -41.5956    1.0000 </r>
       <r>  -20.7048    1.0000 </r>
       <r>   -3.2050    1.0000 </r>
       <r>   -2.3559    1.0000 </r>
       <r>   -1.6080    1.0132 </r>
       <r>   10.0243    0.0000 </r>
       <r>   14.2813    0.0000 </r>
       <r>   17.5075    0.0000 </r>
       <r>   17.7063    0.0000 </r>
      </set>
      <set comment="kpoint 62">
       <r>  -41.6054    1.0000 </r>
       <r>  -20.7943    1.0000 </r>
       <r>   -2.9017    1.0000 </r>
       <r>   -2.1169    1.0000 </r>
       <r>   -1.5263    1.0485 </r>
       <r>    9.4633    0.0000 </r>
       <r>   15.0202    0.0000 </r>
       <r>   17.8563    0.0000 </r>
       <r>   18.1828    0.0000 </r>
      </set>
      <set comment="kpoint 63">
       <r>  -41.5969    1.0000 </r>
       <r>  -20.6921    1.0000 </r>
       <r>   -3.2794    1.0000 </r>
       <r>   -2.1152    1.0000 </r>
       <r>   -1.9316    0.9998 </r>
       <r>   10.4880    0.0000 </r>
       <r>   15.2517    0.0000 </r>
       <r>   17.0783    0.0000 </r>
       <r>   18.2376    0.0000 </r>
      </set>
      <set comment="kpoint 64">
       <r>  -41.5890    1.0000 </r>
       <r>  -20.6141    1.0000 </r>
       <r>   -3.5277    1.0000 </r>
       <r>   -2.3421    1.0000 </r>
       <r>   -1.9807    0.9999 </r>
       <r>   11.0778    0.0000 </r>
       <r>   14.4257    0.0000 </r>
       <r>   16.7472    0.0000 </r>
       <r>   17.9289    0.0000 </r>
      </set>
      <set comment="kpoint 65">
       <r>  -41.5832    1.0000 </r>
       <r>  -20.5592    1.0000 </r>
       <r>   -3.6350    1.0000 </r>
       <r>   -2.5898    1.0000 </r>
       <r>   -1.9886    1.0000 </r>
       <r>   11.4577    0.0000 </r>
       <r>   13.8507    0.0000 </r>
       <r>   16.6364    0.0000 </r>
       <r>   17.6385    0.0000 </r>
      </set>
      <set comment="kpoint 66">
       <r>  -41.5810    1.0000 </r>
       <r>  -20.5413    1.0000 </r>
       <r>   -3.5725    1.0000 </r>
       <r>   -2.8223    1.0000 </r>
       <r>   -1.9360    0.9998 </r>
       <r>   11.5369    0.0000 </r>
       <r>   13.5192    0.0000 </r>
       <r>   16.7704    0.0000 </r>
       <r>   17.4201    0.0000 </r>
      </set>
      <set comment="kpoint 67">
       <r>  -41.5827    1.0000 </r>
       <r>  -20.5653    1.0000 </r>
       <r>   -3.3728    1.0000 </r>
       <r>   -2.9594    1.0000 </r>
       <r>   -1.8351    0.9985 </r>
       <r>   11.2968    0.0000 </r>
       <r>   13.4349    0.0000 </r>
       <r>   17.0590    0.0000 </r>
       <r>   17.3192    0.0000 </r>
      </set>
      <set comment="kpoint 68">
       <r>  -41.5879    1.0000 </r>
       <r>  -20.6248    1.0000 </r>
       <r>   -3.2477    1.0000 </r>
       <r>   -2.7890    1.0000 </r>
       <r>   -1.7140    0.9951 </r>
       <r>   10.7418    0.0000 </r>
       <r>   13.7026    0.0000 </r>
       <r>   17.3512    0.0000 </r>
       <r>   17.3886    0.0000 </r>
      </set>
      <set comment="kpoint 69">
       <r>  -41.5849    1.0000 </r>
       <r>  -20.5541    1.0000 </r>
       <r>   -3.7985    1.0000 </r>
       <r>   -2.3121    1.0000 </r>
       <r>   -2.1406    1.0000 </r>
       <r>   11.7630    0.0000 </r>
       <r>   14.6208    0.0000 </r>
       <r>   16.2572    0.0000 </r>
       <r>   18.0881    0.0000 </r>
      </set>
      <set comment="kpoint 70">
       <r>  -41.5803    1.0000 </r>
       <r>  -20.5075    1.0000 </r>
       <r>   -3.8732    1.0000 </r>
       <r>   -2.5422    1.0000 </r>
       <r>   -2.1489    1.0000 </r>
       <r>   12.2752    0.0000 </r>
       <r>   13.9792    0.0000 </r>
       <r>   16.0585    0.0000 </r>
       <r>   17.8460    0.0000 </r>
      </set>
      <set comment="kpoint 71">
       <r>  -41.5783    1.0000 </r>
       <r>  -20.4928    1.0000 </r>
       <r>   -3.7630    1.0000 </r>
       <r>   -2.8200    1.0000 </r>
       <r>   -2.0915    1.0000 </r>
       <r>   12.5469    0.0000 </r>
       <r>   13.3327    0.0000 </r>
       <r>   16.2209    0.0000 </r>
       <r>   17.6172    0.0000 </r>
      </set>
      <set comment="kpoint 72">
       <r>  -41.5791    1.0000 </r>
       <r>  -20.5139    1.0000 </r>
       <r>   -3.4872    1.0000 </r>
       <r>   -3.0737    1.0000 </r>
       <r>   -1.9775    0.9999 </r>
       <r>   12.1833    0.0000 </r>
       <r>   13.1228    0.0000 </r>
       <r>   16.6381    0.0000 </r>
       <r>   17.4328    0.0000 </r>
      </set>
      <set comment="kpoint 73">
       <r>  -41.5782    1.0000 </r>
       <r>  -20.4703    1.0000 </r>
       <r>   -4.1051    1.0000 </r>
       <r>   -2.4217    1.0000 </r>
       <r>   -2.2544    1.0000 </r>
       <r>   12.7499    0.0000 </r>
       <r>   14.2972    0.0000 </r>
       <r>   15.6129    0.0000 </r>
       <r>   18.0454    0.0000 </r>
      </set>
      <set comment="kpoint 74">
       <r>  -41.5773    1.0000 </r>
       <r>  -20.4669    1.0000 </r>
       <r>   -4.0047    1.0000 </r>
       <r>   -2.6141    1.0000 </r>
       <r>   -2.2070    1.0000 </r>
       <r>   12.9404    0.0000 </r>
       <r>   13.7302    0.0000 </r>
       <r>   15.6984    0.0000 </r>
       <r>   17.8255    0.0000 </r>
      </set>
      <set comment="kpoint 75">
       <r>  -41.5930    1.0000 </r>
       <r>  -20.6675    1.0000 </r>
       <r>   -3.2864    1.0000 </r>
       <r>   -2.4021    1.0000 </r>
       <r>   -1.7836    0.9969 </r>
       <r>   10.5233    0.0000 </r>
       <r>   14.3359    0.0000 </r>
       <r>   17.1801    0.0000 </r>
       <r>   17.7969    0.0000 </r>
      </set>
      <set comment="kpoint 76">
       <r>  -41.5859    1.0000 </r>
       <r>  -20.5963    1.0000 </r>
       <r>   -3.4355    1.0000 </r>
       <r>   -2.6679    1.0000 </r>
       <r>   -1.8572    0.9990 </r>
       <r>   11.0743    0.0000 </r>
       <r>   13.8129    0.0000 </r>
       <r>   16.9478    0.0000 </r>
       <r>   17.4731    0.0000 </r>
      </set>
      <set comment="kpoint 77">
       <r>  -41.5819    1.0000 </r>
       <r>  -20.5554    1.0000 </r>
       <r>   -3.5127    1.0000 </r>
       <r>   -2.8146    1.0000 </r>
       <r>   -1.9077    0.9997 </r>
       <r>   11.3616    0.0000 </r>
       <r>   13.5994    0.0000 </r>
       <r>   16.8484    0.0000 </r>
       <r>   17.2576    0.0000 </r>
      </set>
      <set comment="kpoint 78">
       <r>  -41.5831    1.0000 </r>
       <r>  -20.5506    1.0000 </r>
       <r>   -3.6296    1.0000 </r>
       <r>   -2.6326    1.0000 </r>
       <r>   -2.0281    1.0000 </r>
       <r>   11.7445    0.0000 </r>
       <r>   13.8995    0.0000 </r>
       <r>   16.4150    0.0000 </r>
       <r>   17.6295    0.0000 </r>
      </set>
      <set comment="kpoint 79">
       <r>  -41.5794    1.0000 </r>
       <r>  -20.5115    1.0000 </r>
       <r>   -3.5965    1.0000 </r>
       <r>   -2.9124    1.0000 </r>
       <r>   -2.0548    1.0000 </r>
       <r>   12.2341    0.0000 </r>
       <r>   13.5019    0.0000 </r>
       <r>   16.2230    0.0000 </r>
       <r>   17.3848    0.0000 </r>
      </set>
      <set comment="kpoint 80">
       <r>  -41.5786    1.0000 </r>
       <r>  -20.5068    1.0000 </r>
       <r>   -3.4291    1.0000 </r>
       <r>   -3.1432    1.0000 </r>
       <r>   -2.0280    1.0000 </r>
       <r>   12.3157    0.0000 </r>
       <r>   13.2788    0.0000 </r>
       <r>   16.3294    0.0000 </r>
       <r>   17.2533    0.0000 </r>
      </set>
      <set comment="kpoint 81">
       <r>  -41.5810    1.0000 </r>
       <r>  -20.5377    1.0000 </r>
       <r>   -3.3722    1.0000 </r>
       <r>   -3.0604    1.0000 </r>
       <r>   -1.9515    0.9999 </r>
       <r>   11.8372    0.0000 </r>
       <r>   13.4020    0.0000 </r>
       <r>   16.6539    0.0000 </r>
       <r>   17.2723    0.0000 </r>
      </set>
      <set comment="kpoint 82">
       <r>  -41.5777    1.0000 </r>
       <r>  -20.4794    1.0000 </r>
       <r>   -3.8412    1.0000 </r>
       <r>   -2.7603    1.0000 </r>
       <r>   -2.1665    1.0000 </r>
       <r>   12.7837    0.0000 </r>
       <r>   13.6853    0.0000 </r>
       <r>   15.6772    0.0000 </r>
       <r>   17.5647    0.0000 </r>
      </set>
      <set comment="kpoint 83">
       <r>  -41.5770    1.0000 </r>
       <r>  -20.4792    1.0000 </r>
       <r>   -3.6559    1.0000 </r>
       <r>   -3.0064    1.0000 </r>
       <r>   -2.1256    1.0000 </r>
       <r>   13.0386    0.0000 </r>
       <r>   13.1989    0.0000 </r>
       <r>   15.7713    0.0000 </r>
       <r>   17.3669    0.0000 </r>
      </set>
      <set comment="kpoint 84">
       <r>  -41.5772    1.0000 </r>
       <r>  -20.4843    1.0000 </r>
       <r>   -3.4497    1.0000 </r>
       <r>   -3.2098    1.0000 </r>
       <r>   -2.1063    1.0000 </r>
       <r>   12.9048    0.0000 </r>
       <r>   13.2643    0.0000 </r>
       <r>   15.7561    0.0000 </r>
       <r>   17.2505    0.0000 </r>
      </set>
     </set>
     <set comment="spin 2">
      <set comment="kpoint 1">
       <r>  -41.6448    1.0000 </r>
       <r>  -21.1086    1.0000 </r>
       <r>   -1.3560    0.7145 </r>
       <r>   -1.3560    0.7144 </r>
       <r>   -1.3560    0.7142 </r>
       <r>    7.2054    0.0000 </r>
       <r>   21.9990    0.0000 </r>
       <r>   22.0792    0.0000 </r>
       <r>   22.2665    0.0000 </r>
      </set>
      <set comment="kpoint 2">
       <r>  -41.6417    1.0000 </r>
       <r>  -21.0864    1.0000 </r>
       <r>   -1.5266    1.0485 </r>
       <r>   -1.3690    0.7741 </r>
       <r>   -1.3690    0.7741 </r>
       <r>    7.3862    0.0000 </r>
       <r>   20.0064    0.0000 </r>
       <r>   21.0953    0.0000 </r>
       <r>   21.0961    0.0000 </r>
      </set>
      <set comment="kpoint 3">
       <r>  -41.6332    1.0000 </r>
       <r>  -21.0244    1.0000 </r>
       <r>   -1.9709    0.9999 </r>
       <r>   -1.4051    0.9119 </r>
       <r>   -1.4051    0.9119 </r>
       <r>    7.8414    0.0000 </r>
       <r>   17.9240    0.0000 </r>
       <r>   19.9736    0.0000 </r>
       <r>   19.9737    0.0000 </r>
      </set>
      <set comment="kpoint 4">
       <r>  -41.6212    1.0000 </r>
       <r>  -20.9347    1.0000 </r>
       <r>   -2.5424    1.0000 </r>
       <r>   -1.4549    1.0220 </r>
       <r>   -1.4549    1.0220 </r>
       <r>    8.3754    0.0000 </r>
       <r>   16.3283    0.0000 </r>
       <r>   18.9161    0.0000 </r>
       <r>   18.9162    0.0000 </r>
      </set>
      <set comment="kpoint 5">
       <r>  -41.6086    1.0000 </r>
       <r>  -20.8364    1.0000 </r>
       <r>   -3.0978    1.0000 </r>
       <r>   -1.5063    1.0516 </r>
       <r>   -1.5063    1.0516 </r>
       <r>    8.7858    0.0000 </r>
       <r>   15.3230    0.0000 </r>
       <r>   18.0460    0.0000 </r>
       <r>   18.0460    0.0000 </r>
      </set>
      <set comment="kpoint 6">
       <r>  -41.5980    1.0000 </r>
       <r>  -20.7523    1.0000 </r>
       <r>   -3.5293    1.0000 </r>
       <r>   -1.5478    1.0406 </r>
       <r>   -1.5478    1.0406 </r>
       <r>    8.9765    0.0000 </r>
       <r>   14.8604    0.0000 </r>
       <r>   17.4348    0.0000 </r>
       <r>   17.4348    0.0000 </r>
      </set>
      <set comment="kpoint 7">
       <r>  -41.5922    1.0000 </r>
       <r>  -20.7038    1.0000 </r>
       <r>   -3.7638    1.0000 </r>
       <r>   -1.5710    1.0297 </r>
       <r>   -1.5710    1.0297 </r>
       <r>    9.0164    0.0000 </r>
       <r>   14.7301    0.0000 </r>
       <r>   17.1207    0.0000 </r>
       <r>   17.1207    0.0000 </r>
      </set>
      <set comment="kpoint 8">
       <r>  -41.6407    1.0000 </r>
       <r>  -21.0788    1.0000 </r>
       <r>   -1.5105    1.0515 </r>
       <r>   -1.4124    0.9340 </r>
       <r>   -1.4124    0.9340 </r>
       <r>    7.4533    0.0000 </r>
       <r>   20.5624    0.0000 </r>
       <r>   20.5645    0.0000 </r>
       <r>   20.8606    0.0000 </r>
      </set>
      <set comment="kpoint 9">
       <r>  -41.6340    1.0000 </r>
       <r>  -21.0292    1.0000 </r>
       <r>   -1.8495    0.9989 </r>
       <r>   -1.4751    1.0419 </r>
       <r>   -1.4323    0.9836 </r>
       <r>    7.8376    0.0000 </r>
       <r>   18.5027    0.0000 </r>
       <r>   19.8310    0.0000 </r>
       <r>   20.1395    0.0000 </r>
      </set>
      <set comment="kpoint 10">
       <r>  -41.6233    1.0000 </r>
       <r>  -20.9474    1.0000 </r>
       <r>   -2.3765    1.0000 </r>
       <r>   -1.5421    1.0430 </r>
       <r>   -1.4719    1.0396 </r>
       <r>    8.3781    0.0000 </r>
       <r>   16.7258    0.0000 </r>
       <r>   19.0261    0.0000 </r>
       <r>   19.0849    0.0000 </r>
      </set>
      <set comment="kpoint 11">
       <r>  -41.6109    1.0000 </r>
       <r>  -20.8503    1.0000 </r>
       <r>   -2.9306    1.0000 </r>
       <r>   -1.5973    1.0176 </r>
       <r>   -1.5391    1.0442 </r>
       <r>    8.8707    0.0000 </r>
       <r>   15.5031    0.0000 </r>
       <r>   18.1868    0.0000 </r>
       <r>   18.2604    0.0000 </r>
      </set>
      <set comment="kpoint 12">
       <r>  -41.5997    1.0000 </r>
       <r>  -20.7599    1.0000 </r>
       <r>   -3.3954    1.0000 </r>
       <r>   -1.6288    1.0061 </r>
       <r>   -1.6179    1.0096 </r>
       <r>    9.1634    0.0000 </r>
       <r>   14.8469    0.0000 </r>
       <r>   17.5419    0.0000 </r>
       <r>   17.6426    0.0000 </r>
      </set>
      <set comment="kpoint 13">
       <r>  -41.5923    1.0000 </r>
       <r>  -20.6983    1.0000 </r>
       <r>   -3.6894    1.0000 </r>
       <r>   -1.6898    0.9958 </r>
       <r>   -1.6301    1.0057 </r>
       <r>    9.2581    0.0000 </r>
       <r>   14.6062    0.0000 </r>
       <r>   17.1860    0.0000 </r>
       <r>   17.2511    0.0000 </r>
      </set>
      <set comment="kpoint 14">
       <r>  -41.5903    1.0000 </r>
       <r>  -20.6819    1.0000 </r>
       <r>   -3.7639    1.0000 </r>
       <r>   -1.7381    0.9953 </r>
       <r>   -1.6012    1.0160 </r>
       <r>    9.2661    0.0000 </r>
       <r>   14.5583    0.0000 </r>
       <r>   17.1185    0.0000 </r>
       <r>   17.1350    0.0000 </r>
      </set>
      <set comment="kpoint 15">
       <r>  -41.5943    1.0000 </r>
       <r>  -20.7152    1.0000 </r>
       <r>   -3.6075    1.0000 </r>
       <r>   -1.7518    0.9957 </r>
       <r>   -1.5488    1.0402 </r>
       <r>    9.2325    0.0000 </r>
       <r>   14.6280    0.0000 </r>
       <r>   17.3175    0.0000 </r>
       <r>   17.3211    0.0000 </r>
      </set>
      <set comment="kpoint 16">
       <r>  -41.6031    1.0000 </r>
       <r>  -20.7890    1.0000 </r>
       <r>   -3.2463    1.0000 </r>
       <r>   -1.7268    0.9951 </r>
       <r>   -1.4841    1.0470 </r>
       <r>    9.0747    0.0000 </r>
       <r>   14.9621    0.0000 </r>
       <r>   17.7509    0.0000 </r>
       <r>   17.8182    0.0000 </r>
      </set>
      <set comment="kpoint 17">
       <r>  -41.6150    1.0000 </r>
       <r>  -20.8844    1.0000 </r>
       <r>   -2.7427    1.0000 </r>
       <r>   -1.6668    0.9980 </r>
       <r>   -1.4215    0.9584 </r>
       <r>    8.7014    0.0000 </r>
       <r>   15.7744    0.0000 </r>
       <r>   18.3634    0.0000 </r>
       <r>   18.6146    0.0000 </r>
      </set>
      <set comment="kpoint 18">
       <r>  -41.6272    1.0000 </r>
       <r>  -20.9785    1.0000 </r>
       <r>   -2.1950    1.0000 </r>
       <r>   -1.5804    1.0252 </r>
       <r>   -1.3748    0.7992 </r>
       <r>    8.1705    0.0000 </r>
       <r>   17.1321    0.0000 </r>
       <r>   19.0735    0.0000 </r>
       <r>   19.6623    0.0000 </r>
      </set>
      <set comment="kpoint 19">
       <r>  -41.6368    1.0000 </r>
       <r>  -21.0507    1.0000 </r>
       <r>   -1.7434    0.9955 </r>
       <r>   -1.4733    1.0407 </r>
       <r>   -1.3556    0.7124 </r>
       <r>    7.6653    0.0000 </r>
       <r>   18.8422    0.0000 </r>
       <r>   19.8673    0.0000 </r>
       <r>   20.7734    0.0000 </r>
      </set>
      <set comment="kpoint 20">
       <r>  -41.6295    1.0000 </r>
       <r>  -20.9921    1.0000 </r>
       <r>   -1.9452    0.9999 </r>
       <r>   -1.5676    1.0313 </r>
       <r>   -1.5676    1.0313 </r>
       <r>    8.1582    0.0000 </r>
       <r>   18.8763    0.0000 </r>
       <r>   19.4658    0.0000 </r>
       <r>   19.4664    0.0000 </r>
      </set>
      <set comment="kpoint 21">
       <r>  -41.6207    1.0000 </r>
       <r>  -20.9201    1.0000 </r>
       <r>   -2.3468    1.0000 </r>
       <r>   -1.6610    0.9988 </r>
       <r>   -1.6402    1.0030 </r>
       <r>    8.6911    0.0000 </r>
       <r>   17.1560    0.0000 </r>
       <r>   18.7284    0.0000 </r>
       <r>   18.9749    0.0000 </r>
      </set>
      <set comment="kpoint 22">
       <r>  -41.6097    1.0000 </r>
       <r>  -20.8282    1.0000 </r>
       <r>   -2.8408    1.0000 </r>
       <r>   -1.7356    0.9953 </r>
       <r>   -1.7337    0.9952 </r>
       <r>    9.2658    0.0000 </r>
       <r>   15.7138    0.0000 </r>
       <r>   17.9885    0.0000 </r>
       <r>   18.4215    0.0000 </r>
      </set>
      <set comment="kpoint 23">
       <r>  -41.5989    1.0000 </r>
       <r>  -20.7364    1.0000 </r>
       <r>   -3.2818    1.0000 </r>
       <r>   -1.8680    0.9992 </r>
       <r>   -1.7700    0.9963 </r>
       <r>    9.7041    0.0000 </r>
       <r>   14.8004    0.0000 </r>
       <r>   17.4464    0.0000 </r>
       <r>   17.8960    0.0000 </r>
      </set>
      <set comment="kpoint 24">
       <r>  -41.5908    1.0000 </r>
       <r>  -20.6668    1.0000 </r>
       <r>   -3.5834    1.0000 </r>
       <r>   -2.0082    1.0000 </r>
       <r>   -1.7621    0.9961 </r>
       <r>    9.9118    0.0000 </r>
       <r>   14.3567    0.0000 </r>
       <r>   17.1542    0.0000 </r>
       <r>   17.4923    0.0000 </r>
      </set>
      <set comment="kpoint 25">
       <r>  -41.5873    1.0000 </r>
       <r>  -20.6374    1.0000 </r>
       <r>   -3.6950    1.0000 </r>
       <r>   -2.1213    1.0000 </r>
       <r>   -1.7124    0.9951 </r>
       <r>    9.9467    0.0000 </r>
       <r>   14.1863    0.0000 </r>
       <r>   17.1047    0.0000 </r>
       <r>   17.2836    0.0000 </r>
      </set>
      <set comment="kpoint 26">
       <r>  -41.5892    1.0000 </r>
       <r>  -20.6562    1.0000 </r>
       <r>   -3.6003    1.0000 </r>
       <r>   -2.1775    1.0000 </r>
       <r>   -1.6315    1.0053 </r>
       <r>    9.8859    0.0000 </r>
       <r>   14.1606    0.0000 </r>
       <r>   17.2475    0.0000 </r>
       <r>   17.3187    0.0000 </r>
      </set>
      <set comment="kpoint 27">
       <r>  -41.5960    1.0000 </r>
       <r>  -20.7180    1.0000 </r>
       <r>   -3.3226    1.0000 </r>
       <r>   -2.1568    1.0000 </r>
       <r>   -1.5370    1.0450 </r>
       <r>    9.6861    0.0000 </r>
       <r>   14.3685    0.0000 </r>
       <r>   17.5296    0.0000 </r>
       <r>   17.6214    0.0000 </r>
      </set>
      <set comment="kpoint 28">
       <r>  -41.6062    1.0000 </r>
       <r>  -20.8067    1.0000 </r>
       <r>   -2.9274    1.0000 </r>
       <r>   -2.0467    1.0000 </r>
       <r>   -1.4502    1.0155 </r>
       <r>    9.2726    0.0000 </r>
       <r>   14.9820    0.0000 </r>
       <r>   17.9105    0.0000 </r>
       <r>   18.1838    0.0000 </r>
      </set>
      <set comment="kpoint 29">
       <r>  -41.6175    1.0000 </r>
       <r>  -20.9006    1.0000 </r>
       <r>   -2.5192    1.0000 </r>
       <r>   -1.8410    0.9987 </r>
       <r>   -1.3914    0.8649 </r>
       <r>    8.7086    0.0000 </r>
       <r>   16.0036    0.0000 </r>
       <r>   18.3827    0.0000 </r>
       <r>   18.9373    0.0000 </r>
      </set>
      <set comment="kpoint 30">
       <r>  -41.6142    1.0000 </r>
       <r>  -20.8582    1.0000 </r>
       <r>   -2.5743    1.0000 </r>
       <r>   -1.7837    0.9969 </r>
       <r>   -1.7837    0.9969 </r>
       <r>    9.2203    0.0000 </r>
       <r>   17.2225    0.0000 </r>
       <r>   18.1371    0.0000 </r>
       <r>   18.7896    0.0000 </r>
      </set>
      <set comment="kpoint 31">
       <r>  -41.6052    1.0000 </r>
       <r>  -20.7743    1.0000 </r>
       <r>   -2.9606    1.0000 </r>
       <r>   -1.9075    0.9997 </r>
       <r>   -1.8822    0.9994 </r>
       <r>    9.8438    0.0000 </r>
       <r>   16.0190    0.0000 </r>
       <r>   17.5475    0.0000 </r>
       <r>   18.4908    0.0000 </r>
      </set>
      <set comment="kpoint 32">
       <r>  -41.5957    1.0000 </r>
       <r>  -20.6866    1.0000 </r>
       <r>   -3.3242    1.0000 </r>
       <r>   -2.0850    1.0000 </r>
       <r>   -1.9356    0.9998 </r>
       <r>   10.4185    0.0000 </r>
       <r>   14.9056    0.0000 </r>
       <r>   17.1083    0.0000 </r>
       <r>   18.1275    0.0000 </r>
      </set>
      <set comment="kpoint 33">
       <r>  -41.5880    1.0000 </r>
       <r>  -20.6157    1.0000 </r>
       <r>   -3.5645    1.0000 </r>
       <r>   -2.3065    1.0000 </r>
       <r>   -1.9331    0.9998 </r>
       <r>   10.7923    0.0000 </r>
       <r>   14.2017    0.0000 </r>
       <r>   16.8922    0.0000 </r>
       <r>   17.7783    0.0000 </r>
      </set>
      <set comment="kpoint 34">
       <r>  -41.5838    1.0000 </r>
       <r>  -20.5797    1.0000 </r>
       <r>   -3.6331    1.0000 </r>
       <r>   -2.5224    1.0000 </r>
       <r>   -1.8749    0.9993 </r>
       <r>   10.9052    0.0000 </r>
       <r>   13.8265    0.0000 </r>
       <r>   16.9122    0.0000 </r>
       <r>   17.5213    0.0000 </r>
      </set>
      <set comment="kpoint 35">
       <r>  -41.5840    1.0000 </r>
       <r>  -20.5880    1.0000 </r>
       <r>   -3.5248    1.0000 </r>
       <r>   -2.6722    1.0000 </r>
       <r>   -1.7736    0.9965 </r>
       <r>   10.8056    0.0000 </r>
       <r>   13.6571    0.0000 </r>
       <r>   17.0940    0.0000 </r>
       <r>   17.4174    0.0000 </r>
      </set>
      <set comment="kpoint 36">
       <r>  -41.5887    1.0000 </r>
       <r>  -20.6385    1.0000 </r>
       <r>   -3.2992    1.0000 </r>
       <r>   -2.6803    1.0000 </r>
       <r>   -1.6507    1.0007 </r>
       <r>   10.4837    0.0000 </r>
       <r>   13.7511    0.0000 </r>
       <r>   17.3407    0.0000 </r>
       <r>   17.5012    0.0000 </r>
      </set>
      <set comment="kpoint 37">
       <r>  -41.5966    1.0000 </r>
       <r>  -20.7179    1.0000 </r>
       <r>   -3.0922    1.0000 </r>
       <r>   -2.4494    1.0000 </r>
       <r>   -1.5335    1.0463 </r>
       <r>    9.9296    0.0000 </r>
       <r>   14.2178    0.0000 </r>
       <r>   17.6055    0.0000 </r>
       <r>   17.7733    0.0000 </r>
      </set>
      <set comment="kpoint 38">
       <r>  -41.5984    1.0000 </r>
       <r>  -20.6998    1.0000 </r>
       <r>   -3.2654    1.0000 </r>
       <r>   -2.0091    1.0000 </r>
       <r>   -2.0091    1.0000 </r>
       <r>   10.4944    0.0000 </r>
       <r>   15.9672    0.0000 </r>
       <r>   17.0480    0.0000 </r>
       <r>   18.4398    0.0000 </r>
      </set>
      <set comment="kpoint 39">
       <r>  -41.5909    1.0000 </r>
       <r>  -20.6211    1.0000 </r>
       <r>   -3.5721    1.0000 </r>
       <r>   -2.1518    1.0000 </r>
       <r>   -2.0873    1.0000 </r>
       <r>   11.1368    0.0000 </r>
       <r>   15.1482    0.0000 </r>
       <r>   16.6363    0.0000 </r>
       <r>   18.2780    0.0000 </r>
      </set>
      <set comment="kpoint 40">
       <r>  -41.5844    1.0000 </r>
       <r>  -20.5563    1.0000 </r>
       <r>   -3.7547    1.0000 </r>
       <r>   -2.3799    1.0000 </r>
       <r>   -2.1015    1.0000 </r>
       <r>   11.6638    0.0000 </r>
       <r>   14.2896    0.0000 </r>
       <r>   16.4232    0.0000 </r>
       <r>   18.0368    0.0000 </r>
      </set>
      <set comment="kpoint 41">
       <r>  -41.5805    1.0000 </r>
       <r>  -20.5217    1.0000 </r>
       <r>   -3.7541    1.0000 </r>
       <r>   -2.6636    1.0000 </r>
       <r>   -2.0487    1.0000 </r>
       <r>   11.9413    0.0000 </r>
       <r>   13.6347    0.0000 </r>
       <r>   16.4896    0.0000 </r>
       <r>   17.7891    0.0000 </r>
      </set>
      <set comment="kpoint 42">
       <r>  -41.5799    1.0000 </r>
       <r>  -20.5263    1.0000 </r>
       <r>   -3.5543    1.0000 </r>
       <r>   -2.9447    1.0000 </r>
       <r>   -1.9393    0.9998 </r>
       <r>   11.8446    0.0000 </r>
       <r>   13.2561    0.0000 </r>
       <r>   16.7703    0.0000 </r>
       <r>   17.5919    0.0000 </r>
      </set>
      <set comment="kpoint 43">
       <r>  -41.5829    1.0000 </r>
       <r>  -20.5689    1.0000 </r>
       <r>   -3.1787    1.0000 </r>
       <r>   -3.1669    1.0000 </r>
       <r>   -1.7962    0.9973 </r>
       <r>   11.2862    0.0000 </r>
       <r>   13.3236    0.0000 </r>
       <r>   17.0901    0.0000 </r>
       <r>   17.4892    0.0000 </r>
      </set>
      <set comment="kpoint 44">
       <r>  -41.5856    1.0000 </r>
       <r>  -20.5543    1.0000 </r>
       <r>   -3.8565    1.0000 </r>
       <r>   -2.1927    1.0000 </r>
       <r>   -2.1927    1.0000 </r>
       <r>   11.7819    0.0000 </r>
       <r>   15.1264    0.0000 </r>
       <r>   16.2074    0.0000 </r>
       <r>   18.3019    0.0000 </r>
      </set>
      <set comment="kpoint 45">
       <r>  -41.5810    1.0000 </r>
       <r>  -20.5020    1.0000 </r>
       <r>   -4.0261    1.0000 </r>
       <r>   -2.3185    1.0000 </r>
       <r>   -2.2309    1.0000 </r>
       <r>   12.3265    0.0000 </r>
       <r>   14.5923    0.0000 </r>
       <r>   15.9080    0.0000 </r>
       <r>   18.3040    0.0000 </r>
      </set>
      <set comment="kpoint 46">
       <r>  -41.5782    1.0000 </r>
       <r>  -20.4771    1.0000 </r>
       <r>   -4.0156    1.0000 </r>
       <r>   -2.5400    1.0000 </r>
       <r>   -2.1944    1.0000 </r>
       <r>   12.7127    0.0000 </r>
       <r>   13.8129    0.0000 </r>
       <r>   15.9367    0.0000 </r>
       <r>   18.0311    0.0000 </r>
      </set>
      <set comment="kpoint 47">
       <r>  -41.5778    1.0000 </r>
       <r>  -20.4860    1.0000 </r>
       <r>   -3.8223    1.0000 </r>
       <r>   -2.7980    1.0000 </r>
       <r>   -2.0903    1.0000 </r>
       <r>   12.8616    0.0000 </r>
       <r>   12.9898    0.0000 </r>
       <r>   16.3156    0.0000 </r>
       <r>   17.8096    0.0000 </r>
      </set>
      <set comment="kpoint 48">
       <r>  -41.5785    1.0000 </r>
       <r>  -20.4658    1.0000 </r>
       <r>   -4.1978    1.0000 </r>
       <r>   -2.2952    1.0000 </r>
       <r>   -2.2952    1.0000 </r>
       <r>   12.7451    0.0000 </r>
       <r>   14.7051    0.0000 </r>
       <r>   15.5899    0.0000 </r>
       <r>   18.2670    0.0000 </r>
      </set>
      <set comment="kpoint 49">
       <r>  -41.5775    1.0000 </r>
       <r>  -20.4568    1.0000 </r>
       <r>   -4.1940    1.0000 </r>
       <r>   -2.3771    1.0000 </r>
       <r>   -2.2822    1.0000 </r>
       <r>   12.9084    0.0000 </r>
       <r>   14.3845    0.0000 </r>
       <r>   15.5424    0.0000 </r>
       <r>   18.2033    0.0000 </r>
      </set>
      <set comment="kpoint 50">
       <r>  -41.6263    1.0000 </r>
       <r>  -20.9688    1.0000 </r>
       <r>   -2.1596    1.0000 </r>
       <r>   -1.6408    1.0029 </r>
       <r>   -1.4477    1.0118 </r>
       <r>    8.2882    0.0000 </r>
       <r>   17.3519    0.0000 </r>
       <r>   18.9725    0.0000 </r>
       <r>   19.5530    0.0000 </r>
      </set>
[...]
        <r>  0.0702  0.0089  0.1597  0.0000  0.0000  0.0000  0.0000  0.0000  0.0000 </r>
       </set>
       <set comment="band 7">
        <r>  0.0000  0.0000  0.0000  0.1944  0.0000  0.0000  0.0000  0.0000  0.0000 </r>
        <r>  0.0000  0.0000  0.0000  0.1372  0.0000  0.0000  0.0000  0.0000  0.0000 </r>
       </set>
       <set comment="band 8">
        <r>  0.1176  0.1095  0.3396  0.0000  0.0000  0.0000  0.0000  0.0000  0.0000 </r>
        <r>  0.0053  0.0113  0.0098  0.0000  0.0000  0.0000  0.0000  0.0000  0.0000 </r>
       </set>
       <set comment="band 9">
        <r>  0.0844  0.4498  0.0005  0.0000  0.0000  0.0000  0.0000  0.0000  0.0000 </r>
        <r>  0.0021  0.0840  0.0341  0.0000  0.0000  0.0000  0.0000  0.0000  0.0000 </r>
       </set>
      </set>
      <set comment="kpoint 76">
       <set comment="band 1">
        <r>  0.9890  0.0000  0.0000  0.0000  0.0000  0.0000  0.0000  0.0000  0.0000 </r>
        <r>  0.0001  0.0001  0.0001  0.0000  0.0000  0.0000  0.0000  0.0000  0.0000 </r>
       </set>
       <set comment="band 2">
        <r>  0.0008  0.0004  0.0003  0.0000  0.0000  0.0000  0.0000  0.0000  0.0000 </r>
        <r>  0.8612  0.0000  0.0001  0.0000  0.0000  0.0000  0.0000  0.0000  0.0000 </r>
       </set>
       <set comment="band 3">
        <r>  0.0147  0.0001  0.0079  0.0008  0.0000  0.0000  0.0000  0.0000  0.0000 </r>
        <r>  0.0031  0.1166  0.4930  0.0427  0.0000  0.0000  0.0000  0.0000  0.0000 </r>
       </set>
       <set comment="band 4">
        <r>  0.0000  0.0000  0.0010  0.0141  0.0000  0.0000  0.0000  0.0000  0.0000 </r>
        <r>  0.0005  0.0000  0.0555  0.6569  0.0000  0.0000  0.0000  0.0000  0.0000 </r>
       </set>
       <set comment="band 5">
        <r>  0.0028  0.0010  0.0020  0.0002  0.0000  0.0000  0.0000  0.0000  0.0000 </r>
        <r>  0.0001  0.6491  0.1263  0.0113  0.0000  0.0000  0.0000  0.0000  0.0000 </r>
       </set>
       <set comment="band 6">
        <r>  0.0200  0.0690  0.1125  0.0091  0.0000  0.0000  0.0000  0.0000  0.0000 </r>
        <r>  0.0565  0.0068  0.1509  0.0040  0.0000  0.0000  0.0000  0.0000  0.0000 </r>
       </set>
       <set comment="band 7">
        <r>  0.0048  0.0009  0.0102  0.1822  0.0000  0.0000  0.0000  0.0000  0.0000 </r>
        <r>  0.0000  0.0064  0.0167  0.1673  0.0000  0.0000  0.0000  0.0000  0.0000 </r>
       </set>
       <set comment="band 8">
        <r>  0.0724  0.2620  0.2441  0.0009  0.0000  0.0000  0.0000  0.0000  0.0000 </r>
        <r>  0.0096  0.0069  0.0254  0.0045  0.0000  0.0000  0.0000  0.0000  0.0000 </r>
       </set>
       <set comment="band 9">
        <r>  0.1635  0.2470  0.0134  0.0295  0.0000  0.0000  0.0000  0.0000  0.0000 </r>
        <r>  0.0021  0.0883  0.0277  0.0014  0.0000  0.0000  0.0000  0.0000  0.0000 </r>
       </set>
      </set>
      <set comment="kpoint 77">
       <set comment="band 1">
        <r>  0.9893  0.0000  0.0000  0.0000  0.0000  0.0000  0.0000  0.0000  0.0000 </r>
        <r>  0.0000  0.0001  0.0000  0.0000  0.0000  0.0000  0.0000  0.0000  0.0000 </r>
       </set>
       <set comment="band 2">
        <r>  0.0001  0.0004  0.0002  0.0001  0.0000  0.0000  0.0000  0.0000  0.0000 </r>
        <r>  0.8646  0.0000  0.0000  0.0000  0.0000  0.0000  0.0000  0.0000  0.0000 </r>
       </set>
       <set comment="band 3">
        <r>  0.0135  0.0000  0.0070  0.0036  0.0000  0.0000  0.0000  0.0000  0.0000 </r>
        <r>  0.0004  0.1113  0.3609  0.1787  0.0000  0.0000  0.0000  0.0000  0.0000 </r>
       </set>
       <set comment="band 4">
        <r>  0.0000  0.0000  0.0048  0.0105  0.0000  0.0000  0.0000  0.0000  0.0000 </r>
        <r>  0.0015  0.0000  0.2298  0.4682  0.0000  0.0000  0.0000  0.0000  0.0000 </r>
       </set>
       <set comment="band 5">
        <r>  0.0039  0.0001  0.0017  0.0009  0.0000  0.0000  0.0000  0.0000  0.0000 </r>
        <r>  0.0000  0.6512  0.0880  0.0440  0.0000  0.0000  0.0000  0.0000  0.0000 </r>
       </set>
       <set comment="band 6">
        <r>  0.0026  0.0823  0.0920  0.0450  0.0000  0.0000  0.0000  0.0000  0.0000 </r>
        <r>  0.0475  0.0011  0.1008  0.0362  0.0000  0.0000  0.0000  0.0000  0.0000 </r>
       </set>
       <set comment="band 7">
        <r>  0.0126  0.0002  0.0587  0.1318  0.0000  0.0000  0.0000  0.0000  0.0000 </r>
        <r>  0.0000  0.0170  0.0786  0.1493  0.0000  0.0000  0.0000  0.0000  0.0000 </r>
       </set>
       <set comment="band 8">
        <r>  0.0133  0.4365  0.1251  0.0251  0.0000  0.0000  0.0000  0.0000  0.0000 </r>
        <r>  0.0146  0.0014  0.0355  0.0223  0.0000  0.0000  0.0000  0.0000  0.0000 </r>
       </set>
       <set comment="band 9">
        <r>  0.2393  0.0413  0.0475  0.0677  0.0000  0.0000  0.0000  0.0000  0.0000 </r>
        <r>  0.0005  0.0922  0.0078  0.0001  0.0000  0.0000  0.0000  0.0000  0.0000 </r>
       </set>
      </set>
      <set comment="kpoint 78">
       <set comment="band 1">
        <r>  0.9892  0.0000  0.0000  0.0000  0.0000  0.0000  0.0000  0.0000  0.0000 </r>
        <r>  0.0001  0.0001  0.0000  0.0000  0.0000  0.0000  0.0000  0.0000  0.0000 </r>
       </set>
       <set comment="band 2">
        <r>  0.0009  0.0003  0.0002  0.0000  0.0000  0.0000  0.0000  0.0000  0.0000 </r>
        <r>  0.8645  0.0000  0.0001  0.0000  0.0000  0.0000  0.0000  0.0000  0.0000 </r>
       </set>
       <set comment="band 3">
        <r>  0.0078  0.0001  0.0148  0.0000  0.0000  0.0000  0.0000  0.0000  0.0000 </r>
        <r>  0.0030  0.0425  0.5941  0.0000  0.0000  0.0000  0.0000  0.0000  0.0000 </r>
       </set>
       <set comment="band 4">
        <r>  0.0000  0.0000  0.0000  0.0155  0.0000  0.0000  0.0000  0.0000  0.0000 </r>
        <r>  0.0000  0.0000  0.0000  0.7182  0.0000  0.0000  0.0000  0.0000  0.0000 </r>
       </set>
       <set comment="band 5">
        <r>  0.0045  0.0038  0.0013  0.0000  0.0000  0.0000  0.0000  0.0000  0.0000 </r>
        <r>  0.0001  0.7230  0.0496  0.0000  0.0000  0.0000  0.0000  0.0000  0.0000 </r>
       </set>
       <set comment="band 6">
        <r>  0.0254  0.0445  0.1380  0.0000  0.0000  0.0000  0.0000  0.0000  0.0000 </r>
        <r>  0.0416  0.0021  0.2216  0.0000  0.0000  0.0000  0.0000  0.0000  0.0000 </r>
       </set>
       <set comment="band 7">
        <r>  0.0000  0.0000  0.0000  0.1733  0.0000  0.0000  0.0000  0.0000  0.0000 </r>
        <r>  0.0000  0.0000  0.0000  0.1511  0.0000  0.0000  0.0000  0.0000  0.0000 </r>
       </set>
       <set comment="band 8">
        <r>  0.1140  0.2178  0.1650  0.0000  0.0000  0.0000  0.0000  0.0000  0.0000 </r>
        <r>  0.0209  0.0015  0.0323  0.0000  0.0000  0.0000  0.0000  0.0000  0.0000 </r>
       </set>
       <set comment="band 9">
        <r>  0.1453  0.3243  0.0065  0.0000  0.0000  0.0000  0.0000  0.0000  0.0000 </r>
        <r>  0.0024  0.1147  0.0148  0.0000  0.0000  0.0000  0.0000  0.0000  0.0000 </r>
       </set>
      </set>
      <set comment="kpoint 79">
       <set comment="band 1">
        <r>  0.9895  0.0000  0.0000  0.0000  0.0000  0.0000  0.0000  0.0000  0.0000 </r>
        <r>  0.0000  0.0001  0.0000  0.0000  0.0000  0.0000  0.0000  0.0000  0.0000 </r>
       </set>
       <set comment="band 2">
        <r>  0.0003  0.0004  0.0001  0.0000  0.0000  0.0000  0.0000  0.0000  0.0000 </r>
        <r>  0.8678  0.0000  0.0000  0.0000  0.0000  0.0000  0.0000  0.0000  0.0000 </r>
       </set>
       <set comment="band 3">
        <r>  0.0051  0.0000  0.0167  0.0003  0.0000  0.0000  0.0000  0.0000  0.0000 </r>
        <r>  0.0010  0.0344  0.5914  0.0156  0.0000  0.0000  0.0000  0.0000  0.0000 </r>
       </set>
       <set comment="band 4">
        <r>  0.0008  0.0001  0.0008  0.0156  0.0000  0.0000  0.0000  0.0000  0.0000 </r>
        <r>  0.0002  0.0142  0.0249  0.6551  0.0000  0.0000  0.0000  0.0000  0.0000 </r>
       </set>
       <set comment="band 5">
        <r>  0.0068  0.0016  0.0009  0.0006  0.0000  0.0000  0.0000  0.0000  0.0000 </r>
        <r>  0.0000  0.7154  0.0306  0.0252  0.0000  0.0000  0.0000  0.0000  0.0000 </r>
       </set>
       <set comment="band 6">
        <r>  0.0080  0.0549  0.1374  0.0194  0.0000  0.0000  0.0000  0.0000  0.0000 </r>
        <r>  0.0290  0.0004  0.1940  0.0154  0.0000  0.0000  0.0000  0.0000  0.0000 </r>
       </set>
       <set comment="band 7">
        <r>  0.0021  0.0036  0.0310  0.1560  0.0000  0.0000  0.0000  0.0000  0.0000 </r>
        <r>  0.0003  0.0052  0.0411  0.1626  0.0000  0.0000  0.0000  0.0000  0.0000 </r>
       </set>
       <set comment="band 8">
        <r>  0.0618  0.3567  0.0820  0.0081  0.0000  0.0000  0.0000  0.0000  0.0000 </r>
        <r>  0.0309  0.0012  0.0297  0.0138  0.0000  0.0000  0.0000  0.0000  0.0000 </r>
       </set>
       <set comment="band 9">
        <r>  0.2252  0.1454  0.0103  0.0250  0.0000  0.0000  0.0000  0.0000  0.0000 </r>
        <r>  0.0016  0.1087  0.0061  0.0008  0.0000  0.0000  0.0000  0.0000  0.0000 </r>
       </set>
      </set>
      <set comment="kpoint 80">
       <set comment="band 1">
        <r>  0.9896  0.0000  0.0000  0.0000  0.0000  0.0000  0.0000  0.0000  0.0000 </r>
        <r>  0.0000  0.0001  0.0000  0.0000  0.0000  0.0000  0.0000  0.0000  0.0000 </r>
       </set>
       <set comment="band 2">
        <r>  0.0000  0.0004  0.0000  0.0001  0.0000  0.0000  0.0000  0.0000  0.0000 </r>
        <r>  0.8683  0.0000  0.0000  0.0000  0.0000  0.0000  0.0000  0.0000  0.0000 </r>
       </set>
       <set comment="band 3">
        <r>  0.0043  0.0000  0.0141  0.0028  0.0000  0.0000  0.0000  0.0000  0.0000 </r>
        <r>  0.0000  0.0384  0.4942  0.1226  0.0000  0.0000  0.0000  0.0000  0.0000 </r>
       </set>
       <set comment="band 4">
        <r>  0.0026  0.0001  0.0046  0.0115  0.0000  0.0000  0.0000  0.0000  0.0000 </r>
        <r>  0.0008  0.0328  0.1566  0.4854  0.0000  0.0000  0.0000  0.0000  0.0000 </r>
       </set>
       <set comment="band 5">
        <r>  0.0070  0.0003  0.0003  0.0017  0.0000  0.0000  0.0000  0.0000  0.0000 </r>
        <r>  0.0000  0.6921  0.0091  0.0723  0.0000  0.0000  0.0000  0.0000  0.0000 </r>
       </set>
       <set comment="band 6">
        <r>  0.0001  0.0724  0.0458  0.1059  0.0000  0.0000  0.0000  0.0000  0.0000 </r>
        <r>  0.0290  0.0029  0.0558  0.1133  0.0000  0.0000  0.0000  0.0000  0.0000 </r>
       </set>
       <set comment="band 7">
        <r>  0.0031  0.0018  0.1527  0.0496  0.0000  0.0000  0.0000  0.0000  0.0000 </r>
        <r>  0.0003  0.0056  0.1882  0.0594  0.0000  0.0000  0.0000  0.0000  0.0000 </r>
       </set>
       <set comment="band 8">
        <r>  0.0193  0.4513  0.0178  0.0477  0.0000  0.0000  0.0000  0.0000  0.0000 </r>
        <r>  0.0314  0.0018  0.0087  0.0497  0.0000  0.0000  0.0000  0.0000  0.0000 </r>
       </set>
       <set comment="band 9">
        <r>  0.2746  0.0250  0.0067  0.0592  0.0000  0.0000  0.0000  0.0000  0.0000 </r>
        <r>  0.0002  0.1030  0.0007  0.0000  0.0000  0.0000  0.0000  0.0000  0.0000 </r>
       </set>
      </set>
      <set comment="kpoint 81">
       <set comment="band 1">
        <r>  0.9894  0.0000  0.0000  0.0000  0.0000  0.0000  0.0000  0.0000  0.0000 </r>
        <r>  0.0000  0.0001  0.0000  0.0000  0.0000  0.0000  0.0000  0.0000  0.0000 </r>
       </set>
       <set comment="band 2">
        <r>  0.0002  0.0004  0.0000  0.0002  0.0000  0.0000  0.0000  0.0000  0.0000 </r>
        <r>  0.8658  0.0000  0.0000  0.0000  0.0000  0.0000  0.0000  0.0000  0.0000 </r>
       </set>
       <set comment="band 3">
        <r>  0.0103  0.0000  0.0000  0.0117  0.0000  0.0000  0.0000  0.0000  0.0000 </r>
        <r>  0.0018  0.0954  0.0000  0.5624  0.0000  0.0000  0.0000  0.0000  0.0000 </r>
       </set>
       <set comment="band 4">
        <r>  0.0000  0.0000  0.0179  0.0000  0.0000  0.0000  0.0000  0.0000  0.0000 </r>
        <r>  0.0000  0.0000  0.6819  0.0000  0.0000  0.0000  0.0000  0.0000  0.0000 </r>
       </set>
       <set comment="band 5">
        <r>  0.0052  0.0001  0.0000  0.0023  0.0000  0.0000  0.0000  0.0000  0.0000 </r>
        <r>  0.0000  0.6688  0.0000  0.1107  0.0000  0.0000  0.0000  0.0000  0.0000 </r>
       </set>
       <set comment="band 6">
        <r>  0.0086  0.0792  0.0000  0.1351  0.0000  0.0000  0.0000  0.0000  0.0000 </r>
        <r>  0.0411  0.0087  0.0000  0.1655  0.0000  0.0000  0.0000  0.0000  0.0000 </r>
       </set>
       <set comment="band 7">
        <r>  0.0000  0.0000  0.2037  0.0000  0.0000  0.0000  0.0000  0.0000  0.0000 </r>
        <r>  0.0000  0.0000  0.2198  0.0000  0.0000  0.0000  0.0000  0.0000  0.0000 </r>
       </set>
       <set comment="band 8">
        <r>  0.0017  0.4594  0.0000  0.1289  0.0000  0.0000  0.0000  0.0000  0.0000 </r>
        <r>  0.0215  0.0000  0.0000  0.0597  0.0000  0.0000  0.0000  0.0000  0.0000 </r>
       </set>
       <set comment="band 9">
        <r>  0.2758  0.0219  0.0000  0.0566  0.0000  0.0000  0.0000  0.0000  0.0000 </r>
        <r>  0.0004  0.1020  0.0000  0.0076  0.0000  0.0000  0.0000  0.0000  0.0000 </r>
       </set>
      </set>
      <set comment="kpoint 82">
       <set comment="band 1">
        <r>  0.9896  0.0000  0.0000  0.0000  0.0000  0.0000  0.0000  0.0000  0.0000 </r>
        <r>  0.0000  0.0001  0.0000  0.0000  0.0000  0.0000  0.0000  0.0000  0.0000 </r>
       </set>
       <set comment="band 2">
        <r>  0.0004  0.0003  0.0000  0.0000  0.0000  0.0000  0.0000  0.0000  0.0000 </r>
        <r>  0.8702  0.0000  0.0000  0.0000  0.0000  0.0000  0.0000  0.0000  0.0000 </r>
       </set>
       <set comment="band 3">
        <r>  0.0010  0.0000  0.0215  0.0000  0.0000  0.0000  0.0000  0.0000  0.0000 </r>
        <r>  0.0004  0.0045  0.6195  0.0000  0.0000  0.0000  0.0000  0.0000  0.0000 </r>
       </set>
       <set comment="band 4">
        <r>  0.0000  0.0000  0.0000  0.0164  0.0000  0.0000  0.0000  0.0000  0.0000 </r>
        <r>  0.0000  0.0000  0.0000  0.7085  0.0000  0.0000  0.0000  0.0000  0.0000 </r>
       </set>
       <set comment="band 5">
        <r>  0.0074  0.0046  0.0002  0.0000  0.0000  0.0000  0.0000  0.0000  0.0000 </r>
        <r>  0.0000  0.7572  0.0052  0.0000  0.0000  0.0000  0.0000  0.0000  0.0000 </r>
       </set>
       <set comment="band 6">
        <r>  0.0061  0.0133  0.1986  0.0000  0.0000  0.0000  0.0000  0.0000  0.0000 </r>
        <r>  0.0086  0.0002  0.2917  0.0000  0.0000  0.0000  0.0000  0.0000  0.0000 </r>
       </set>
       <set comment="band 7">
        <r>  0.0000  0.0000  0.0000  0.1618  0.0000  0.0000  0.0000  0.0000  0.0000 </r>
        <r>  0.0000  0.0000  0.0000  0.1575  0.0000  0.0000  0.0000  0.0000  0.0000 </r>
       </set>
       <set comment="band 8">
        <r>  0.1226  0.2903  0.0290  0.0000  0.0000  0.0000  0.0000  0.0000  0.0000 </r>
        <r>  0.0483  0.0001  0.0131  0.0000  0.0000  0.0000  0.0000  0.0000  0.0000 </r>
       </set>
       <set comment="band 9">
        <r>  0.1811  0.2689  0.0014  0.0000  0.0000  0.0000  0.0000  0.0000  0.0000 </r>
        <r>  0.0024  0.1266  0.0017  0.0000  0.0000  0.0000  0.0000  0.0000  0.0000 </r>
       </set>
      </set>
      <set comment="kpoint 83">
       <set comment="band 1">
        <r>  0.9896  0.0000  0.0000  0.0000  0.0000  0.0000  0.0000  0.0000  0.0000 </r>
        <r>  0.0000  0.0001  0.0000  0.0000  0.0000  0.0000  0.0000  0.0000  0.0000 </r>
       </set>
       <set comment="band 2">
        <r>  0.0001  0.0004  0.0000  0.0000  0.0000  0.0000  0.0000  0.0000  0.0000 </r>
        <r>  0.8703  0.0000  0.0000  0.0000  0.0000  0.0000  0.0000  0.0000  0.0000 </r>
       </set>
       <set comment="band 3">
        <r>  0.0000  0.0000  0.0213  0.0000  0.0000  0.0000  0.0000  0.0000  0.0000 </r>
        <r>  0.0000  0.0000  0.6372  0.0000  0.0000  0.0000  0.0000  0.0000  0.0000 </r>
       </set>
       <set comment="band 4">
        <r>  0.0019  0.0001  0.0000  0.0163  0.0000  0.0000  0.0000  0.0000  0.0000 </r>
        <r>  0.0001  0.0286  0.0000  0.6592  0.0000  0.0000  0.0000  0.0000  0.0000 </r>
       </set>
       <set comment="band 5">
        <r>  0.0087  0.0018  0.0000  0.0008  0.0000  0.0000  0.0000  0.0000  0.0000 </r>
        <r>  0.0000  0.7344  0.0000  0.0315  0.0000  0.0000  0.0000  0.0000  0.0000 </r>
       </set>
       <set comment="band 6">
        <r>  0.0000  0.0000  0.2140  0.0000  0.0000  0.0000  0.0000  0.0000  0.0000 </r>
        <r>  0.0000  0.0000  0.2883  0.0000  0.0000  0.0000  0.0000  0.0000  0.0000 </r>
       </set>
       <set comment="band 7">
        <r>  0.0001  0.0357  0.0000  0.1646  0.0000  0.0000  0.0000  0.0000  0.0000 </r>
        <r>  0.0100  0.0035  0.0000  0.1725  0.0000  0.0000  0.0000  0.0000  0.0000 </r>
       </set>
       <set comment="band 8">
        <r>  0.0658  0.3936  0.0000  0.0155  0.0000  0.0000  0.0000  0.0000  0.0000 </r>
        <r>  0.0490  0.0009  0.0000  0.0245  0.0000  0.0000  0.0000  0.0000  0.0000 </r>
       </set>
       <set comment="band 9">
        <r>  0.2450  0.1229  0.0000  0.0237  0.0000  0.0000  0.0000  0.0000  0.0000 </r>
        <r>  0.0013  0.1137  0.0000  0.0006  0.0000  0.0000  0.0000  0.0000  0.0000 </r>
       </set>
      </set>
      <set comment="kpoint 84">
       <set comment="band 1">
        <r>  0.9896  0.0000  0.0000  0.0000  0.0000  0.0000  0.0000  0.0000  0.0000 </r>
        <r>  0.0000  0.0001  0.0000  0.0000  0.0000  0.0000  0.0000  0.0000  0.0000 </r>
       </set>
       <set comment="band 2">
        <r>  0.0000  0.0004  0.0000  0.0000  0.0000  0.0000  0.0000  0.0000  0.0000 </r>
        <r>  0.8700  0.0000  0.0000  0.0000  0.0000  0.0000  0.0000  0.0000  0.0000 </r>
       </set>
       <set comment="band 3">
        <r>  0.0014  0.0000  0.0191  0.0000  0.0000  0.0000  0.0000  0.0000  0.0000 </r>
        <r>  0.0002  0.0117  0.6407  0.0000  0.0000  0.0000  0.0000  0.0000  0.0000 </r>
       </set>
       <set comment="band 4">
        <r>  0.0000  0.0000  0.0000  0.0189  0.0000  0.0000  0.0000  0.0000  0.0000 </r>
        <r>  0.0000  0.0000  0.0000  0.6709  0.0000  0.0000  0.0000  0.0000  0.0000 </r>
       </set>
       <set comment="band 5">
        <r>  0.0106  0.0002  0.0004  0.0000  0.0000  0.0000  0.0000  0.0000  0.0000 </r>
        <r>  0.0000  0.7541  0.0134  0.0000  0.0000  0.0000  0.0000  0.0000  0.0000 </r>
       </set>
       <set comment="band 6">
        <r>  0.0016  0.0266  0.1869  0.0000  0.0000  0.0000  0.0000  0.0000  0.0000 </r>
        <r>  0.0097  0.0010  0.2399  0.0000  0.0000  0.0000  0.0000  0.0000  0.0000 </r>
       </set>
       <set comment="band 7">
        <r>  0.0000  0.0000  0.0000  0.1977  0.0000  0.0000  0.0000  0.0000  0.0000 </r>
        <r>  0.0000  0.0000  0.0000  0.2321  0.0000  0.0000  0.0000  0.0000  0.0000 </r>
       </set>
       <set comment="band 8">
        <r>  0.0055  0.5029  0.0265  0.0000  0.0000  0.0000  0.0000  0.0000  0.0000 </r>
        <r>  0.0526  0.0000  0.0204  0.0000  0.0000  0.0000  0.0000  0.0000  0.0000 </r>
       </set>
       <set comment="band 9">
        <r>  0.3075  0.0143  0.0073  0.0000  0.0000  0.0000  0.0000  0.0000  0.0000 </r>
        <r>  0.0002  0.1098  0.0007  0.0000  0.0000  0.0000  0.0000  0.0000  0.0000 </r>
       </set>
      </set>
     </set>
    </set>
   </array>
  </projected>
 </calculation>
 <structure name="finalpos" >
  <crystal>
   <varray name="basis" >
    <v>       0.00000000       2.04171400       2.04171400 </v>
    <v>       2.04171400       0.00000000       2.04171400 </v>
    <v>       2.04171400       2.04171400       0.00000000 </v>
   </varray>
   <i name="volume">     17.02216186 </i>
   <varray name="rec_basis" >
    <v>      -0.24489228       0.24489228       0.24489228 </v>
    <v>       0.24489228      -0.24489228       0.24489228 </v>
    <v>       0.24489228       0.24489228      -0.24489228 </v>
   </varray>
  </crystal>
  <varray name="positions" >
   <v>       0.00000000       0.00000000       0.00000000 </v>
   <v>       0.50000000       0.50000000       0.50000000 </v>
  </varray>
 </structure>
</modeling>
