
Running Job 1 of 1 mol.qin
qchem mol.qin_34733.0 /tmp/qchem34733/ 1
/global/common/edison/software/qchem/5.1/exe/qcprog.exe mol.qin_34733.0 /tmp/qchem34733/
Check license passed

                  Welcome to Q-Chem
     A Quantum Leap Into The Future Of Chemistry


 Q-Chem 5.1, Q-Chem, Inc., Pleasanton, CA (2018)

 Yihan Shao,  Zhengting Gan,  E. Epifanovsky,  A. T. B. Gilbert,  M. Wormit,  
 J. Kussmann,  A. W. Lange,  A. Behn,  Jia Deng,  Xintian Feng,  D. Ghosh,  
 M. Goldey,  P. R. Horn,  L. D. Jacobson,  I. Kaliman,  T. Kus,  A. Landau,  
 Jie Liu,  E. I. Proynov,  R. M. Richard,  R. P. Steele,  E. J. Sundstrom,  
 H. L. Woodcock III,  P. M. Zimmerman,  D. Zuev,  B. Albrecht,  E. Alguire,  
 S. A. Baeppler,  D. Barton,  Z. Benda,  Y. A. Bernard,  E. J. Berquist,  
 K. B. Bravaya,  H. Burton,  D. Casanova,  Chun-Min Chang,  Yunqing Chen,  
 A. Chien,  K. D. Closser,  M. P. Coons,  S. Coriani,  S. Dasgupta,  
 A. L. Dempwolff,  M. Diedenhofen,  Hainam Do,  R. G. Edgar,  Po-Tung Fang,  
 S. Faraji,  S. Fatehi,  Qingguo Feng,  K. D. Fenk,  J. Fosso-Tande,  
 Qinghui Ge,  A. Ghysels,  G. Gidofalvi,  J. Gomes,  J. Gonthier,  A. Gunina,  
 D. Hait,  M. W. D. Hanson-Heine,  P. H. P. Harbach,  A. W. Hauser,  
 J. E. Herr,  E. G. Hohenstein,  Z. C. Holden,  Kerwin Hui,  B. C. Huynh,  
 T.-C. Jagau,  Hyunjun Ji,  B. Kaduk,  K. Khistyaev,  Jaehoon Kim,  
 P. Klunzinger,  K. Koh,  D. Kosenkov,  L. Koulias,  T. Kowalczyk,  
 C. M. Krauter,  A. Kunitsa,  Ka Un Lao,  A. Laurent,  K. V. Lawler,  
 Joonho Lee,  D. Lefrancois,  S. Lehtola,  D. S. Levine,  Yi-Pei Li,  
 You-Sheng Lin,  Fenglai Liu,  E. Livshits,  A. Luenser,  P. Manohar,  
 E. Mansoor,  S. F. Manzer,  Shan-Ping Mao,  Yuezhi Mao,  N. Mardirossian,  
 A. V. Marenich,  T. Markovich,  L. A. Martinez-Martinez,  S. A. Maurer,  
 N. J. Mayhall,  S. C. McKenzie,  J.-M. Mewes,  A. F. Morrison,  
 J. W. Mullinax,  K. Nanda,  T. S. Nguyen-Beck,  R. Olivares-Amaya,  
 J. A. Parkhill,  T. M. Perrine,  F. Plasser,  P. Pokhilko,  S. Prager,  
 A. Prociuk,  E. Ramos,  D. R. Rehn,  F. Rob,  M. Schneider,  N. Sergueev,  
 S. M. Sharada,  S. Sharma,  D. W. Small,  T. Stauch,  T. Stein,  
 Yu-Chuan Su,  A. J. W. Thom,  A. Tkatchenko,  T. Tsuchimochi,  N. M. Tubman,  
 L. Vogt,  M. L. Vidal,  O. Vydrov,  M. A. Watson,  J. Wenzel,  
 M. de Wergifosse,  T. A. Wesolowski,  A. White,  J. Witte,  A. Yamada,  
 Jun Yang,  K. Yao,  S. Yeganeh,  S. R. Yost,  Zhi-Qiang You,  A. Zech,  
 Igor Ying Zhang,  Xing Zhang,  Yan Zhao,  Ying Zhu,  B. R. Brooks,  
 G. K. L. Chan,  C. J. Cramer,  M. S. Gordon,  W. J. Hehre,  A. Klamt,  
 M. W. Schmidt,  C. D. Sherrill,  D. G. Truhlar,  A. Aspuru-Guzik,  R. Baer,  
 A. T. Bell,  N. A. Besley,  Jeng-Da Chai,  R. A. DiStasio Jr.,  A. Dreuw,  
 B. D. Dunietz,  T. R. Furlani,  Chao-Ping Hsu,  Yousung Jung,  Jing Kong,  
 D. S. Lambrecht,  WanZhen Liang,  C. Ochsenfeld,  V. A. Rassolov,  
 L. V. Slipchenko,  J. E. Subotnik,  T. Van Voorhis,  J. M. Herbert,  
 A. I. Krylov,  P. M. W. Gill,  M. Head-Gordon

 Contributors to earlier versions of Q-Chem not listed above: 
 R. D. Adamson,  B. Austin,  J. Baker,  G. J. O. Beran,  K. Brandhorst,  
 S. T. Brown,  E. F. C. Byrd,  A. K. Chakraborty,  C.-L. Cheng,  
 Siu Hung Chien,  D. M. Chipman,  D. L. Crittenden,  H. Dachsel,  
 R. J. Doerksen,  A. D. Dutoi,  L. Fusti-Molnar,  W. A. Goddard III,  
 A. Golubeva-Zadorozhnaya,  S. R. Gwaltney,  G. Hawkins,  A. Heyden,  
 S. Hirata,  G. Kedziora,  F. J. Keil,  C. Kelley,  Jihan Kim,  R. A. King,  
 R. Z. Khaliullin,  P. P. Korambath,  W. Kurlancheek,  A. M. Lee,  M. S. Lee,  
 S. V. Levchenko,  Ching Yeh Lin,  D. Liotard,  R. C. Lochan,  I. Lotan,  
 P. E. Maslen,  N. Nair,  D. P. O'Neill,  D. Neuhauser,  E. Neuscamman,  
 C. M. Oana,  R. Olson,  B. Peters,  R. Peverati,  P. A. Pieniazek,  
 Y. M. Rhee,  J. Ritchie,  M. A. Rohrdanz,  E. Rosta,  N. J. Russ,  
 H. F. Schaefer III,  N. E. Schultz,  N. Shenvi,  A. C. Simmonett,  A. Sodt,  
 D. Stuck,  K. S. Thanthiriwatte,  V. Vanovschi,  Tao Wang,  A. Warshel,  
 C. F. Williams,  Q. Wu,  X. Xu,  W. Zhang

 Please cite Q-Chem as follows:
 Y. Shao et al., Mol. Phys. 113, 184-215 (2015)
 DOI: 10.1080/00268976.2014.952696

 Q-Chem 5.1.0 for Intel X86 EM64T Linux

 Parts of Q-Chem use Armadillo 8.300.2 (Tropical Shenanigans).
 http://arma.sourceforge.net/

 Q-Chem begins on Tue Nov 13 14:21:31 2018  

Host: edison03
0

     Scratch files written to /tmp/qchem34733//
 Jun2518 |scratch|qcdevops|jenkins|workspace|build_RNUM -1
Processing $rem in /global/common/edison/software/qchem/5.1/config/preferences.
 MEM_TOTAL  48000 

Checking the input file for inconsistencies... 	...done.

--------------------------------------------------------------
User input:
--------------------------------------------------------------
$molecule
0 2
O      1.0779352922      0.4087998860      0.0000159844
O     -1.0779360340      0.4087994890      0.0000134467
O      0.0000001906     -1.5728550611     -0.0000038293
C      2.3378449908     -0.2808963917      0.0000126462
C     -2.3378435749     -0.2808955684      0.0000056470
C      3.4279169549      0.7642371238     -0.0000124127
C     -3.4279174520      0.7642366136     -0.0000072696
C      0.0000003750     -0.3689053184     -0.0000286356
H      2.3882776626     -0.9218045668      0.8834030220
H      2.3882540516     -0.9218317127     -0.8833585025
H     -2.3882556324     -0.9218230244     -0.8833714492
H      4.4045968651      0.2736482674     -0.0000215776
H      3.3637001568      1.3988332854     -0.8862525014
H     -4.4045964871      0.2736460975     -0.0000186087
H     -3.3637323660      1.3988413380      0.8862290354
$end

$rem
job_type = opt
basis = 6-311++g*
max_scf_cycles = 200
gen_scfman = true
scf_algorithm = gdm
method = wb97xd
geom_opt_max_cycles = 200
$end
--------------------------------------------------------------
 ----------------------------------------------------------------
             Standard Nuclear Orientation (Angstroms)
    I     Atom           X                Y                Z
 ----------------------------------------------------------------
    1      O       1.0349465992     0.4483965861     0.0177117206
    2      O      -1.1206796557     0.4304525051    -0.0093924111
    3      O      -0.0269326401    -1.5416699726     0.0485011075
    4      C       2.3002585015    -0.2306182310     0.0489858681
    5      C      -2.3748985442    -0.2695339932    -0.0097995432
    6      C       3.3818037054     0.8232918686     0.0392685328
    7      C      -3.4732515309     0.7662293759    -0.0469114707
    8      C      -0.0366122513    -0.3380613960     0.0215255061
    9      H       2.3445719243    -0.8512418817     0.9470659893
   10      H       2.3670815053    -0.8906356756    -0.8191128616
   11      H      -2.4088851869    -0.9303828562    -0.8791718236
   12      H       4.3623172029     0.3409706503     0.0625192705
   13      H       3.3237948183     1.4374270678    -0.8616923467
   14      H      -4.4458749196     0.2676483621    -0.0482186761
   15      H      -3.4254790545     1.4209356391     0.8256337541
 ----------------------------------------------------------------
 Molecular Point Group                 C1    NOp =  1
 Largest Abelian Subgroup              C1    NOp =  1
 Nuclear Repulsion Energy =   358.9957125979 hartrees
 There are       31 alpha and       30 beta electrons
 Requested basis set is 6-311++G(d)
 There are 76 shells and 204 basis functions

 Total QAlloc Memory Limit  48000 MB
 Mega-Array Size       188 MB
 MEM_STATIC part       192 MB
 A cutoff of  1.0D-12 yielded   2587 shell pairs
 There are     19237 function pairs (     20736 Cartesian)
 
 -------------------------------------------------------
 OpenMP Integral Computing Module                       
 Release: version 1.0, May 2013, Q-Chem Inc. Pittsburgh 
 -------------------------------------------------------
 Integral Job Info:
 Integral job number is                      11
 Integral operator is                         1
 short-range coefficients              22203600
 long-range coefficients              100000000
 Omega coefficients                         200
 if combine SR and LR in K                    1
 Integral screening is                        0
 Integral computing path is                   2
 max size of driver memory is            800000
 size of driver memory is                593474
 size of scratch memory is              2428936
 max col of scratch BK array               1296
 max len of scratch array in speh3          155
 max len of scratch index in speh4           18
 max int batch size is                      520
 min int batch size is                       52
 fixed nKL is                                52
 max L of basis functions is                  2
 order of int derivative is                   0
 number of shells is                         76
 number of basis is                         212
 number of cartesian basis is               212
 number of contracted shell pairs          2587
 number of primitive shell pairs           6816
 maxK2 (contraction) of shell pair           36
 max number of K2 of shell pair               1
 max number of CS2 of shell pair            514
 max number of PS2 of shell pair           1068
 mem total for path MDJ                  543950
 -------------------------------------------------------
 Smallest overlap matrix eigenvalue = 4.69E-05

 Scale SEOQF with 1.000000e-01/1.000000e-01/1.000000e-01

 Standard Electronic Orientation quadrupole field applied
 Nucleus-field energy     =     0.0000000131 hartrees
 Guess from superposition of atomic densities
 Warning:  Energy on first SCF cycle will be non-variational
 SAD guess density has 61.000000 electrons

 -----------------------------------------------------------------------
  General SCF calculation program by
  Eric Jon Sundstrom, Paul Horn, Yuezhi Mao, Dmitri Zuev, Alec White,
  David Stuck, Shaama M.S., Shane Yost, Joonho Lee, David Small,
  Daniel Levine, Susi Lehtola, Hugh Burton, Evgeny Epifanovsky
 -----------------------------------------------------------------------
 Exchange:     0.2220 Hartree-Fock + 1.0000 wB97X-D + LR-HF
 Correlation:  1.0000 wB97X-D
 Using SG-2 standard quadrature grid
 Dispersion:   Grimme D
 using 32 threads for integral computing
 -------------------------------------------------------
 OpenMP Integral computing Module                
 Release: version 1.0, May 2013, Q-Chem Inc. Pittsburgh 
 -------------------------------------------------------
 using 32 threads for integral computing
 -------------------------------------------------------
 OpenMP Integral computing Module                
 Release: version 1.0, May 2013, Q-Chem Inc. Pittsburgh 
 -------------------------------------------------------
 -------------------------------------------------------
 OpenMP BLAS3 based DFT computing Module                
 Release: version 1.0, May 2013, Q-Chem Inc. Pittsburgh 
 -------------------------------------------------------
 A unrestricted SCF calculation will be
 performed using Roothaan-Hall, GDM
 SCF converges when RMS gradient is below 1.0e-08
 ---------------------------------------
  Cycle       Energy         DIIS error
 ---------------------------------------
    1    -421.7474287120      2.21e-02  Roothaan Step
 ---------------------------------------
  Cycle       Energy        RMS Gradient
 ---------------------------------------
    1    -420.0358090133      1.45e-01   Descent step
    2    -420.1949807405      2.84e-02   Normal BFGS step
    3    -420.2066885785      2.88e-02   Normal BFGS step
    4    -420.2104713167      9.67e-03   Normal BFGS step
    5    -420.2113452298      2.61e-03   Normal BFGS step
    6    -420.2114056505      2.10e-03   Normal BFGS step
    7    -420.2114239111      6.89e-04   Normal BFGS step
    8    -420.2114259417      4.81e-04   Normal BFGS step
    9    -420.2114275419      8.31e-05   Normal BFGS step
   10    -420.2114275951      3.80e-05   Normal BFGS step
   11    -420.2114276223      1.71e-05   Normal BFGS step
   12    -420.2114276258      1.54e-05   Normal BFGS step
   13    -420.2114276271      1.03e-05   Normal BFGS step
   14    -420.2114276276      1.20e-05   Normal BFGS step
   15    -420.2114276288      1.51e-05   Normal BFGS step
   16    -420.2114276318      2.21e-05   Normal BFGS step
   17    -420.2114276440      6.08e-05   Normal BFGS step
   18    -420.2114277974      3.83e-04  Line search: understep
   19    -420.2114145610      3.30e-03  Line search: overstep
   20    -420.2114279520      6.74e-04  Line search: understep
   21    -420.2114187690      3.04e-03  Line search: overstep
   22    -420.2114280559      9.23e-04   Dog-leg BFGS step
   23    -420.2092468685      1.45e-02  Line search: overstep
   24    -420.2114281698      2.00e-03   Dog-leg BFGS step
   25    -420.2086492317      1.81e-02  Line search: overstep
   26    -420.2114312747      2.87e-03   Normal BFGS step
   27    -420.2113411149      3.38e-03  Line search: overstep
   28    -420.2114430947      3.03e-03   Normal BFGS step
   29    -420.2114719722      1.46e-03   Normal BFGS step
   30    -420.2114797938      8.72e-04   Normal BFGS step
   31    -420.2114861171      6.44e-04   Normal BFGS step
   32    -420.2114902565      2.49e-04   Normal BFGS step
   33    -420.2114903887      1.99e-04   Normal BFGS step
   34    -420.2114905835      3.42e-05   Normal BFGS step
   35    -420.2114905905      1.76e-05   Normal BFGS step
   36    -420.2114905937      1.60e-05   Normal BFGS step
   37    -420.2114905943      3.86e-06   Normal BFGS step
   38    -420.2114905944      2.69e-06   Normal BFGS step
   39    -420.2114905944      4.50e-07   Normal BFGS step
   40    -420.2114905944      2.70e-07   Normal BFGS step
   41    -420.2114905944      6.78e-08   Normal BFGS step
   42    -420.2114905944      4.75e-08   Normal BFGS step
   43    -420.2114905944      7.56e-09  Convergence criterion met
 ---------------------------------------
 SCF time:   CPU 1404.92s  wall 52.00s 
<S^2> =          0.815459421
 SCF   energy in the final basis set =     -420.2114905944
 Total energy in the final basis set =     -420.2114905944
 
 --------------------------------------------------------------
 
                    Orbital Energies (a.u.)
 --------------------------------------------------------------
 
 Alpha MOs
 -- Occupied --
-19.321 -19.308 -19.244 -10.470 -10.390 -10.360 -10.320 -10.319
 -1.271  -1.183  -1.140  -0.904  -0.863  -0.768  -0.715  -0.672
 -0.658  -0.617  -0.592  -0.558  -0.534  -0.524  -0.497  -0.493
 -0.472  -0.464  -0.440  -0.410  -0.391  -0.349  -0.341
 -- Virtual --
 -0.025   0.041   0.050   0.064   0.065   0.074   0.079   0.091
  0.104   0.111   0.116   0.128   0.133   0.143   0.146   0.150
  0.157   0.168   0.171   0.180   0.187   0.188   0.198   0.201
  0.209   0.215   0.229   0.231   0.239   0.246   0.256   0.261
  0.272   0.275   0.286   0.291   0.307   0.323   0.324   0.330
  0.349   0.351   0.356   0.368   0.380   0.381   0.399   0.414
  0.434   0.451   0.462   0.481   0.485   0.533   0.548   0.568
  0.572   0.592   0.608   0.618   0.644   0.656   0.665   0.679
  0.688   0.702   0.716   0.723   0.730   0.738   0.753   0.761
  0.788   0.804   0.812   0.828   0.876   0.923   0.955   0.981
  1.052   1.099   1.123   1.148   1.167   1.194   1.215   1.229
  1.258   1.269   1.295   1.319   1.370   1.380   1.412   1.442
  1.487   1.522   1.565   1.617   1.640   1.678   1.686   1.696
  1.702   1.752   1.770   1.795   1.816   1.832   1.842   1.877
  1.928   1.931   1.978   2.004   2.065   2.146   2.187   2.526
  2.533   2.558   2.568   2.576   2.595   2.637   2.648   2.812
  2.858   2.879   2.890   2.912   2.942   2.980   2.998   3.026
  3.063   3.106   3.170   3.201   3.228   3.236   3.283   3.301
  3.310   3.334   3.462   3.491   3.663   3.712   3.780   3.915
  4.043   4.047   4.205   4.225   5.073   5.109   5.142   5.299
  5.324   5.457   5.643   5.948   5.974  23.553  23.637  23.752
 23.782  23.946  49.987  50.052  50.145
 
 Beta MOs
 -- Occupied --
-19.321 -19.308 -19.244 -10.470 -10.387 -10.361 -10.323 -10.306
 -1.270  -1.181  -1.139  -0.896  -0.856  -0.760  -0.703  -0.669
 -0.655  -0.613  -0.591  -0.548  -0.531  -0.520  -0.494  -0.486
 -0.467  -0.458  -0.437  -0.407  -0.390  -0.352
 -- Virtual --
 -0.028  -0.024   0.044   0.051   0.065   0.067   0.075   0.083
  0.092   0.105   0.110   0.117   0.129   0.145   0.146   0.150
  0.155   0.159   0.171   0.173   0.181   0.189   0.191   0.199
  0.207   0.211   0.217   0.232   0.234   0.243   0.247   0.262
  0.263   0.275   0.279   0.290   0.294   0.313   0.324   0.327
  0.332   0.350   0.352   0.358   0.370   0.381   0.384   0.400
  0.416   0.436   0.453   0.463   0.483   0.488   0.539   0.548
  0.569   0.577   0.595   0.614   0.633   0.647   0.656   0.674
  0.684   0.696   0.705   0.718   0.727   0.733   0.741   0.756
  0.766   0.790   0.809   0.817   0.829   0.878   0.928   0.960
  0.985   1.054   1.103   1.126   1.151   1.171   1.197   1.217
  1.230   1.261   1.270   1.300   1.322   1.373   1.382   1.420
  1.453   1.492   1.534   1.576   1.624   1.647   1.680   1.696
  1.704   1.716   1.754   1.778   1.801   1.821   1.838   1.869
  1.877   1.931   1.937   1.981   2.008   2.067   2.154   2.193
  2.528   2.537   2.566   2.568   2.585   2.595   2.641   2.650
  2.820   2.873   2.888   2.899   2.915   2.959   2.990   3.001
  3.028   3.066   3.113   3.177   3.203   3.229   3.238   3.284
  3.308   3.312   3.339   3.463   3.491   3.663   3.714   3.782
  3.921   4.045   4.049   4.206   4.226   5.074   5.110   5.142
  5.299   5.324   5.458   5.644   5.948   5.975  23.558  23.646
 23.753  23.789  23.946  49.987  50.053  50.145
 --------------------------------------------------------------
 
          Ground-State Mulliken Net Atomic Charges

     Atom                 Charge (a.u.)    Spin (a.u.)
  --------------------------------------------------------
      1 O                    -0.025271      -0.002521
      2 O                    -0.009272       0.010058
      3 O                    -0.269045       0.003011
      4 C                    -0.464182      -0.031732
      5 C                    -0.018820       0.250454
      6 C                    -0.408725       1.043713
      7 C                    -0.496298      -0.283065
      8 C                    -0.049480       0.004319
      9 H                     0.289178       0.010675
     10 H                     0.297674       0.047638
     11 H                     0.262413      -0.004924
     12 H                     0.217950      -0.034101
     13 H                     0.213802      -0.031324
     14 H                     0.231965       0.008507
     15 H                     0.228111       0.009290
  --------------------------------------------------------
  Sum of atomic charges =    -0.000000
  Sum of spin   charges =     1.000000

 -----------------------------------------------------------------
                    Cartesian Multipole Moments
 -----------------------------------------------------------------
    Charge (ESU x 10^10)
                -0.0000
    Dipole Moment (Debye)
         X       0.5505      Y       0.0632      Z      -0.6322
       Tot       0.8407
    Quadrupole Moments (Debye-Ang)
        XX     -34.7555     XY      -1.9270     YY     -54.0990
        XZ      -1.9939     YZ       0.9987     ZZ     -46.5190
    Octopole Moments (Debye-Ang^2)
       XXX       0.1973    XXY      -8.1317    XYY      -0.6621
       YYY       4.1007    XXZ      -4.2128    XYZ      -8.9121
       YYZ      -1.3051    XZZ       2.7388    YZZ      -2.3582
       ZZZ      -0.8307
    Hexadecapole Moments (Debye-Ang^3)
      XXXX   -1377.7065   XXXY     -24.9389   XXYY    -303.0767
      XYYY      -6.7732   YYYY    -239.5351   XXXZ     -30.1486
      XXYZ       6.4849   XYYZ      -8.8097   YYYZ       1.2166
      XXZZ    -277.7343   XYZZ      -2.1706   YYZZ     -45.1949
      XZZZ      -4.1528   YZZZ       1.2331   ZZZZ     -63.0739
 -----------------------------------------------------------------
 Calculating analytic gradient of the SCF energy
 Gradient of SCF Energy
            1           2           3           4           5           6
    1   0.0046806   0.0159348   0.0005598  -0.0014615   0.0466155   0.0016924
    2   0.0014034   0.0191662  -0.0026902  -0.0167210  -0.1239979   0.0322327
    3   0.0017988  -0.0190183   0.0005625  -0.0166082   0.0692991   0.0334966
            7           8           9          10          11          12
    1  -0.0525731  -0.0101144   0.0004700  -0.0026789  -0.0022234  -0.0024622
    2   0.1041155   0.0078242   0.0013280   0.0008370   0.0201272  -0.0058153
    3  -0.0637453  -0.0018110   0.0002778   0.0029736  -0.0151263  -0.0125587
           13          14          15
    1   0.0030479   0.0032228  -0.0047101
    2  -0.0129039  -0.0052328  -0.0196730
    3  -0.0087992   0.0155505   0.0137082
 Max gradient component =       1.240E-01
 RMS gradient           =       3.194E-02
 Gradient time:  CPU 65.36 s  wall 4.11 s
 Geometry Optimization Parameters
   NAtoms,    NIC,     NZ,  NCons,   NDum,   NFix, NCnnct, MaxDiis
       15      83       0       0       0       0       0       0


** GEOMETRY OPTIMIZATION IN DELOCALIZED INTERNAL COORDINATES **
   Searching for a Minimum

   Optimization Cycle:   1

                       Coordinates (Angstroms)
     ATOM                X               Y               Z
      1  O         1.0349465992    0.4483965861    0.0177117206
      2  O        -1.1206796557    0.4304525051   -0.0093924111
      3  O        -0.0269326401   -1.5416699726    0.0485011075
      4  C         2.3002585015   -0.2306182310    0.0489858681
      5  C        -2.3748985442   -0.2695339932   -0.0097995432
      6  C         3.3818037054    0.8232918686    0.0392685328
      7  C        -3.4732515309    0.7662293759   -0.0469114707
      8  C        -0.0366122513   -0.3380613960    0.0215255061
      9  H         2.3445719243   -0.8512418817    0.9470659893
     10  H         2.3670815053   -0.8906356756   -0.8191128616
     11  H        -2.4088851869   -0.9303828562   -0.8791718236
     12  H         4.3623172029    0.3409706503    0.0625192705
     13  H         3.3237948183    1.4374270678   -0.8616923467
     14  H        -4.4458749196    0.2676483621   -0.0482186761
     15  H        -3.4254790545    1.4209356391    0.8256337541
   Point Group: c1    Number of degrees of freedom:    39


   Energy is   -420.211490594


 Attempting to Generate Delocalized Internal Coordinates

 39 Hessian modes will be used to form the next step
  Hessian Eigenvalues:
     0.007836    0.007836    0.010839    0.010840    0.025011    0.025011
     0.025011    0.041474    0.048455    0.053270    0.065672    0.072034
     0.113281    0.128954    0.137772    0.160000    0.160000    0.160000
     0.160000    0.219871    0.234553    0.250000    0.250000    0.250000
     0.250000    0.313351    0.313351    0.344718    0.344718    0.345186
     0.345186    0.345187    0.345934    0.345934    0.400926    0.400930
     0.596951    0.596953    1.028632

 Minimum Search - Taking Simple RFO Step
 Searching for Lamda that Minimizes Along All modes
 Value Taken    Lamda =  -0.07020654
 Calculated Step too Large.  Step scaled by  0.469944
 Step Taken.  Stepsize is  0.300000

                             Maximum     Tolerance    Cnvgd?
         Gradient           0.086028      0.000300      NO
         Displacement       0.171156      0.001200      NO
         Energy change     *********      0.000001      NO


 New Cartesian Coordinates Obtained by Inverse Iteration

 Displacement from previous Coordinates is:  0.315304
 ----------------------------------------------------------------
             Standard Nuclear Orientation (Angstroms)
    I     Atom           X                Y                Z
 ----------------------------------------------------------------
    1      O       1.0374201163     0.4595127399     0.0038426608
    2      O      -1.1176601708     0.4679495633    -0.0419088037
    3      O      -0.0462488857    -1.5184091868     0.0378195987
    4      C       2.2948651316    -0.2340271914     0.0489673848
    5      C      -2.3705550558    -0.2119068639    -0.0560200663
    6      C       3.3916727177     0.7934154393     0.0273276878
    7      C      -3.4837270577     0.7142027112    -0.0065496799
    8      C      -0.0411367794    -0.3154994279     0.0061637252
    9      H       2.3257511620    -0.8501125992     0.9510913207
   10      H       2.3600125827    -0.9013615460    -0.8159473052
   11      H      -2.4016859476    -0.9381964239    -0.8716770822
   12      H       4.3785289277     0.3281026100     0.0910471030
   13      H       3.3564594949     1.4450092687    -0.8482709734
   14      H      -4.4480251926     0.1992511527     0.0072454054
   15      H      -3.4335105698     1.4452778026     0.8037816403
 ----------------------------------------------------------------
 Molecular Point Group                 C1    NOp =  1
 Largest Abelian Subgroup              C1    NOp =  1
 Nuclear Repulsion Energy =   359.8174504207 hartrees
 There are       31 alpha and       30 beta electrons
 Applying Cartesian multipole field
    Component          Value
    ---------          -----
     (2,0,0)        1.00000E-11
     (0,2,0)        2.00000E-11
     (0,0,2)       -3.00000E-11
 Nucleus-field energy     =     0.0000000131 hartrees
 Requested basis set is 6-311++G(d)
 There are 76 shells and 204 basis functions
 A cutoff of  1.0D-12 yielded   2588 shell pairs
 There are     19241 function pairs (     20740 Cartesian)
 Smallest overlap matrix eigenvalue = 4.54E-05
 Guess MOs from SCF MO coefficient file
 Reading MOs from coefficient file
 Reading MOs from coefficient file

 -----------------------------------------------------------------------
  General SCF calculation program by
  Eric Jon Sundstrom, Paul Horn, Yuezhi Mao, Dmitri Zuev, Alec White,
  David Stuck, Shaama M.S., Shane Yost, Joonho Lee, David Small,
  Daniel Levine, Susi Lehtola, Hugh Burton, Evgeny Epifanovsky
 -----------------------------------------------------------------------
 Exchange:     0.2220 Hartree-Fock + 1.0000 wB97X-D + LR-HF
 Correlation:  1.0000 wB97X-D
 Using SG-2 standard quadrature grid
 Dispersion:   Grimme D
 using 32 threads for integral computing
 -------------------------------------------------------
 OpenMP Integral computing Module                
 Release: version 1.0, May 2013, Q-Chem Inc. Pittsburgh 
 -------------------------------------------------------
 using 32 threads for integral computing
 -------------------------------------------------------
 OpenMP Integral computing Module                
 Release: version 1.0, May 2013, Q-Chem Inc. Pittsburgh 
 -------------------------------------------------------
 -------------------------------------------------------
 OpenMP BLAS3 based DFT computing Module                
 Release: version 1.0, May 2013, Q-Chem Inc. Pittsburgh 
 -------------------------------------------------------
 A unrestricted SCF calculation will be
 performed using Roothaan-Hall, GDM
 SCF converges when RMS gradient is below 1.0e-08
 ---------------------------------------
  Cycle       Energy         DIIS error
 ---------------------------------------
    1    -420.2347671287      4.25e-04  Roothaan Step
 ---------------------------------------
  Cycle       Energy        RMS Gradient
 ---------------------------------------
    1    -420.2405742419      7.26e-03   Normal BFGS step
    2    -420.2410937608      6.76e-03   Normal BFGS step
    3    -420.2412963735      5.62e-03   Normal BFGS step
    4    -420.2413761883      4.92e-03   Normal BFGS step
    5    -420.2415191356      2.98e-03   Normal BFGS step
    6    -420.2416903982      2.51e-03   Normal BFGS step
    7    -420.2417318459      1.75e-03   Normal BFGS step
    8    -420.2417441240      4.95e-04   Normal BFGS step
    9    -420.2417466656      2.00e-04   Normal BFGS step
   10    -420.2417470807      1.39e-04   Normal BFGS step
   11    -420.2417471324      7.39e-05   Normal BFGS step
   12    -420.2417471601      1.48e-05   Normal BFGS step
   13    -420.2417471616      7.28e-06   Normal BFGS step
   14    -420.2417471623      2.50e-06   Normal BFGS step
   15    -420.2417471624      9.55e-07   Normal BFGS step
   16    -420.2417471624      1.98e-07   Normal BFGS step
   17    -420.2417471624      1.18e-07   Normal BFGS step
   18    -420.2417471624      4.82e-08   Normal BFGS step
   19    -420.2417471624      1.43e-08   Normal BFGS step
   20    -420.2417471624      8.44e-09  Convergence criterion met
 ---------------------------------------
 SCF time:   CPU 693.64s  wall 27.00s 
<S^2> =          0.753491108
 SCF   energy in the final basis set =     -420.2417471624
 Total energy in the final basis set =     -420.2417471624
 
 --------------------------------------------------------------
 
                    Orbital Energies (a.u.)
 --------------------------------------------------------------
 
 Alpha MOs
 -- Occupied --
-19.321 -19.309 -19.245 -10.472 -10.382 -10.361 -10.317 -10.314
 -1.272  -1.184  -1.141  -0.906  -0.868  -0.771  -0.714  -0.672
 -0.659  -0.617  -0.593  -0.557  -0.536  -0.530  -0.501  -0.499
 -0.474  -0.466  -0.442  -0.411  -0.392  -0.349  -0.336
 -- Virtual --
 -0.004   0.042   0.051   0.064   0.065   0.073   0.079   0.091
  0.104   0.112   0.115   0.128   0.133   0.144   0.146   0.153
  0.157   0.168   0.174   0.181   0.188   0.188   0.198   0.201
  0.208   0.219   0.227   0.232   0.239   0.245   0.255   0.266
  0.269   0.272   0.285   0.297   0.308   0.326   0.330   0.335
  0.347   0.351   0.366   0.368   0.380   0.382   0.400   0.417
  0.433   0.455   0.462   0.482   0.486   0.536   0.557   0.566
  0.570   0.593   0.608   0.624   0.633   0.652   0.656   0.675
  0.685   0.701   0.713   0.721   0.731   0.742   0.756   0.763
  0.795   0.803   0.820   0.834   0.888   0.917   0.954   0.975
  1.047   1.107   1.124   1.146   1.170   1.190   1.217   1.228
  1.264   1.268   1.297   1.321   1.371   1.381   1.416   1.453
  1.485   1.525   1.556   1.602   1.644   1.666   1.696   1.699
  1.721   1.751   1.783   1.805   1.832   1.832   1.849   1.912
  1.927   1.937   1.983   2.026   2.074   2.160   2.213   2.516
  2.525   2.550   2.568   2.579   2.607   2.640   2.649   2.810
  2.855   2.887   2.903   2.926   2.941   2.988   3.007   3.028
  3.083   3.116   3.181   3.225   3.232   3.236   3.282   3.303
  3.316   3.344   3.472   3.492   3.666   3.713   3.772   3.912
  4.048   4.071   4.210   4.220   5.075   5.110   5.142   5.298
  5.324   5.466   5.654   5.947   5.975  23.547  23.631  23.792
 23.890  23.944  49.986  50.052  50.145
 
 Beta MOs
 -- Occupied --
-19.321 -19.309 -19.245 -10.472 -10.382 -10.361 -10.314 -10.305
 -1.272  -1.183  -1.141  -0.899  -0.859  -0.760  -0.701  -0.669
 -0.659  -0.614  -0.592  -0.550  -0.534  -0.526  -0.497  -0.491
 -0.470  -0.460  -0.440  -0.408  -0.391  -0.348
 -- Virtual --
 -0.024  -0.004   0.044   0.051   0.065   0.067   0.075   0.083
  0.091   0.105   0.112   0.116   0.129   0.146   0.147   0.154
  0.157   0.160   0.171   0.176   0.182   0.189   0.191   0.199
  0.206   0.210   0.221   0.230   0.234   0.242   0.248   0.261
  0.269   0.272   0.277   0.288   0.299   0.315   0.329   0.331
  0.336   0.348   0.352   0.368   0.371   0.380   0.385   0.401
  0.418   0.435   0.457   0.462   0.484   0.488   0.543   0.557
  0.568   0.574   0.598   0.624   0.630   0.637   0.655   0.667
  0.682   0.691   0.704   0.714   0.729   0.732   0.746   0.757
  0.767   0.799   0.807   0.825   0.835   0.889   0.925   0.956
  0.981   1.047   1.111   1.127   1.147   1.174   1.193   1.219
  1.228   1.266   1.272   1.300   1.323   1.375   1.383   1.427
  1.462   1.489   1.538   1.570   1.614   1.645   1.678   1.701
  1.716   1.727   1.753   1.797   1.808   1.834   1.838   1.876
  1.913   1.930   1.941   1.987   2.028   2.074   2.171   2.215
  2.517   2.530   2.558   2.568   2.589   2.607   2.643   2.651
  2.811   2.884   2.902   2.903   2.927   2.964   2.994   3.008
  3.029   3.086   3.119   3.186   3.226   3.233   3.237   3.284
  3.312   3.320   3.347   3.473   3.492   3.667   3.715   3.773
  3.918   4.051   4.072   4.210   4.221   5.075   5.110   5.142
  5.298   5.324   5.467   5.654   5.947   5.976  23.552  23.641
 23.800  23.890  23.944  49.986  50.052  50.145
 --------------------------------------------------------------
 
          Ground-State Mulliken Net Atomic Charges

     Atom                 Charge (a.u.)    Spin (a.u.)
  --------------------------------------------------------
      1 O                    -0.030935      -0.003944
      2 O                    -0.025810      -0.001800
      3 O                    -0.266201       0.001374
      4 C                    -0.466470      -0.037996
      5 C                    -0.001384       0.000536
      6 C                    -0.405473       1.052930
      7 C                    -0.485961      -0.000301
      8 C                    -0.049309      -0.000840
      9 H                     0.289454       0.011335
     10 H                     0.296237       0.048913
     11 H                     0.262632      -0.000185
     12 H                     0.219176      -0.036236
     13 H                     0.212276      -0.033830
     14 H                     0.230422       0.000023
     15 H                     0.221347       0.000022
  --------------------------------------------------------
  Sum of atomic charges =    -0.000000
  Sum of spin   charges =     1.000000

 -----------------------------------------------------------------
                    Cartesian Multipole Moments
 -----------------------------------------------------------------
    Charge (ESU x 10^10)
                -0.0000
    Dipole Moment (Debye)
         X       0.6427      Y       0.0153      Z      -0.5628
       Tot       0.8544
    Quadrupole Moments (Debye-Ang)
        XX     -34.6926     XY      -1.7610     YY     -53.7194
        XZ      -2.0567     YZ       1.0458     ZZ     -46.5899
    Octopole Moments (Debye-Ang^2)
       XXX       0.9899    XXY      -8.6287    XYY      -0.7366
       YYY       3.0668    XXZ      -2.6290    XYZ      -9.2406
       YYZ      -0.8000    XZZ       2.9104    YZZ      -2.7137
       ZZZ       0.3998
    Hexadecapole Moments (Debye-Ang^3)
      XXXX   -1369.5349   XXXY     -18.7902   XXYY    -299.6242
      XYYY      -6.4449   YYYY    -230.8432   XXXZ     -32.0466
      XXYZ       6.5075   XYYZ      -9.0818   YYYZ       0.6891
      XXZZ    -279.3806   XYZZ      -1.9294   YYZZ     -43.9555
      XZZZ      -2.9632   YZZZ       0.5420   ZZZZ     -62.9752
 -----------------------------------------------------------------
 Calculating analytic gradient of the SCF energy
 Gradient of SCF Energy
            1           2           3           4           5           6
    1   0.0032696   0.0159431   0.0004437  -0.0018976   0.0447291  -0.0010719
    2   0.0008158   0.0159441  -0.0026948  -0.0133910  -0.0997906   0.0243383
    3   0.0012275  -0.0164467   0.0000780  -0.0120630   0.0588067   0.0275399
            7           8           9          10          11          12
    1  -0.0505397  -0.0080386   0.0000693  -0.0015005  -0.0020763  -0.0001237
    2   0.0831305   0.0066201   0.0008552   0.0010479   0.0152878  -0.0041590
    3  -0.0548539  -0.0002767   0.0003964   0.0018899  -0.0162196  -0.0107482
           13          14          15
    1   0.0040252   0.0006523  -0.0038842
    2  -0.0093664  -0.0048058  -0.0138321
    3  -0.0081242   0.0144445   0.0143494
 Max gradient component =       9.979E-02
 RMS gradient           =       2.664E-02
 Gradient time:  CPU 67.76 s  wall 3.43 s
 Geometry Optimization Parameters
   NAtoms,    NIC,     NZ,  NCons,   NDum,   NFix, NCnnct, MaxDiis
       15      83       0       0       0       0       0       0

 Cartesian Hessian Update
 Hessian Updated using BFGS Update


** GEOMETRY OPTIMIZATION IN DELOCALIZED INTERNAL COORDINATES **
   Searching for a Minimum

   Optimization Cycle:   2

                       Coordinates (Angstroms)
     ATOM                X               Y               Z
      1  O         1.0374201163    0.4595127399    0.0038426608
      2  O        -1.1176601708    0.4679495633   -0.0419088037
      3  O        -0.0462488857   -1.5184091868    0.0378195987
      4  C         2.2948651316   -0.2340271914    0.0489673848
      5  C        -2.3705550558   -0.2119068639   -0.0560200663
      6  C         3.3916727177    0.7934154393    0.0273276878
      7  C        -3.4837270577    0.7142027112   -0.0065496799
      8  C        -0.0411367794   -0.3154994279    0.0061637252
      9  H         2.3257511620   -0.8501125992    0.9510913207
     10  H         2.3600125827   -0.9013615460   -0.8159473052
     11  H        -2.4016859476   -0.9381964239   -0.8716770822
     12  H         4.3785289277    0.3281026100    0.0910471030
     13  H         3.3564594949    1.4450092687   -0.8482709734
     14  H        -4.4480251926    0.1992511527    0.0072454054
     15  H        -3.4335105698    1.4452778026    0.8037816403
   Point Group: c1    Number of degrees of freedom:    39


   Energy is   -420.241747162

 Hessian Updated using BFGS Update

 35 Hessian modes will be used to form the next step
  Hessian Eigenvalues:
     0.007834    0.007940    0.010838    0.010841    0.024950    0.025011
     0.025014    0.042449    0.047681    0.051447    0.065814    0.072047
     0.113318    0.126856    0.138140    0.158531    0.163944    0.189776
     0.220160    0.249852    0.250278    0.261474    0.313359    0.344718
     0.344943    0.345161    0.345186    0.345574    0.345933    0.349558
     0.398670    0.401021    0.596468    0.596960    1.028513

 Minimum Search - Taking Simple RFO Step
 Searching for Lamda that Minimizes Along All modes
 Value Taken    Lamda =  -0.06734553
 Calculated Step too Large.  Step scaled by  0.438214
 Step Taken.  Stepsize is  0.300000

                             Maximum     Tolerance    Cnvgd?
         Gradient           0.070443      0.000300      NO
         Displacement       0.187973      0.001200      NO
         Energy change     -0.030257      0.000001      NO


 New Cartesian Coordinates Obtained by Inverse Iteration

 Displacement from previous Coordinates is:  0.290442
 ----------------------------------------------------------------
             Standard Nuclear Orientation (Angstroms)
    I     Atom           X                Y                Z
 ----------------------------------------------------------------
    1      O       1.0269490170     0.4656343895    -0.0143561412
    2      O      -1.1256736882     0.4912891817    -0.0727317742
    3      O      -0.0684613180    -1.5053522069     0.0264598514
    4      C       2.2801169002    -0.2339448389     0.0466267672
    5      C      -2.3717651005    -0.1615828136    -0.0869424408
    6      C       3.3789618253     0.7762640207     0.0235720648
    7      C      -3.4428364790     0.6654311998     0.0292670626
    8      C      -0.0535507099    -0.3040997291    -0.0164350531
    9      H       2.3011197990    -0.8458334969     0.9518136066
   10      H       2.3480226947    -0.9082750652    -0.8151709432
   11      H      -2.4017102238    -0.9427877465    -0.8450028629
   12      H       4.3676495863     0.3255552350     0.1229802525
   13      H       3.3564368449     1.4518813013    -0.8320964013
   14      H      -4.4057315758     0.1555972040     0.0390861588
   15      H      -3.3873670983     1.4534314137     0.7798424687
 ----------------------------------------------------------------
 Molecular Point Group                 C1    NOp =  1
 Largest Abelian Subgroup              C1    NOp =  1
 Nuclear Repulsion Energy =   362.1208148308 hartrees
 There are       31 alpha and       30 beta electrons
 Applying Cartesian multipole field
    Component          Value
    ---------          -----
     (2,0,0)        1.00000E-11
     (0,2,0)        2.00000E-11
     (0,0,2)       -3.00000E-11
 Nucleus-field energy     =     0.0000000129 hartrees
 Requested basis set is 6-311++G(d)
 There are 76 shells and 204 basis functions
 A cutoff of  1.0D-12 yielded   2590 shell pairs
 There are     19249 function pairs (     20748 Cartesian)
 Smallest overlap matrix eigenvalue = 3.51E-05
 Guess MOs from SCF MO coefficient file
 Reading MOs from coefficient file
 Reading MOs from coefficient file

 -----------------------------------------------------------------------
  General SCF calculation program by
  Eric Jon Sundstrom, Paul Horn, Yuezhi Mao, Dmitri Zuev, Alec White,
  David Stuck, Shaama M.S., Shane Yost, Joonho Lee, David Small,
  Daniel Levine, Susi Lehtola, Hugh Burton, Evgeny Epifanovsky
 -----------------------------------------------------------------------
 Exchange:     0.2220 Hartree-Fock + 1.0000 wB97X-D + LR-HF
 Correlation:  1.0000 wB97X-D
 Using SG-2 standard quadrature grid
 Dispersion:   Grimme D
 using 32 threads for integral computing
 -------------------------------------------------------
 OpenMP Integral computing Module                
 Release: version 1.0, May 2013, Q-Chem Inc. Pittsburgh 
 -------------------------------------------------------
 using 32 threads for integral computing
 -------------------------------------------------------
 OpenMP Integral computing Module                
 Release: version 1.0, May 2013, Q-Chem Inc. Pittsburgh 
 -------------------------------------------------------
 -------------------------------------------------------
 OpenMP BLAS3 based DFT computing Module                
 Release: version 1.0, May 2013, Q-Chem Inc. Pittsburgh 
 -------------------------------------------------------
 A unrestricted SCF calculation will be
 performed using Roothaan-Hall, GDM
 SCF converges when RMS gradient is below 1.0e-08
 ---------------------------------------
  Cycle       Energy         DIIS error
 ---------------------------------------
    1    -420.2590272073      4.72e-04  Roothaan Step
 ---------------------------------------
  Cycle       Energy        RMS Gradient
 ---------------------------------------
    1    -420.2646555483      3.78e-03   Normal BFGS step
    2    -420.2650818133      4.02e-03   Normal BFGS step
    3    -420.2653336471      1.16e-03   Normal BFGS step
    4    -420.2653333124      1.41e-03   Normal BFGS step
    5    -420.2653485460      1.54e-04   Normal BFGS step
    6    -420.2653486973      1.56e-04   Normal BFGS step
    7    -420.2653488829      3.43e-05   Normal BFGS step
    8    -420.2653488917      1.70e-05   Normal BFGS step
    9    -420.2653488975      9.23e-06   Normal BFGS step
   10    -420.2653488977      8.50e-06   Normal BFGS step
   11    -420.2653488979      3.13e-06   Normal BFGS step
   12    -420.2653488980      2.11e-06   Normal BFGS step
   13    -420.2653488980      1.56e-06   Normal BFGS step
   14    -420.2653488980      9.92e-07   Normal BFGS step
   15    -420.2653488980      2.90e-07   Normal BFGS step
   16    -420.2653488980      9.80e-08   Normal BFGS step
   17    -420.2653488980      2.60e-08   Normal BFGS step
   18    -420.2653488980      1.20e-08   Normal BFGS step
   19    -420.2653488980      4.81e-09  Convergence criterion met
 ---------------------------------------
 SCF time:   CPU 650.02s  wall 24.00s 
<S^2> =          0.753550120
 SCF   energy in the final basis set =     -420.2653488980
 Total energy in the final basis set =     -420.2653488980
 
 --------------------------------------------------------------
 
                    Orbital Energies (a.u.)
 --------------------------------------------------------------
 
 Alpha MOs
 -- Occupied --
-19.319 -19.309 -19.245 -10.472 -10.367 -10.361 -10.316 -10.299
 -1.272  -1.185  -1.142  -0.912  -0.877  -0.773  -0.712  -0.670
 -0.663  -0.617  -0.594  -0.559  -0.541  -0.536  -0.507  -0.500
 -0.474  -0.466  -0.444  -0.412  -0.392  -0.353  -0.332
 -- Virtual --
  0.023   0.042   0.051   0.064   0.065   0.073   0.079   0.091
  0.105   0.112   0.116   0.128   0.134   0.144   0.148   0.157
  0.158   0.169   0.177   0.182   0.188   0.188   0.198   0.202
  0.208   0.221   0.226   0.232   0.239   0.247   0.255   0.267
  0.272   0.277   0.285   0.304   0.310   0.328   0.332   0.340
  0.345   0.355   0.369   0.374   0.384   0.391   0.406   0.421
  0.434   0.457   0.466   0.483   0.492   0.538   0.564   0.568
  0.570   0.595   0.607   0.623   0.636   0.650   0.654   0.678
  0.682   0.703   0.714   0.726   0.736   0.748   0.763   0.764
  0.799   0.814   0.828   0.842   0.900   0.924   0.959   0.975
  1.045   1.119   1.126   1.146   1.174   1.192   1.219   1.225
  1.266   1.275   1.302   1.323   1.373   1.383   1.425   1.463
  1.484   1.531   1.551   1.587   1.644   1.666   1.702   1.704
  1.733   1.761   1.793   1.820   1.840   1.854   1.882   1.928
  1.935   1.976   1.994   2.053   2.097   2.174   2.271   2.520
  2.526   2.546   2.571   2.583   2.623   2.646   2.665   2.813
  2.854   2.891   2.912   2.946   2.956   3.000   3.020   3.039
  3.105   3.136   3.199   3.232   3.238   3.281   3.292   3.312
  3.334   3.377   3.486   3.496   3.663   3.711   3.766   3.909
  4.051   4.092   4.210   4.227   5.077   5.111   5.142   5.297
  5.327   5.480   5.677   5.949   5.984  23.541  23.627  23.811
 23.945  24.193  49.989  50.053  50.146
 
 Beta MOs
 -- Occupied --
-19.319 -19.309 -19.245 -10.472 -10.367 -10.361 -10.303 -10.299
 -1.272  -1.185  -1.142  -0.907  -0.867  -0.761  -0.699  -0.668
 -0.662  -0.614  -0.593  -0.552  -0.539  -0.532  -0.502  -0.492
 -0.470  -0.461  -0.443  -0.409  -0.392  -0.352
 -- Virtual --
 -0.021   0.023   0.045   0.052   0.065   0.067   0.074   0.083
  0.091   0.106   0.112   0.117   0.129   0.146   0.149   0.157
  0.158   0.161   0.171   0.179   0.183   0.188   0.191   0.199
  0.206   0.211   0.224   0.229   0.234   0.242   0.252   0.261
  0.272   0.275   0.280   0.288   0.306   0.317   0.332   0.333
  0.341   0.346   0.356   0.370   0.376   0.387   0.392   0.406
  0.422   0.437   0.458   0.467   0.487   0.493   0.545   0.565
  0.569   0.573   0.600   0.622   0.632   0.638   0.656   0.663
  0.683   0.689   0.707   0.717   0.731   0.737   0.753   0.764
  0.769   0.807   0.814   0.832   0.842   0.903   0.933   0.959
  0.981   1.046   1.123   1.129   1.147   1.178   1.195   1.220
  1.226   1.266   1.282   1.304   1.324   1.378   1.386   1.438
  1.469   1.488   1.540   1.568   1.600   1.645   1.680   1.708
  1.719   1.739   1.761   1.808   1.825   1.844   1.876   1.888
  1.931   1.940   1.977   1.998   2.055   2.097   2.186   2.272
  2.523   2.528   2.553   2.571   2.593   2.625   2.650   2.666
  2.815   2.886   2.906   2.915   2.955   2.968   3.003   3.021
  3.040   3.111   3.137   3.204   3.234   3.239   3.283   3.293
  3.322   3.339   3.378   3.487   3.496   3.663   3.713   3.767
  3.915   4.054   4.092   4.211   4.228   5.077   5.111   5.142
  5.297   5.327   5.481   5.677   5.949   5.984  23.545  23.637
 23.819  23.945  24.193  49.989  50.053  50.146
 --------------------------------------------------------------
 
          Ground-State Mulliken Net Atomic Charges

     Atom                 Charge (a.u.)    Spin (a.u.)
  --------------------------------------------------------
      1 O                    -0.034327      -0.003920
      2 O                    -0.041433      -0.001874
      3 O                    -0.264275       0.001381
      4 C                    -0.466012      -0.043200
      5 C                     0.003861       0.000265
      6 C                    -0.401495       1.058054
      7 C                    -0.463535       0.000013
      8 C                    -0.052594      -0.000892
      9 H                     0.289080       0.012269
     10 H                     0.295060       0.051103
     11 H                     0.260505      -0.000208
     12 H                     0.220632      -0.037609
     13 H                     0.211590      -0.035415
     14 H                     0.226605       0.000019
     15 H                     0.216339       0.000012
  --------------------------------------------------------
  Sum of atomic charges =    -0.000000
  Sum of spin   charges =     1.000000

 -----------------------------------------------------------------
                    Cartesian Multipole Moments
 -----------------------------------------------------------------
    Charge (ESU x 10^10)
                -0.0000
    Dipole Moment (Debye)
         X       0.6912      Y       0.0069      Z      -0.5099
       Tot       0.8589
    Quadrupole Moments (Debye-Ang)
        XX     -34.6831     XY      -1.6502     YY     -53.3656
        XZ      -1.9828     YZ       0.9760     ZZ     -46.4908
    Octopole Moments (Debye-Ang^2)
       XXX       1.6722    XXY      -8.9761    XYY      -0.8961
       YYY       2.6190    XXZ      -1.6096    XYZ      -8.9879
       YYZ      -0.3663    XZZ       2.6612    YZZ      -2.8389
       ZZZ       1.5194
    Hexadecapole Moments (Debye-Ang^3)
      XXXX   -1346.9583   XXXY     -14.7923   XXYY    -292.9001
      XYYY      -7.7608   YYYY    -224.7039   XXXZ     -29.8504
      XXYZ       5.2991   XYYZ      -8.9261   YYYZ       0.0294
      XXZZ    -275.1909   XYZZ      -2.4420   YYZZ     -43.0819
      XZZZ      -2.0520   YZZZ      -0.1470   ZZZZ     -62.4402
 -----------------------------------------------------------------
 Calculating analytic gradient of the SCF energy
 Gradient of SCF Energy
            1           2           3           4           5           6
    1   0.0017787   0.0050076   0.0003176  -0.0001395   0.0092240  -0.0040192
    2   0.0006690   0.0117122  -0.0017300  -0.0092589  -0.0521921   0.0180194
    3   0.0014054  -0.0148511   0.0006404  -0.0091011   0.0572504   0.0233266
            7           8           9          10          11          12
    1  -0.0081594  -0.0048102   0.0001544  -0.0009225  -0.0017327   0.0001064
    2   0.0411933   0.0032870   0.0008406   0.0009264   0.0139236  -0.0031244
    3  -0.0526983  -0.0017091   0.0002735   0.0009127  -0.0152367  -0.0093703
           13          14          15
    1   0.0041348   0.0014837  -0.0024238
    2  -0.0079377  -0.0047334  -0.0115950
    3  -0.0068895   0.0129104   0.0131366
 Max gradient component =       5.725E-02
 RMS gradient           =       1.717E-02
 Gradient time:  CPU 66.67 s  wall 3.40 s
 Geometry Optimization Parameters
   NAtoms,    NIC,     NZ,  NCons,   NDum,   NFix, NCnnct, MaxDiis
       15      83       0       0       0       0       0       0

 Cartesian Hessian Update
 Hessian Updated using BFGS Update


** GEOMETRY OPTIMIZATION IN DELOCALIZED INTERNAL COORDINATES **
   Searching for a Minimum

   Optimization Cycle:   3

                       Coordinates (Angstroms)
     ATOM                X               Y               Z
      1  O         1.0269490170    0.4656343895   -0.0143561412
      2  O        -1.1256736882    0.4912891817   -0.0727317742
      3  O        -0.0684613180   -1.5053522069    0.0264598514
      4  C         2.2801169002   -0.2339448389    0.0466267672
      5  C        -2.3717651005   -0.1615828136   -0.0869424408
      6  C         3.3789618253    0.7762640207    0.0235720648
      7  C        -3.4428364790    0.6654311998    0.0292670626
      8  C        -0.0535507099   -0.3040997291   -0.0164350531
      9  H         2.3011197990   -0.8458334969    0.9518136066
     10  H         2.3480226947   -0.9082750652   -0.8151709432
     11  H        -2.4017102238   -0.9427877465   -0.8450028629
     12  H         4.3676495863    0.3255552350    0.1229802525
     13  H         3.3564368449    1.4518813013   -0.8320964013
     14  H        -4.4057315758    0.1555972040    0.0390861588
     15  H        -3.3873670983    1.4534314137    0.7798424687
   Point Group: c1    Number of degrees of freedom:    39


   Energy is   -420.265348898

 Hessian Updated using BFGS Update

 37 Hessian modes will be used to form the next step
  Hessian Eigenvalues:
     0.007835    0.007979    0.010839    0.010846    0.025010    0.025011
     0.025154    0.042393    0.044273    0.051519    0.065791    0.072040
     0.113322    0.127802    0.138125    0.158791    0.160007    0.165682
     0.220153    0.234140    0.249993    0.250039    0.251969    0.312635
     0.344717    0.344906    0.345096    0.345185    0.345566    0.345932
     0.349370    0.396597    0.400856    0.416629    0.596156    0.596992
     1.028436

 Minimum Search - Taking Simple RFO Step
 Searching for Lamda that Minimizes Along All modes
 Value Taken    Lamda =  -0.03506296
 Calculated Step too Large.  Step scaled by  0.467172
 Step Taken.  Stepsize is  0.300000

                             Maximum     Tolerance    Cnvgd?
         Gradient           0.035173      0.000300      NO
         Displacement       0.141523      0.001200      NO
         Energy change     -0.023602      0.000001      NO


 New Cartesian Coordinates Obtained by Inverse Iteration

 Displacement from previous Coordinates is:  0.223463
 ----------------------------------------------------------------
             Standard Nuclear Orientation (Angstroms)
    I     Atom           X                Y                Z
 ----------------------------------------------------------------
    1      O       1.0275587394     0.4639848554    -0.0246755131
    2      O      -1.1241080229     0.4986936221    -0.0988927483
    3      O      -0.0745720712    -1.5032022339     0.0079384016
    4      C       2.2790860050    -0.2380556118     0.0420027541
    5      C      -2.3711174887    -0.1331796753    -0.1267894770
    6      C       3.3789363018     0.7627807346     0.0187997895
    7      C      -3.4428156541     0.6393417347     0.0709588412
    8      C      -0.0542079673    -0.3028037550    -0.0305662355
    9      H       2.2963699576    -0.8513514711     0.9463990007
   10      H       2.3463755407    -0.9147816460    -0.8195345944
   11      H      -2.3982387658    -0.9724151968    -0.8166347820
   12      H       4.3707033975     0.3309155794     0.1512137698
   13      H       3.3566536025     1.4716824108    -0.8079802302
   14      H      -4.4099281059     0.1437307275     0.0765918293
   15      H      -3.3785349949     1.4878679741     0.7480818105
 ----------------------------------------------------------------
 Molecular Point Group                 C1    NOp =  1
 Largest Abelian Subgroup              C1    NOp =  1
 Nuclear Repulsion Energy =   362.5261767742 hartrees
 There are       31 alpha and       30 beta electrons
 Applying Cartesian multipole field
    Component          Value
    ---------          -----
     (2,0,0)        1.00000E-11
     (0,2,0)        2.00000E-11
     (0,0,2)       -3.00000E-11
 Nucleus-field energy     =     0.0000000129 hartrees
 Requested basis set is 6-311++G(d)
 There are 76 shells and 204 basis functions
 A cutoff of  1.0D-12 yielded   2591 shell pairs
 There are     19269 function pairs (     20772 Cartesian)
 Smallest overlap matrix eigenvalue = 2.94E-05
 Guess MOs from SCF MO coefficient file
 Reading MOs from coefficient file
 Reading MOs from coefficient file

 -----------------------------------------------------------------------
  General SCF calculation program by
  Eric Jon Sundstrom, Paul Horn, Yuezhi Mao, Dmitri Zuev, Alec White,
  David Stuck, Shaama M.S., Shane Yost, Joonho Lee, David Small,
  Daniel Levine, Susi Lehtola, Hugh Burton, Evgeny Epifanovsky
 -----------------------------------------------------------------------
 Exchange:     0.2220 Hartree-Fock + 1.0000 wB97X-D + LR-HF
 Correlation:  1.0000 wB97X-D
 Using SG-2 standard quadrature grid
 Dispersion:   Grimme D
 using 32 threads for integral computing
 -------------------------------------------------------
 OpenMP Integral computing Module                
 Release: version 1.0, May 2013, Q-Chem Inc. Pittsburgh 
 -------------------------------------------------------
 using 32 threads for integral computing
 -------------------------------------------------------
 OpenMP Integral computing Module                
 Release: version 1.0, May 2013, Q-Chem Inc. Pittsburgh 
 -------------------------------------------------------
 -------------------------------------------------------
 OpenMP BLAS3 based DFT computing Module                
 Release: version 1.0, May 2013, Q-Chem Inc. Pittsburgh 
 -------------------------------------------------------
 A unrestricted SCF calculation will be
 performed using Roothaan-Hall, GDM
 SCF converges when RMS gradient is below 1.0e-08
 ---------------------------------------
  Cycle       Energy         DIIS error
 ---------------------------------------
    1    -420.2750608349      3.60e-04  Roothaan Step
 ---------------------------------------
  Cycle       Energy        RMS Gradient
 ---------------------------------------
    1    -420.2789484584      3.34e-03   Normal BFGS step
    2    -420.2792222082      2.17e-03   Normal BFGS step
    3    -420.2793036406      5.06e-04   Normal BFGS step
    4    -420.2793050529      6.38e-04   Normal BFGS step
    5    -420.2793082339      1.26e-04   Normal BFGS step
    6    -420.2793083339      1.13e-04   Normal BFGS step
    7    -420.2793084136      3.16e-05   Normal BFGS step
    8    -420.2793084184      1.25e-05   Normal BFGS step
    9    -420.2793084228      6.21e-06   Normal BFGS step
   10    -420.2793084230      2.38e-06   Normal BFGS step
   11    -420.2793084230      5.74e-07   Normal BFGS step
   12    -420.2793084231      2.05e-07   Normal BFGS step
   13    -420.2793084231      1.62e-07   Normal BFGS step
   14    -420.2793084231      1.43e-07   Normal BFGS step
   15    -420.2793084231      8.19e-08   Normal BFGS step
   16    -420.2793084231      5.07e-08   Normal BFGS step
   17    -420.2793084231      2.38e-08   Normal BFGS step
   18    -420.2793084231      9.62e-09  Convergence criterion met
 ---------------------------------------
 SCF time:   CPU 641.63s  wall 24.00s 
<S^2> =          0.753636549
 SCF   energy in the final basis set =     -420.2793084231
 Total energy in the final basis set =     -420.2793084231
 
 --------------------------------------------------------------
 
                    Orbital Energies (a.u.)
 --------------------------------------------------------------
 
 Alpha MOs
 -- Occupied --
-19.318 -19.310 -19.246 -10.473 -10.362 -10.361 -10.314 -10.293
 -1.273  -1.186  -1.143  -0.913  -0.878  -0.774  -0.713  -0.670
 -0.664  -0.617  -0.594  -0.561  -0.543  -0.538  -0.511  -0.502
 -0.474  -0.468  -0.445  -0.412  -0.393  -0.351  -0.328
 -- Virtual --
  0.039   0.042   0.052   0.064   0.065   0.072   0.079   0.090
  0.106   0.112   0.115   0.128   0.135   0.144   0.149   0.158
  0.162   0.169   0.179   0.184   0.187   0.189   0.196   0.202
  0.208   0.223   0.224   0.230   0.239   0.248   0.255   0.264
  0.277   0.282   0.287   0.305   0.312   0.328   0.334   0.341
  0.343   0.360   0.369   0.374   0.385   0.392   0.409   0.422
  0.434   0.455   0.467   0.482   0.493   0.540   0.560   0.565
  0.574   0.597   0.607   0.614   0.638   0.650   0.666   0.677
  0.679   0.703   0.716   0.731   0.743   0.752   0.765   0.771
  0.799   0.818   0.833   0.848   0.907   0.924   0.961   0.972
  1.044   1.124   1.129   1.149   1.176   1.194   1.218   1.224
  1.264   1.279   1.297   1.321   1.374   1.382   1.431   1.462
  1.473   1.537   1.551   1.578   1.640   1.667   1.703   1.706
  1.732   1.745   1.796   1.824   1.852   1.859   1.889   1.928
  1.938   1.992   2.005   2.052   2.114   2.178   2.294   2.517
  2.520   2.541   2.561   2.586   2.628   2.648   2.707   2.804
  2.851   2.892   2.915   2.949   2.961   3.001   3.022   3.050
  3.116   3.146   3.208   3.233   3.242   3.281   3.304   3.320
  3.343   3.395   3.491   3.499   3.665   3.709   3.757   3.903
  4.052   4.102   4.204   4.232   5.078   5.112   5.141   5.294
  5.326   5.484   5.687   5.949   5.987  23.538  23.624  23.822
 23.946  24.285  49.990  50.052  50.146
 
 Beta MOs
 -- Occupied --
-19.318 -19.309 -19.246 -10.473 -10.362 -10.361 -10.302 -10.293
 -1.272  -1.186  -1.143  -0.908  -0.868  -0.762  -0.699  -0.668
 -0.664  -0.615  -0.593  -0.555  -0.541  -0.535  -0.505  -0.494
 -0.471  -0.463  -0.444  -0.409  -0.393  -0.351
 -- Virtual --
 -0.018   0.039   0.045   0.053   0.065   0.067   0.073   0.083
  0.091   0.106   0.113   0.116   0.129   0.146   0.150   0.159
  0.161   0.163   0.171   0.180   0.185   0.188   0.192   0.198
  0.205   0.212   0.225   0.227   0.232   0.241   0.253   0.261
  0.270   0.279   0.285   0.289   0.307   0.318   0.331   0.335
  0.342   0.344   0.361   0.371   0.375   0.388   0.393   0.410
  0.423   0.437   0.456   0.468   0.485   0.494   0.547   0.561
  0.566   0.577   0.603   0.613   0.630   0.648   0.656   0.668
  0.681   0.688   0.707   0.722   0.733   0.744   0.757   0.769
  0.772   0.807   0.819   0.836   0.849   0.910   0.932   0.962
  0.978   1.044   1.129   1.131   1.151   1.181   1.195   1.219
  1.225   1.265   1.286   1.300   1.322   1.379   1.386   1.444
  1.464   1.478   1.546   1.570   1.590   1.642   1.680   1.708
  1.720   1.740   1.746   1.811   1.831   1.853   1.882   1.892
  1.932   1.942   1.995   2.007   2.053   2.115   2.191   2.294
  2.518   2.524   2.548   2.561   2.594   2.630   2.651   2.708
  2.806   2.886   2.907   2.920   2.960   2.968   3.003   3.023
  3.051   3.122   3.146   3.213   3.234   3.242   3.283   3.305
  3.330   3.348   3.396   3.491   3.499   3.665   3.712   3.758
  3.910   4.055   4.103   4.204   4.233   5.078   5.112   5.142
  5.294   5.326   5.484   5.687   5.949   5.988  23.542  23.634
 23.830  23.946  24.285  49.990  50.053  50.147
 --------------------------------------------------------------
 
          Ground-State Mulliken Net Atomic Charges

     Atom                 Charge (a.u.)    Spin (a.u.)
  --------------------------------------------------------
      1 O                    -0.036594      -0.003818
      2 O                    -0.046662      -0.001973
      3 O                    -0.267120       0.001390
      4 C                    -0.472306      -0.049111
      5 C                    -0.000129       0.000132
      6 C                    -0.397972       1.065482
      7 C                    -0.452618      -0.000014
      8 C                    -0.053672      -0.001156
      9 H                     0.288708       0.013191
     10 H                     0.294370       0.052509
     11 H                     0.266799      -0.000227
     12 H                     0.222230      -0.039110
     13 H                     0.211511      -0.037323
     14 H                     0.222336       0.000022
     15 H                     0.221119       0.000006
  --------------------------------------------------------
  Sum of atomic charges =    -0.000000
  Sum of spin   charges =     1.000000

 -----------------------------------------------------------------
                    Cartesian Multipole Moments
 -----------------------------------------------------------------
    Charge (ESU x 10^10)
                -0.0000
    Dipole Moment (Debye)
         X       0.7379      Y       0.0259      Z      -0.4669
       Tot       0.8736
    Quadrupole Moments (Debye-Ang)
        XX     -34.5487     XY      -1.5899     YY     -52.9779
        XZ      -1.8563     YZ       0.9254     ZZ     -46.6329
    Octopole Moments (Debye-Ang^2)
       XXX       1.5782    XXY      -8.4097    XYY      -1.3116
       YYY       3.0507    XXZ      -0.5901    XYZ      -8.9513
       YYZ       0.0525    XZZ       2.8899    YZZ      -2.8786
       ZZZ       2.5326
    Hexadecapole Moments (Debye-Ang^3)
      XXXX   -1336.3572   XXXY     -12.9181   XXYY    -288.9222
      XYYY      -7.5818   YYYY    -221.6919   XXXZ     -27.3332
      XXYZ       4.7518   XYYZ      -8.8572   YYYZ      -0.7435
      XXZZ    -276.4087   XYZZ      -2.3127   YYZZ     -42.8913
      XZZZ      -0.9237   YZZZ      -1.0294   ZZZZ     -62.7735
 -----------------------------------------------------------------
 Calculating analytic gradient of the SCF energy
 Gradient of SCF Energy
            1           2           3           4           5           6
    1   0.0013396   0.0033648   0.0002698   0.0005193   0.0008535  -0.0049064
    2   0.0002555   0.0076999  -0.0008504  -0.0063703  -0.0318556   0.0132792
    3   0.0005536  -0.0116674  -0.0000686  -0.0067210   0.0443820   0.0190836
            7           8           9          10          11          12
    1  -0.0004613  -0.0025039   0.0001110  -0.0004985  -0.0010551   0.0005205
    2   0.0237365   0.0018314   0.0006086   0.0008145   0.0098245  -0.0023990
    3  -0.0414572   0.0007058   0.0001257   0.0004312  -0.0129350  -0.0076802
           13          14          15
    1   0.0038095   0.0008321  -0.0021949
    2  -0.0061672  -0.0030418  -0.0073658
    3  -0.0059248   0.0107994   0.0103729
 Max gradient component =       4.438E-02
 RMS gradient           =       1.234E-02
 Gradient time:  CPU 64.67 s  wall 2.99 s
 Geometry Optimization Parameters
   NAtoms,    NIC,     NZ,  NCons,   NDum,   NFix, NCnnct, MaxDiis
       15      83       0       0       0       0       0       0

 Cartesian Hessian Update
 Hessian Updated using BFGS Update


** GEOMETRY OPTIMIZATION IN DELOCALIZED INTERNAL COORDINATES **
   Searching for a Minimum

   Optimization Cycle:   4

                       Coordinates (Angstroms)
     ATOM                X               Y               Z
      1  O         1.0275587394    0.4639848554   -0.0246755131
      2  O        -1.1241080229    0.4986936221   -0.0988927483
      3  O        -0.0745720712   -1.5032022339    0.0079384016
      4  C         2.2790860050   -0.2380556118    0.0420027541
      5  C        -2.3711174887   -0.1331796753   -0.1267894770
      6  C         3.3789363018    0.7627807346    0.0187997895
      7  C        -3.4428156541    0.6393417347    0.0709588412
      8  C        -0.0542079673   -0.3028037550   -0.0305662355
      9  H         2.2963699576   -0.8513514711    0.9463990007
     10  H         2.3463755407   -0.9147816460   -0.8195345944
     11  H        -2.3982387658   -0.9724151968   -0.8166347820
     12  H         4.3707033975    0.3309155794    0.1512137698
     13  H         3.3566536025    1.4716824108   -0.8079802302
     14  H        -4.4099281059    0.1437307275    0.0765918293
     15  H        -3.3785349949    1.4878679741    0.7480818105
   Point Group: c1    Number of degrees of freedom:    39


   Energy is   -420.279308423

 Hessian Updated using BFGS Update

 39 Hessian modes will be used to form the next step
  Hessian Eigenvalues:
     0.007827    0.007946    0.010794    0.010840    0.024831    0.025012
     0.025023    0.039432    0.046758    0.051606    0.065774    0.072035
     0.113322    0.128882    0.138129    0.159687    0.160000    0.160974
     0.167604    0.220147    0.238736    0.249994    0.250000    0.250175
     0.251498    0.312665    0.344718    0.344925    0.345076    0.345186
     0.345567    0.345932    0.349528    0.398497    0.400950    0.435144
     0.596318    0.597046    1.028465

 Minimum Search - Taking Simple RFO Step
 Searching for Lamda that Minimizes Along All modes
 Value Taken    Lamda =  -0.02214669
 Calculated Step too Large.  Step scaled by  0.505303
 Step Taken.  Stepsize is  0.300000

                             Maximum     Tolerance    Cnvgd?
         Gradient           0.020234      0.000300      NO
         Displacement       0.151218      0.001200      NO
         Energy change     -0.013960      0.000001      NO


 New Cartesian Coordinates Obtained by Inverse Iteration

 Displacement from previous Coordinates is:  0.289508
 ----------------------------------------------------------------
             Standard Nuclear Orientation (Angstroms)
    I     Atom           X                Y                Z
 ----------------------------------------------------------------
    1      O       1.0262058826     0.4618120849    -0.0482237975
    2      O      -1.1238315524     0.5036751630    -0.1300518123
    3      O      -0.0814995377    -1.5023367892    -0.0193563388
    4      C       2.2753435407    -0.2435720013     0.0297130390
    5      C      -2.3668263588    -0.1167901858    -0.1484865173
    6      C       3.3771183386     0.7493334239     0.0182444822
    7      C      -3.4382494286     0.6215068051     0.1134811520
    8      C      -0.0559174285    -0.3029826294    -0.0671872475
    9      H       2.2829569931    -0.8618818368     0.9310750238
   10      H       2.3465637633    -0.9197146958    -0.8333513569
   11      H      -2.3934169544    -1.0182415340    -0.7506154781
   12      H       4.3701197772     0.3404050329     0.1953241540
   13      H       3.3563640262     1.5015910967    -0.7675905677
   14      H      -4.4109981602     0.1425910053     0.1084374024
   15      H      -3.3617724274     1.5278131090     0.7055004786
 ----------------------------------------------------------------
 Molecular Point Group                 C1    NOp =  1
 Largest Abelian Subgroup              C1    NOp =  1
 Nuclear Repulsion Energy =   362.9471934903 hartrees
 There are       31 alpha and       30 beta electrons
 Applying Cartesian multipole field
    Component          Value
    ---------          -----
     (2,0,0)        1.00000E-11
     (0,2,0)        2.00000E-11
     (0,0,2)       -3.00000E-11
 Nucleus-field energy     =     0.0000000129 hartrees
 Requested basis set is 6-311++G(d)
 There are 76 shells and 204 basis functions
 A cutoff of  1.0D-12 yielded   2591 shell pairs
 There are     19269 function pairs (     20772 Cartesian)
 Smallest overlap matrix eigenvalue = 2.62E-05
 Guess MOs from SCF MO coefficient file
 Reading MOs from coefficient file
 Reading MOs from coefficient file

 -----------------------------------------------------------------------
  General SCF calculation program by
  Eric Jon Sundstrom, Paul Horn, Yuezhi Mao, Dmitri Zuev, Alec White,
  David Stuck, Shaama M.S., Shane Yost, Joonho Lee, David Small,
  Daniel Levine, Susi Lehtola, Hugh Burton, Evgeny Epifanovsky
 -----------------------------------------------------------------------
 Exchange:     0.2220 Hartree-Fock + 1.0000 wB97X-D + LR-HF
 Correlation:  1.0000 wB97X-D
 Using SG-2 standard quadrature grid
 Dispersion:   Grimme D
 using 32 threads for integral computing
 -------------------------------------------------------
 OpenMP Integral computing Module                
 Release: version 1.0, May 2013, Q-Chem Inc. Pittsburgh 
 -------------------------------------------------------
 using 32 threads for integral computing
 -------------------------------------------------------
 OpenMP Integral computing Module                
 Release: version 1.0, May 2013, Q-Chem Inc. Pittsburgh 
 -------------------------------------------------------
 -------------------------------------------------------
 OpenMP BLAS3 based DFT computing Module                
 Release: version 1.0, May 2013, Q-Chem Inc. Pittsburgh 
 -------------------------------------------------------
 A unrestricted SCF calculation will be
 performed using Roothaan-Hall, GDM
 SCF converges when RMS gradient is below 1.0e-08
 ---------------------------------------
  Cycle       Energy         DIIS error
 ---------------------------------------
    1    -420.2849856947      3.36e-04  Roothaan Step
 ---------------------------------------
  Cycle       Energy        RMS Gradient
 ---------------------------------------
    1    -420.2884423113      2.52e-03   Normal BFGS step
    2    -420.2886841665      1.38e-03   Normal BFGS step
    3    -420.2887320527      4.51e-04   Normal BFGS step
    4    -420.2887361442      2.69e-04   Normal BFGS step
    5    -420.2887368901      1.18e-04   Normal BFGS step
    6    -420.2887371420      5.41e-05   Normal BFGS step
    7    -420.2887371659      2.23e-05   Normal BFGS step
    8    -420.2887371737      1.32e-05   Normal BFGS step
    9    -420.2887371747      5.96e-06   Normal BFGS step
   10    -420.2887371752      3.18e-06   Normal BFGS step
   11    -420.2887371752      2.38e-06   Normal BFGS step
   12    -420.2887371753      2.55e-07   Normal BFGS step
   13    -420.2887371753      7.72e-08   Normal BFGS step
   14    -420.2887371753      3.31e-08   Normal BFGS step
   15    -420.2887371753      1.23e-08   Normal BFGS step
   16    -420.2887371753      5.21e-09  Convergence criterion met
 ---------------------------------------
 SCF time:   CPU 552.56s  wall 20.00s 
<S^2> =          0.753759396
 SCF   energy in the final basis set =     -420.2887371753
 Total energy in the final basis set =     -420.2887371753
 
 --------------------------------------------------------------
 
                    Orbital Energies (a.u.)
 --------------------------------------------------------------
 
 Alpha MOs
 -- Occupied --
-19.319 -19.310 -19.247 -10.473 -10.361 -10.358 -10.313 -10.290
 -1.274  -1.187  -1.144  -0.913  -0.878  -0.774  -0.713  -0.670
 -0.666  -0.618  -0.595  -0.562  -0.545  -0.540  -0.513  -0.504
 -0.474  -0.469  -0.447  -0.413  -0.394  -0.348  -0.324
 -- Virtual --
  0.042   0.050   0.053   0.064   0.065   0.071   0.079   0.088
  0.107   0.113   0.115   0.128   0.136   0.144   0.150   0.159
  0.166   0.169   0.181   0.185   0.188   0.191   0.196   0.201
  0.208   0.222   0.224   0.229   0.237   0.248   0.254   0.262
  0.280   0.286   0.295   0.306   0.313   0.325   0.335   0.340
  0.344   0.365   0.370   0.375   0.385   0.391   0.411   0.421
  0.435   0.454   0.465   0.480   0.493   0.540   0.558   0.562
  0.577   0.600   0.605   0.609   0.630   0.647   0.669   0.677
  0.697   0.704   0.720   0.735   0.752   0.765   0.766   0.786
  0.800   0.821   0.837   0.854   0.914   0.923   0.964   0.971
  1.044   1.124   1.131   1.153   1.175   1.199   1.215   1.223
  1.263   1.282   1.294   1.319   1.371   1.375   1.431   1.433
  1.474   1.540   1.560   1.573   1.636   1.668   1.700   1.708
  1.719   1.731   1.798   1.825   1.862   1.866   1.891   1.929
  1.941   1.999   2.021   2.050   2.128   2.182   2.304   2.515
  2.519   2.536   2.553   2.589   2.630   2.648   2.745   2.794
  2.847   2.892   2.919   2.952   2.963   3.001   3.024   3.064
  3.122   3.157   3.215   3.233   3.246   3.280   3.313   3.330
  3.356   3.406   3.497   3.499   3.670   3.709   3.752   3.901
  4.053   4.108   4.202   4.236   5.077   5.111   5.140   5.289
  5.327   5.488   5.697   5.949   5.991  23.540  23.623  23.829
 23.947  24.322  49.992  50.052  50.146
 
 Beta MOs
 -- Occupied --
-19.319 -19.310 -19.247 -10.473 -10.362 -10.358 -10.301 -10.290
 -1.274  -1.187  -1.144  -0.908  -0.868  -0.762  -0.698  -0.668
 -0.666  -0.615  -0.594  -0.557  -0.542  -0.536  -0.507  -0.496
 -0.471  -0.464  -0.446  -0.410  -0.394  -0.348
 -- Virtual --
 -0.015   0.045   0.050   0.053   0.066   0.067   0.072   0.083
  0.089   0.107   0.114   0.116   0.129   0.146   0.150   0.161
  0.162   0.167   0.171   0.182   0.186   0.190   0.193   0.198
  0.204   0.213   0.224   0.227   0.232   0.240   0.254   0.260
  0.267   0.283   0.288   0.298   0.308   0.318   0.329   0.337
  0.341   0.345   0.366   0.371   0.377   0.388   0.392   0.411
  0.422   0.437   0.455   0.467   0.482   0.495   0.547   0.559
  0.563   0.580   0.605   0.608   0.627   0.645   0.652   0.677
  0.684   0.698   0.709   0.727   0.736   0.755   0.768   0.771
  0.786   0.808   0.822   0.840   0.855   0.916   0.931   0.965
  0.976   1.044   1.129   1.133   1.156   1.179   1.200   1.215
  1.224   1.263   1.288   1.299   1.320   1.373   1.383   1.433
  1.447   1.479   1.555   1.576   1.584   1.639   1.679   1.702
  1.719   1.721   1.742   1.813   1.833   1.866   1.886   1.895
  1.934   1.944   2.004   2.021   2.052   2.128   2.195   2.305
  2.518   2.521   2.542   2.553   2.597   2.633   2.652   2.745
  2.796   2.885   2.907   2.926   2.961   2.967   3.003   3.025
  3.064   3.129   3.157   3.220   3.234   3.247   3.282   3.315
  3.341   3.359   3.406   3.498   3.500   3.671   3.711   3.753
  3.908   4.056   4.109   4.202   4.236   5.077   5.112   5.140
  5.290   5.327   5.488   5.698   5.949   5.991  23.544  23.632
 23.838  23.947  24.322  49.992  50.052  50.146
 --------------------------------------------------------------
 
          Ground-State Mulliken Net Atomic Charges

     Atom                 Charge (a.u.)    Spin (a.u.)
  --------------------------------------------------------
      1 O                    -0.038391      -0.003733
      2 O                    -0.047225      -0.001964
      3 O                    -0.271025       0.001323
      4 C                    -0.467924      -0.057453
      5 C                    -0.008296       0.000289
      6 C                    -0.400136       1.075069
      7 C                    -0.445383      -0.000061
      8 C                    -0.064704      -0.000770
      9 H                     0.288162       0.014324
     10 H                     0.293241       0.053701
     11 H                     0.274319      -0.000232
     12 H                     0.225563      -0.040862
     13 H                     0.212269      -0.039660
     14 H                     0.218289       0.000027
     15 H                     0.231240       0.000001
  --------------------------------------------------------
  Sum of atomic charges =    -0.000000
  Sum of spin   charges =     1.000000

 -----------------------------------------------------------------
                    Cartesian Multipole Moments
 -----------------------------------------------------------------
    Charge (ESU x 10^10)
                -0.0000
    Dipole Moment (Debye)
         X       0.8047      Y       0.0564      Z      -0.4313
       Tot       0.9147
    Quadrupole Moments (Debye-Ang)
        XX     -34.5425     XY      -1.4744     YY     -52.5295
        XZ      -1.6336     YZ       0.8281     ZZ     -46.8889
    Octopole Moments (Debye-Ang^2)
       XXX       2.1950    XXY      -7.5600    XYY      -1.6188
       YYY       3.7048    XXZ       0.5364    XYZ      -8.6953
       YYZ       0.6853    XZZ       3.3337    YZZ      -2.8704
       ZZZ       3.9472
    Hexadecapole Moments (Debye-Ang^3)
      XXXX   -1326.3858   XXXY     -10.5120   XXYY    -284.1565
      XYYY      -7.0408   YYYY    -219.4348   XXXZ     -21.3155
      XXYZ       3.8380   XYYZ      -8.3829   YYYZ      -1.9179
      XXZZ    -278.1270   XYZZ      -2.3506   YYZZ     -43.0343
      XZZZ       1.0538   YZZZ      -2.1663   ZZZZ     -63.2975
 -----------------------------------------------------------------
 Calculating analytic gradient of the SCF energy
 Gradient of SCF Energy
            1           2           3           4           5           6
    1   0.0005688   0.0008429   0.0000016   0.0004882   0.0019813  -0.0050496
    2   0.0002142   0.0049479  -0.0002289  -0.0040898  -0.0199887   0.0090085
    3   0.0013703  -0.0077553   0.0014606  -0.0041382   0.0320682   0.0145196
            7           8           9          10          11          12
    1   0.0001218  -0.0015107   0.0001202  -0.0002414  -0.0006565   0.0009532
    2   0.0143970   0.0004764   0.0002658   0.0006918   0.0063558  -0.0016858
    3  -0.0291034  -0.0030552   0.0000136   0.0000162  -0.0097157  -0.0058635
           13          14          15
    1   0.0033683   0.0004304  -0.0014185
    2  -0.0042621  -0.0014884  -0.0046135
    3  -0.0048166   0.0075463   0.0074531
 Max gradient component =       3.207E-02
 RMS gradient           =       8.569E-03
 Gradient time:  CPU 63.63 s  wall 3.04 s
 Geometry Optimization Parameters
   NAtoms,    NIC,     NZ,  NCons,   NDum,   NFix, NCnnct, MaxDiis
       15      83       0       0       0       0       0       0

 Cartesian Hessian Update
 Hessian Updated using BFGS Update


** GEOMETRY OPTIMIZATION IN DELOCALIZED INTERNAL COORDINATES **
   Searching for a Minimum

   Optimization Cycle:   5

                       Coordinates (Angstroms)
[...]
   13    -420.2998907809      2.18e-09  Convergence criterion met
 ---------------------------------------
 SCF time:   CPU 477.53s  wall 18.00s 
<S^2> =          0.754423162
 SCF   energy in the final basis set =     -420.2998907809
 Total energy in the final basis set =     -420.2998907809
 
 --------------------------------------------------------------
 
                    Orbital Energies (a.u.)
 --------------------------------------------------------------
 
 Alpha MOs
 -- Occupied --
-19.320 -19.312 -19.249 -10.476 -10.362 -10.355 -10.308 -10.286
 -1.276  -1.190  -1.147  -0.913  -0.876  -0.774  -0.714  -0.672
 -0.669  -0.619  -0.595  -0.558  -0.551  -0.540  -0.515  -0.511
 -0.473  -0.467  -0.462  -0.415  -0.397  -0.342  -0.308
 -- Virtual --
  0.042   0.053   0.060   0.061   0.068   0.070   0.074   0.088
  0.108   0.111   0.117   0.126   0.141   0.144   0.152   0.161
  0.169   0.169   0.185   0.188   0.192   0.193   0.197   0.204
  0.212   0.221   0.226   0.228   0.235   0.251   0.257   0.260
  0.283   0.300   0.306   0.314   0.322   0.332   0.336   0.347
  0.353   0.358   0.372   0.383   0.390   0.399   0.418   0.431
  0.435   0.461   0.467   0.492   0.506   0.548   0.562   0.572
  0.580   0.596   0.607   0.617   0.624   0.637   0.652   0.667
  0.707   0.729   0.741   0.753   0.765   0.778   0.803   0.818
  0.825   0.844   0.864   0.901   0.927   0.957   0.986   1.002
  1.075   1.113   1.132   1.135   1.187   1.196   1.234   1.242
  1.250   1.255   1.273   1.277   1.349   1.363   1.370   1.423
  1.465   1.536   1.587   1.608   1.619   1.642   1.669   1.699
  1.710   1.748   1.815   1.824   1.873   1.885   1.911   1.940
  1.948   2.018   2.027   2.066   2.153   2.196   2.322   2.507
  2.524   2.535   2.567   2.613   2.637   2.659   2.755   2.818
  2.824   2.887   2.925   2.951   2.952   2.998   3.020   3.102
  3.134   3.144   3.231   3.233   3.257   3.275   3.321   3.360
  3.385   3.425   3.497   3.501   3.678   3.708   3.750   3.905
  4.071   4.122   4.207   4.246   5.056   5.104   5.131   5.298
  5.327   5.496   5.712   5.951   6.002  23.544  23.632  23.845
 23.949  24.351  49.994  50.054  50.146
 
 Beta MOs
 -- Occupied --
-19.320 -19.312 -19.249 -10.476 -10.363 -10.355 -10.296 -10.286
 -1.276  -1.189  -1.147  -0.908  -0.866  -0.762  -0.698  -0.671
 -0.668  -0.617  -0.595  -0.552  -0.549  -0.536  -0.509  -0.505
 -0.469  -0.464  -0.461  -0.412  -0.397  -0.342
 -- Virtual --
 -0.004   0.047   0.054   0.060   0.063   0.070   0.073   0.078
  0.090   0.109   0.111   0.118   0.127   0.147   0.153   0.162
  0.166   0.170   0.171   0.186   0.190   0.195   0.195   0.198
  0.207   0.215   0.223   0.227   0.234   0.240   0.253   0.261
  0.267   0.284   0.301   0.308   0.318   0.325   0.336   0.340
  0.348   0.354   0.359   0.374   0.384   0.393   0.402   0.418
  0.432   0.436   0.462   0.470   0.492   0.509   0.556   0.568
  0.573   0.584   0.598   0.614   0.627   0.633   0.641   0.665
  0.683   0.709   0.733   0.744   0.754   0.770   0.783   0.806
  0.819   0.826   0.847   0.865   0.905   0.932   0.958   0.988
  1.005   1.075   1.114   1.135   1.146   1.188   1.197   1.237
  1.243   1.250   1.258   1.274   1.286   1.351   1.367   1.414
  1.424   1.468   1.542   1.604   1.608   1.619   1.647   1.674
  1.703   1.722   1.758   1.830   1.837   1.885   1.903   1.914
  1.942   1.948   2.021   2.027   2.068   2.153   2.211   2.322
  2.510   2.524   2.541   2.567   2.616   2.642   2.664   2.756
  2.821   2.873   2.906   2.929   2.952   2.953   2.999   3.022
  3.102   3.140   3.145   3.232   3.237   3.257   3.277   3.322
  3.371   3.389   3.426   3.497   3.502   3.679   3.711   3.750
  3.913   4.075   4.123   4.207   4.247   5.056   5.104   5.131
  5.298   5.327   5.497   5.712   5.951   6.002  23.548  23.641
 23.854  23.949  24.351  49.994  50.054  50.146
 --------------------------------------------------------------
 
          Ground-State Mulliken Net Atomic Charges

     Atom                 Charge (a.u.)    Spin (a.u.)
  --------------------------------------------------------
      1 O                    -0.047716      -0.001928
      2 O                    -0.064372      -0.001604
      3 O                    -0.281194       0.000651
      4 C                    -0.371261      -0.098583
      5 C                     0.014600      -0.000636
      6 C                    -0.485345       1.119366
      7 C                    -0.516618       0.000069
      8 C                    -0.080690      -0.000746
      9 H                     0.287823       0.027650
     10 H                     0.291435       0.053640
     11 H                     0.288684      -0.000028
     12 H                     0.247252      -0.048142
     13 H                     0.245710      -0.049736
     14 H                     0.218554       0.000023
     15 H                     0.253138       0.000005
  --------------------------------------------------------
  Sum of atomic charges =    -0.000000
  Sum of spin   charges =     1.000000

 -----------------------------------------------------------------
                    Cartesian Multipole Moments
 -----------------------------------------------------------------
    Charge (ESU x 10^10)
                -0.0000
    Dipole Moment (Debye)
         X       0.8500      Y       0.3030      Z      -0.1168
       Tot       0.9099
    Quadrupole Moments (Debye-Ang)
        XX     -35.1417     XY      -0.9621     YY     -50.3922
        XZ      -0.4364     YZ      -0.9030     ZZ     -48.6776
    Octopole Moments (Debye-Ang^2)
       XXX       1.0159    XXY      -3.9468    XYY      -1.9497
       YYY      10.8860    XXZ       1.9186    XYZ      -2.1431
       YYZ       2.2534    XZZ       3.9575    YZZ      -2.7177
       ZZZ       4.2015
    Hexadecapole Moments (Debye-Ang^3)
      XXXX   -1322.7598   XXXY      -3.9209   XXYY    -266.6280
      XYYY       4.5847   YYYY    -217.9810   XXXZ      17.4644
      XXYZ      -2.9431   XYYZ       0.8087   YYYZ      -9.6083
      XXZZ    -294.4157   XYZZ      -1.3271   YYZZ     -47.0160
      XZZZ      11.9373   YZZZ      -6.6716   ZZZZ     -59.2275
 -----------------------------------------------------------------
 Calculating analytic gradient of the SCF energy
 Gradient of SCF Energy
            1           2           3           4           5           6
    1  -0.0000033  -0.0000203  -0.0000007  -0.0000185  -0.0000102   0.0000223
    2  -0.0000081   0.0000301   0.0000100   0.0000068   0.0000092  -0.0000167
    3   0.0000053  -0.0000133   0.0000160  -0.0000027   0.0000102  -0.0000092
            7           8           9          10          11          12
    1   0.0000064   0.0000365  -0.0000027  -0.0000052  -0.0000013  -0.0000060
    2   0.0000031  -0.0000331  -0.0000029  -0.0000188   0.0000099  -0.0000051
    3  -0.0000077  -0.0000021   0.0000115   0.0000106   0.0000118  -0.0000012
           13          14          15
    1  -0.0000077   0.0000014   0.0000092
    2  -0.0000141   0.0000166   0.0000130
    3  -0.0000081  -0.0000076  -0.0000135
 Max gradient component =       3.649E-05
 RMS gradient           =       1.341E-05
 Gradient time:  CPU 62.82 s  wall 3.08 s
 Geometry Optimization Parameters
   NAtoms,    NIC,     NZ,  NCons,   NDum,   NFix, NCnnct, MaxDiis
       15      83       0       0       0       0       0       0

 Cartesian Hessian Update
 Hessian Updated using BFGS Update


** GEOMETRY OPTIMIZATION IN DELOCALIZED INTERNAL COORDINATES **
   Searching for a Minimum

   Optimization Cycle:  18

                       Coordinates (Angstroms)
     ATOM                X               Y               Z
      1  O         1.0415780514    0.4073567382    0.0103077132
      2  O        -1.1059102654    0.4667790602    0.0418935357
      3  O        -0.0762719728   -1.5403401365   -0.1848804197
      4  C         2.2907306621   -0.2926178254   -0.1055639893
      5  C        -2.3583703464   -0.1089627381   -0.0003710775
      6  C         3.3827166096    0.6978373867   -0.0292268793
      7  C        -3.4354061791    0.6535954351    0.0645999638
      8  C        -0.0439176183   -0.3474795075   -0.0574317501
      9  H         2.3610804395   -1.0441734387    0.6881194014
     10  H         2.2910903600   -0.8424271086   -1.0576852071
     11  H        -2.3582952956   -1.1883118647   -0.0870918511
     12  H         4.3962880167    0.3612171082    0.1461431823
     13  H         3.1993697928    1.7354608528   -0.2752312204
     14  H        -4.4141334298    0.1933426837    0.0337190565
     15  H        -3.3683883511    1.7319314033    0.1496121575
   Point Group: c1    Number of degrees of freedom:    39


   Energy is   -420.299890781

 Hessian Updated using BFGS Update

 39 Hessian modes will be used to form the next step
  Hessian Eigenvalues:
     0.000653    0.004871    0.010590    0.019691    0.023525    0.025115
     0.030687    0.046601    0.061693    0.065207    0.072062    0.113441
     0.122118    0.133752    0.137327    0.141520    0.160219    0.160436
     0.169049    0.218167    0.233287    0.249214    0.251580    0.258469
     0.312403    0.324365    0.343996    0.344732    0.344787    0.345271
     0.345925    0.347198    0.350427    0.397269    0.428277    0.479224
     0.596237    0.620067    1.026943

 Minimum Search - Taking Simple RFO Step
 Searching for Lamda that Minimizes Along All modes
 Value Taken    Lamda =   0.00000000
 Step Taken.  Stepsize is  0.006571

                             Maximum     Tolerance    Cnvgd?
         Gradient           0.000030      0.000300     YES
         Displacement       0.004154      0.001200      NO
         Energy change     -0.000000      0.000001     YES


                       Distance Matrix (Angstroms)
             O (  1)   O (  2)   O (  3)   C (  4)   C (  5)   C (  6)
   O (  2)  2.148542
   O (  3)  2.254154  2.267181
   C (  4)  1.436584  3.483618  2.676902
   C (  5)  3.438946  1.379102  2.700159  4.653916
   C (  6)  2.359422  4.495133  4.122896  1.476232  5.797572
   C (  7)  4.484079  2.337085  4.019873  5.806283  1.321258  6.818912
   C (  8)  1.323883  1.341906  1.200086  2.335789  2.327410  3.582639
   H (  9)  2.075441  3.836745  2.636095  1.095317  4.860232  2.143112
   H ( 10)  2.064909  3.802987  2.617876  1.099466  4.824248  2.149835
   H ( 11)  3.756965  2.079527  2.311086  4.734559  1.082827  6.043188
   H ( 12)  3.357776  5.504198  4.871272  2.219060  6.772588  1.082310
   H ( 13)  2.549796  4.499506  4.633451  2.228792  5.862245  1.082034
   H ( 14)  5.459958  3.319514  4.676589  6.723895  2.078151  7.813408
   H ( 15)  4.606702  2.594421  4.653781  6.015774  2.105118  6.832185
             C (  7)   C (  8)   H (  9)   H ( 10)   H ( 11)   H ( 12)
   C (  8)  3.538253
   H (  9)  6.072104  2.612517
   H ( 10)  6.024149  2.588000  1.758816
   H ( 11)  2.139112  2.462564  4.784792  4.762192
   H ( 12)  7.837574  4.501013  2.531982  2.707364  6.933962
   H ( 13)  6.730986  3.860698  3.058944  2.843011  6.282634  1.870485
   H ( 14)  1.081986  4.404496  6.918324  6.871973  2.479926  8.812738
   H ( 15)  1.083756  3.926694  6.389332  6.333608  3.099054  7.884736
             H ( 13)   H ( 14)
   H ( 14)  7.774253
   H ( 15)  6.581486  1.863939
 
 Final energy is   -420.299890780950     


 ******************************
 **  OPTIMIZATION CONVERGED  **
 ******************************

                       Coordinates (Angstroms)
     ATOM                X               Y               Z
      1  O         1.0415780514    0.4073567382    0.0103077132
      2  O        -1.1059102654    0.4667790602    0.0418935357
      3  O        -0.0762719728   -1.5403401365   -0.1848804197
      4  C         2.2907306621   -0.2926178254   -0.1055639893
      5  C        -2.3583703464   -0.1089627381   -0.0003710775
      6  C         3.3827166096    0.6978373867   -0.0292268793
      7  C        -3.4354061791    0.6535954351    0.0645999638
      8  C        -0.0439176183   -0.3474795075   -0.0574317501
      9  H         2.3610804395   -1.0441734387    0.6881194014
     10  H         2.2910903600   -0.8424271086   -1.0576852071
     11  H        -2.3582952956   -1.1883118647   -0.0870918511
     12  H         4.3962880167    0.3612171082    0.1461431823
     13  H         3.1993697928    1.7354608528   -0.2752312204
     14  H        -4.4141334298    0.1933426837    0.0337190565
     15  H        -3.3683883511    1.7319314033    0.1496121575

Z-matrix Print:
$molecule
0 2
O 
C  1 1.323883
O  2 1.200086 1 126.460949
O  2 1.341906 1 107.405893 3 -179.963838 0
C  4 1.379102 2 117.590074 1 -179.794375 0
H  5 1.082827 4 114.741591 2 1.465623 0
C  5 1.321258 4 119.858040 2 -178.547784 0
H  7 1.081986 5 119.370616 4 -179.819523 0
H  7 1.083756 5 121.850744 4 0.101576 0
C  1 1.436584 2 115.532001 3 1.130025 0
H  10 1.095317 1 109.373821 2 -58.524591 0
H  10 1.099466 1 108.287872 2 57.176478 0
C  10 1.476232 1 108.186913 2 179.174557 0
H  13 1.082034 10 120.417622 1 -22.977045 0
H  13 1.082310 10 119.500837 1 165.104311 0
$end

 
 --------------------------------------------------------------
 
                    Orbital Energies (a.u.)
 --------------------------------------------------------------
 
 Alpha MOs
 -- Occupied --
-19.320 -19.312 -19.249 -10.476 -10.362 -10.355 -10.308 -10.286
 -1.276  -1.190  -1.147  -0.913  -0.876  -0.774  -0.714  -0.672
 -0.669  -0.619  -0.595  -0.558  -0.551  -0.540  -0.515  -0.511
 -0.473  -0.467  -0.462  -0.415  -0.397  -0.342  -0.308
 -- Virtual --
  0.042   0.053   0.060   0.061   0.068   0.070   0.074   0.088
  0.108   0.111   0.117   0.126   0.141   0.144   0.152   0.161
  0.169   0.169   0.185   0.188   0.192   0.193   0.197   0.204
  0.212   0.221   0.226   0.228   0.235   0.251   0.257   0.260
  0.283   0.300   0.306   0.314   0.322   0.332   0.336   0.347
  0.353   0.358   0.372   0.383   0.390   0.399   0.418   0.431
  0.435   0.461   0.467   0.492   0.506   0.548   0.562   0.572
  0.580   0.596   0.607   0.617   0.624   0.637   0.652   0.667
  0.707   0.729   0.741   0.753   0.765   0.778   0.803   0.818
  0.825   0.844   0.864   0.901   0.927   0.957   0.986   1.002
  1.075   1.113   1.132   1.135   1.187   1.196   1.234   1.242
  1.250   1.255   1.273   1.277   1.349   1.363   1.370   1.423
  1.465   1.536   1.587   1.608   1.619   1.642   1.669   1.699
  1.710   1.748   1.815   1.824   1.873   1.885   1.911   1.940
  1.948   2.018   2.027   2.066   2.153   2.196   2.322   2.507
  2.524   2.535   2.567   2.613   2.637   2.659   2.755   2.818
  2.824   2.887   2.925   2.951   2.952   2.998   3.020   3.102
  3.134   3.144   3.231   3.233   3.257   3.275   3.321   3.360
  3.385   3.425   3.497   3.501   3.678   3.708   3.750   3.905
  4.071   4.122   4.207   4.246   5.056   5.104   5.131   5.298
  5.327   5.496   5.712   5.951   6.002  23.544  23.632  23.845
 23.949  24.351  49.994  50.054  50.146
 
 Beta MOs
 -- Occupied --
-19.320 -19.312 -19.249 -10.476 -10.363 -10.355 -10.296 -10.286
 -1.276  -1.189  -1.147  -0.908  -0.866  -0.762  -0.698  -0.671
 -0.668  -0.617  -0.595  -0.552  -0.549  -0.536  -0.509  -0.505
 -0.469  -0.464  -0.461  -0.412  -0.397  -0.342
 -- Virtual --
 -0.004   0.047   0.054   0.060   0.063   0.070   0.073   0.078
  0.090   0.109   0.111   0.118   0.127   0.147   0.153   0.162
  0.166   0.170   0.171   0.186   0.190   0.195   0.195   0.198
  0.207   0.215   0.223   0.227   0.234   0.240   0.253   0.261
  0.267   0.284   0.301   0.308   0.318   0.325   0.336   0.340
  0.348   0.354   0.359   0.374   0.384   0.393   0.402   0.418
  0.432   0.436   0.462   0.470   0.492   0.509   0.556   0.568
  0.573   0.584   0.598   0.614   0.627   0.633   0.641   0.665
  0.683   0.709   0.733   0.744   0.754   0.770   0.783   0.806
  0.819   0.826   0.847   0.865   0.905   0.932   0.958   0.988
  1.005   1.075   1.114   1.135   1.146   1.188   1.197   1.237
  1.243   1.250   1.258   1.274   1.286   1.351   1.367   1.414
  1.424   1.468   1.542   1.604   1.608   1.619   1.647   1.674
  1.703   1.722   1.758   1.830   1.837   1.885   1.903   1.914
  1.942   1.948   2.021   2.027   2.068   2.153   2.211   2.322
  2.510   2.524   2.541   2.567   2.616   2.642   2.664   2.756
  2.821   2.873   2.906   2.929   2.952   2.953   2.999   3.022
  3.102   3.140   3.145   3.232   3.237   3.257   3.277   3.322
  3.371   3.389   3.426   3.497   3.502   3.679   3.711   3.750
  3.913   4.075   4.123   4.207   4.247   5.056   5.104   5.131
  5.298   5.327   5.497   5.712   5.951   6.002  23.548  23.641
 23.854  23.949  24.351  49.994  50.054  50.146
 --------------------------------------------------------------
 
          Ground-State Mulliken Net Atomic Charges

     Atom                 Charge (a.u.)    Spin (a.u.)
  --------------------------------------------------------
      1 O                    -0.047716      -0.001928
      2 O                    -0.064372      -0.001604
      3 O                    -0.281194       0.000651
      4 C                    -0.371261      -0.098583
      5 C                     0.014600      -0.000636
      6 C                    -0.485345       1.119366
      7 C                    -0.516618       0.000069
      8 C                    -0.080690      -0.000746
      9 H                     0.287823       0.027650
     10 H                     0.291435       0.053640
     11 H                     0.288684      -0.000028
     12 H                     0.247252      -0.048142
     13 H                     0.245710      -0.049736
     14 H                     0.218554       0.000023
     15 H                     0.253138       0.000005
  --------------------------------------------------------
  Sum of atomic charges =    -0.000000
  Sum of spin   charges =     1.000000

 -----------------------------------------------------------------
                    Cartesian Multipole Moments
 -----------------------------------------------------------------
    Charge (ESU x 10^10)
                -0.0000
    Dipole Moment (Debye)
         X       0.8500      Y       0.3030      Z      -0.1168
       Tot       0.9099
    Quadrupole Moments (Debye-Ang)
        XX     -35.1417     XY      -0.9621     YY     -50.3922
        XZ      -0.4364     YZ      -0.9030     ZZ     -48.6776
    Octopole Moments (Debye-Ang^2)
       XXX       1.0159    XXY      -3.9468    XYY      -1.9497
       YYY      10.8860    XXZ       1.9186    XYZ      -2.1431
       YYZ       2.2534    XZZ       3.9575    YZZ      -2.7177
       ZZZ       4.2015
    Hexadecapole Moments (Debye-Ang^3)
      XXXX   -1322.7598   XXXY      -3.9209   XXYY    -266.6280
      XYYY       4.5847   YYYY    -217.9810   XXXZ      17.4644
      XXYZ      -2.9431   XYYZ       0.8087   YYYZ      -9.6083
      XXZZ    -294.4157   XYZZ      -1.3271   YYZZ     -47.0160
      XZZZ      11.9373   YZZZ      -6.6716   ZZZZ     -59.2275
 -----------------------------------------------------------------
Archival summary:
1\1\nid03485\OPT\ProcedureUnspecified\BasisUnspecified\357(2)\sblau\TueNov1314:29:232018TueNov1314:29:232018\0\\#,OPT,ProcedureUnspecified,BasisUnspecified,\\0,2\O\C,1,1.32388\O,2,1.20009,1,126.461\O,2,1.34191,1,107.406,3,-179.964,0\C,4,1.3791,2,117.59,1,-179.794,0\H,5,1.08283,4,114.742,2,1.46562,0\C,5,1.32126,4,119.858,2,-178.548,0\H,7,1.08199,5,119.371,4,-179.82,0\H,7,1.08376,5,121.851,4,0.101576,0\C,1,1.43658,2,115.532,3,1.13002,0\H,10,1.09532,1,109.374,2,-58.5246,0\H,10,1.09947,1,108.288,2,57.1765,0\C,10,1.47623,1,108.187,2,179.175,0\H,13,1.08203,10,120.418,1,-22.977,0\H,13,1.08231,10,119.501,1,165.104,0\\\@

 Total job time:  471.88s(wall), 12471.68s(cpu) 
 Tue Nov 13 14:29:23 2018

        *************************************************************
        *                                                           *
        *  Thank you very much for using Q-Chem.  Have a nice day.  *
        *                                                           *
        *************************************************************


