
Running Job 1 of 1 mol.qin
qchem mol.qin_35856.0 /tmp/qchem35856/ 1
/global/common/edison/software/qchem/5.1/exe/qcprog.exe mol.qin_35856.0 /tmp/qchem35856/
Check license passed

                  Welcome to Q-Chem
     A Quantum Leap Into The Future Of Chemistry


 Q-Chem 5.1, Q-Chem, Inc., Pleasanton, CA (2018)

 Yihan Shao,  Zhengting Gan,  E. Epifanovsky,  A. T. B. Gilbert,  M. Wormit,  
 J. Kussmann,  A. W. Lange,  A. Behn,  Jia Deng,  Xintian Feng,  D. Ghosh,  
 M. Goldey,  P. R. Horn,  L. D. Jacobson,  I. Kaliman,  T. Kus,  A. Landau,  
 Jie Liu,  E. I. Proynov,  R. M. Richard,  R. P. Steele,  E. J. Sundstrom,  
 H. L. Woodcock III,  P. M. Zimmerman,  D. Zuev,  B. Albrecht,  E. Alguire,  
 S. A. Baeppler,  D. Barton,  Z. Benda,  Y. A. Bernard,  E. J. Berquist,  
 K. B. Bravaya,  H. Burton,  D. Casanova,  Chun-Min Chang,  Yunqing Chen,  
 A. Chien,  K. D. Closser,  M. P. Coons,  S. Coriani,  S. Dasgupta,  
 A. L. Dempwolff,  M. Diedenhofen,  Hainam Do,  R. G. Edgar,  Po-Tung Fang,  
 S. Faraji,  S. Fatehi,  Qingguo Feng,  K. D. Fenk,  J. Fosso-Tande,  
 Qinghui Ge,  A. Ghysels,  G. Gidofalvi,  J. Gomes,  J. Gonthier,  A. Gunina,  
 D. Hait,  M. W. D. Hanson-Heine,  P. H. P. Harbach,  A. W. Hauser,  
 J. E. Herr,  E. G. Hohenstein,  Z. C. Holden,  Kerwin Hui,  B. C. Huynh,  
 T.-C. Jagau,  Hyunjun Ji,  B. Kaduk,  K. Khistyaev,  Jaehoon Kim,  
 P. Klunzinger,  K. Koh,  D. Kosenkov,  L. Koulias,  T. Kowalczyk,  
 C. M. Krauter,  A. Kunitsa,  Ka Un Lao,  A. Laurent,  K. V. Lawler,  
 Joonho Lee,  D. Lefrancois,  S. Lehtola,  D. S. Levine,  Yi-Pei Li,  
 You-Sheng Lin,  Fenglai Liu,  E. Livshits,  A. Luenser,  P. Manohar,  
 E. Mansoor,  S. F. Manzer,  Shan-Ping Mao,  Yuezhi Mao,  N. Mardirossian,  
 A. V. Marenich,  T. Markovich,  L. A. Martinez-Martinez,  S. A. Maurer,  
 N. J. Mayhall,  S. C. McKenzie,  J.-M. Mewes,  A. F. Morrison,  
 J. W. Mullinax,  K. Nanda,  T. S. Nguyen-Beck,  R. Olivares-Amaya,  
 J. A. Parkhill,  T. M. Perrine,  F. Plasser,  P. Pokhilko,  S. Prager,  
 A. Prociuk,  E. Ramos,  D. R. Rehn,  F. Rob,  M. Schneider,  N. Sergueev,  
 S. M. Sharada,  S. Sharma,  D. W. Small,  T. Stauch,  T. Stein,  
 Yu-Chuan Su,  A. J. W. Thom,  A. Tkatchenko,  T. Tsuchimochi,  N. M. Tubman,  
 L. Vogt,  M. L. Vidal,  O. Vydrov,  M. A. Watson,  J. Wenzel,  
 M. de Wergifosse,  T. A. Wesolowski,  A. White,  J. Witte,  A. Yamada,  
 Jun Yang,  K. Yao,  S. Yeganeh,  S. R. Yost,  Zhi-Qiang You,  A. Zech,  
 Igor Ying Zhang,  Xing Zhang,  Yan Zhao,  Ying Zhu,  B. R. Brooks,  
 G. K. L. Chan,  C. J. Cramer,  M. S. Gordon,  W. J. Hehre,  A. Klamt,  
 M. W. Schmidt,  C. D. Sherrill,  D. G. Truhlar,  A. Aspuru-Guzik,  R. Baer,  
 A. T. Bell,  N. A. Besley,  Jeng-Da Chai,  R. A. DiStasio Jr.,  A. Dreuw,  
 B. D. Dunietz,  T. R. Furlani,  Chao-Ping Hsu,  Yousung Jung,  Jing Kong,  
 D. S. Lambrecht,  WanZhen Liang,  C. Ochsenfeld,  V. A. Rassolov,  
 L. V. Slipchenko,  J. E. Subotnik,  T. Van Voorhis,  J. M. Herbert,  
 A. I. Krylov,  P. M. W. Gill,  M. Head-Gordon

 Contributors to earlier versions of Q-Chem not listed above: 
 R. D. Adamson,  B. Austin,  J. Baker,  G. J. O. Beran,  K. Brandhorst,  
 S. T. Brown,  E. F. C. Byrd,  A. K. Chakraborty,  C.-L. Cheng,  
 Siu Hung Chien,  D. M. Chipman,  D. L. Crittenden,  H. Dachsel,  
 R. J. Doerksen,  A. D. Dutoi,  L. Fusti-Molnar,  W. A. Goddard III,  
 A. Golubeva-Zadorozhnaya,  S. R. Gwaltney,  G. Hawkins,  A. Heyden,  
 S. Hirata,  G. Kedziora,  F. J. Keil,  C. Kelley,  Jihan Kim,  R. A. King,  
 R. Z. Khaliullin,  P. P. Korambath,  W. Kurlancheek,  A. M. Lee,  M. S. Lee,  
 S. V. Levchenko,  Ching Yeh Lin,  D. Liotard,  R. C. Lochan,  I. Lotan,  
 P. E. Maslen,  N. Nair,  D. P. O'Neill,  D. Neuhauser,  E. Neuscamman,  
 C. M. Oana,  R. Olson,  B. Peters,  R. Peverati,  P. A. Pieniazek,  
 Y. M. Rhee,  J. Ritchie,  M. A. Rohrdanz,  E. Rosta,  N. J. Russ,  
 H. F. Schaefer III,  N. E. Schultz,  N. Shenvi,  A. C. Simmonett,  A. Sodt,  
 D. Stuck,  K. S. Thanthiriwatte,  V. Vanovschi,  Tao Wang,  A. Warshel,  
 C. F. Williams,  Q. Wu,  X. Xu,  W. Zhang

 Please cite Q-Chem as follows:
 Y. Shao et al., Mol. Phys. 113, 184-215 (2015)
 DOI: 10.1080/00268976.2014.952696

 Q-Chem 5.1.0 for Intel X86 EM64T Linux

 Parts of Q-Chem use Armadillo 8.300.2 (Tropical Shenanigans).
 http://arma.sourceforge.net/

 Q-Chem begins on Tue Nov 13 14:52:45 2018  

Host: edison03
0

     Scratch files written to /tmp/qchem35856//
 Jun2518 |scratch|qcdevops|jenkins|workspace|build_RNUM -1
Processing $rem in /global/common/edison/software/qchem/5.1/config/preferences.
 MEM_TOTAL  48000 

Checking the input file for inconsistencies... 	...done.

--------------------------------------------------------------
User input:
--------------------------------------------------------------
$molecule
0 2
O      1.0349059008      0.4379157863      0.0399473534
O     -1.1136589592      0.4722671399      0.0307222139
O     -0.0569225954     -1.5306546598     -0.0756926114
C      2.2933766059     -0.2528075280     -0.0177626524
C     -2.3584009843     -0.1207029591     -0.0012807144
C      3.3735528867      0.7521037693      0.0320796023
C     -3.4453269701      0.6304260059      0.0104924951
C     -0.0406658653     -0.3325398395     -0.0084633996
H      2.3545760341     -0.9644820013      0.8125748577
H      2.3178721076     -0.8473016437     -0.9423047952
H     -2.3440492285     -1.2028959341     -0.0352140132
H      4.3870917090      0.4357582266      0.2419094152
H      3.1834535322      1.7763184364     -0.2605630845
H     -4.4178875216      0.1568493131     -0.0125426249
H     -3.3927458685      1.7124058102      0.0432642293
$end

$rem
job_type = freq
basis = 6-311++g*
max_scf_cycles = 200
gen_scfman = true
scf_algorithm = gdm
method = wb97xd
geom_opt_max_cycles = 200
$end
--------------------------------------------------------------
 ----------------------------------------------------------------
             Standard Nuclear Orientation (Angstroms)
    I     Atom           X                Y                Z
 ----------------------------------------------------------------
    1      O       1.0363988544     0.4352960159     0.0267138741
    2      O      -1.1121368920     0.4715815974     0.0181360427
    3      O      -0.0575353739    -1.5348369482    -0.0244298029
    4      C       2.2941147251    -0.2582476605    -0.0096951205
    5      C      -2.3575099951    -0.1208087393     0.0063056735
    6      C       3.3753576775     0.7466171520     0.0068018399
    7      C      -3.4436586424     0.6314466255    -0.0052879163
    8      C      -0.0399991529    -0.3351940461     0.0040756218
    9      H       2.3552925152    -0.9428121552     0.8431325511
   10      H       2.3172191458    -0.8823009812    -0.9145846694
   11      H      -2.3442912278    -1.2035475484     0.0073118596
   12      H       4.3887508769     0.4361484639     0.2259077829
   13      H       3.1860552061     1.7610502553    -0.3185952165
   14      H      -4.4167210828     0.1583918648    -0.0122310703
   15      H      -3.3899458143     1.7138647898    -0.0075027393
 ----------------------------------------------------------------
 Molecular Point Group                 C1    NOp =  1
 Largest Abelian Subgroup              C1    NOp =  1
 Nuclear Repulsion Energy =   363.1632426281 hartrees
 There are       31 alpha and       30 beta electrons
 Requested basis set is 6-311++G(d)
 There are 76 shells and 204 basis functions

 Total QAlloc Memory Limit  48000 MB
 Mega-Array Size       188 MB
 MEM_STATIC part       192 MB

                       Distance Matrix (Angstroms)
             O (  1)   O (  2)   O (  3)   C (  4)   C (  5)   C (  6)
   O (  2)  2.148859
   O (  3)  2.254048  2.267093
   C (  4)  1.436725  3.483673  2.675847
   C (  5)  3.439228  1.379138  2.700056  4.653682
   C (  6)  2.359671  4.495929  4.121985  1.476181  5.798120
   C (  7)  4.484464  2.337113  4.019824  5.806343  1.321265  6.820000
   C (  8)  1.323934  1.341851  1.200110  2.335422  2.327407  3.582595
   H (  9)  2.074898  3.834605  2.631520  1.095302  4.856591  2.143398
   H ( 10)  2.064608  3.803084  2.618709  1.099455  4.825039  2.149880
   H ( 11)  3.757027  2.079514  2.310847  4.733782  1.082820  6.042973
   H ( 12)  3.358265  5.504924  4.870001  2.219278  6.772774  1.082296
   H ( 13)  2.549095  4.500064  4.633604  2.229022  5.863281  1.082032
   H ( 14)  5.460285  3.319531  4.676502  6.723757  2.078135  7.814273
   H ( 15)  4.607433  2.594675  4.653956  6.016459  2.105265  6.834113
             C (  7)   C (  8)   H (  9)   H ( 10)   H ( 11)   H ( 12)
   C (  8)  3.538274
   H (  9)  6.068438  2.609720
   H ( 10)  6.025443  2.588386  1.759171
   H ( 11)  2.139152  2.462481  4.780446  4.762643
   H ( 12)  7.838254  4.500889  2.533269  2.707448  6.933271
   H ( 13)  6.732553  3.860801  3.057883  2.845590  6.283294  1.870381
   H ( 14)  1.081979  4.404496  6.914077  6.873371  2.479965  8.813070
   H ( 15)  1.083752  3.926948  6.386648  6.335188  3.099179  7.886391
             H ( 13)   H ( 14)
   H ( 14)  7.775897
   H ( 15)  6.583524  1.863809
 
 A cutoff of  1.0D-12 yielded   2592 shell pairs
 There are     19270 function pairs (     20773 Cartesian)
 
 -------------------------------------------------------
 OpenMP Integral Computing Module                       
 Release: version 1.0, May 2013, Q-Chem Inc. Pittsburgh 
 -------------------------------------------------------
 Integral Job Info:
 Integral job number is                      11
 Integral operator is                         1
 short-range coefficients              22203600
 long-range coefficients              100000000
 Omega coefficients                         200
 if combine SR and LR in K                    1
 Integral screening is                        0
 Integral computing path is                   2
 max size of driver memory is            800000
 size of driver memory is                593474
 size of scratch memory is              2428936
 max col of scratch BK array               1296
 max len of scratch array in speh3          155
 max len of scratch index in speh4           18
 max int batch size is                      520
 min int batch size is                       52
 fixed nKL is                                52
 max L of basis functions is                  2
 order of int derivative is                   0
 number of shells is                         76
 number of basis is                         212
 number of cartesian basis is               212
 number of contracted shell pairs          2592
 number of primitive shell pairs           6856
 maxK2 (contraction) of shell pair           36
 max number of K2 of shell pair               1
 max number of CS2 of shell pair            516
 max number of PS2 of shell pair           1068
 mem total for path MDJ                  544178
 -------------------------------------------------------
 Smallest overlap matrix eigenvalue = 1.79E-05
 Guess from superposition of atomic densities
 Warning:  Energy on first SCF cycle will be non-variational
 SAD guess density has 61.000000 electrons

 -----------------------------------------------------------------------
  General SCF calculation program by
  Eric Jon Sundstrom, Paul Horn, Yuezhi Mao, Dmitri Zuev, Alec White,
  David Stuck, Shaama M.S., Shane Yost, Joonho Lee, David Small,
  Daniel Levine, Susi Lehtola, Hugh Burton, Evgeny Epifanovsky
 -----------------------------------------------------------------------
 Exchange:     0.2220 Hartree-Fock + 1.0000 wB97X-D + LR-HF
 Correlation:  1.0000 wB97X-D
 Using SG-2 standard quadrature grid
 Dispersion:   Grimme D
 using 32 threads for integral computing
 -------------------------------------------------------
 OpenMP Integral computing Module                
 Release: version 1.0, May 2013, Q-Chem Inc. Pittsburgh 
 -------------------------------------------------------
 using 32 threads for integral computing
 -------------------------------------------------------
 OpenMP Integral computing Module                
 Release: version 1.0, May 2013, Q-Chem Inc. Pittsburgh 
 -------------------------------------------------------
 -------------------------------------------------------
 OpenMP BLAS3 based DFT computing Module                
 Release: version 1.0, May 2013, Q-Chem Inc. Pittsburgh 
 -------------------------------------------------------
 A unrestricted SCF calculation will be
 performed using Roothaan-Hall, GDM
 SCF converges when RMS gradient is below 1.0e-08
 ---------------------------------------
  Cycle       Energy         DIIS error
 ---------------------------------------
    1    -422.1050279773      2.32e-02  Roothaan Step
 ---------------------------------------
  Cycle       Energy        RMS Gradient
 ---------------------------------------
    1    -420.1286874068      1.88e-01   Descent step
    2    -420.2840079694      2.68e-02   Normal BFGS step
    3    -420.2948565539      2.79e-02   Normal BFGS step
    4    -420.2990396040      1.08e-02   Normal BFGS step
    5    -420.2997617886      2.78e-03   Normal BFGS step
    6    -420.2998497107      1.01e-03   Normal BFGS step
    7    -420.2998659420      3.87e-04   Normal BFGS step
    8    -420.2998675719      2.37e-04   Normal BFGS step
    9    -420.2998681401      6.14e-05   Normal BFGS step
   10    -420.2998682048      3.47e-05   Normal BFGS step
   11    -420.2998682160      1.59e-05   Normal BFGS step
   12    -420.2998682170      5.04e-06   Normal BFGS step
   13    -420.2998682173      1.59e-06   Normal BFGS step
   14    -420.2998682173      5.67e-07   Normal BFGS step
   15    -420.2998682173      3.57e-07   Normal BFGS step
   16    -420.2998682173      2.65e-07   Normal BFGS step
   17    -420.2998682173      1.36e-07   Normal BFGS step
   18    -420.2998682173      4.93e-08   Normal BFGS step
   19    -420.2998682173      3.67e-08   Normal BFGS step
   20    -420.2998682173      1.38e-08   Normal BFGS step
   21    -420.2998682173      1.22e-08   Normal BFGS step
   22    -420.2998682173      5.97e-09  Convergence criterion met
 ---------------------------------------
 SCF time:   CPU 741.27s  wall 27.00s 
<S^2> =          0.754424955
 SCF   energy in the final basis set =     -420.2998682173
 Total energy in the final basis set =     -420.2998682173
 
 --------------------------------------------------------------
 
                    Orbital Energies (a.u.)
 --------------------------------------------------------------
 
 Alpha MOs
 -- Occupied --
-19.320 -19.312 -19.249 -10.476 -10.362 -10.355 -10.308 -10.286
 -1.276  -1.190  -1.147  -0.913  -0.876  -0.774  -0.714  -0.672
 -0.669  -0.619  -0.595  -0.558  -0.551  -0.540  -0.515  -0.511
 -0.473  -0.467  -0.462  -0.415  -0.397  -0.342  -0.308
 -- Virtual --
  0.042   0.053   0.060   0.061   0.068   0.070   0.074   0.088
  0.108   0.111   0.117   0.126   0.141   0.144   0.152   0.161
  0.169   0.169   0.185   0.188   0.192   0.193   0.197   0.204
  0.212   0.221   0.226   0.228   0.235   0.251   0.257   0.260
  0.283   0.300   0.306   0.314   0.322   0.333   0.336   0.347
  0.353   0.358   0.372   0.383   0.390   0.399   0.418   0.431
  0.435   0.461   0.467   0.492   0.506   0.548   0.562   0.572
  0.580   0.596   0.607   0.617   0.624   0.637   0.652   0.667
  0.707   0.729   0.741   0.753   0.765   0.778   0.803   0.818
  0.825   0.844   0.864   0.901   0.927   0.957   0.986   1.002
  1.075   1.113   1.133   1.136   1.187   1.196   1.234   1.242
  1.249   1.255   1.273   1.277   1.349   1.363   1.369   1.423
  1.465   1.536   1.587   1.608   1.619   1.643   1.669   1.699
  1.710   1.748   1.815   1.824   1.873   1.885   1.911   1.940
  1.948   2.018   2.027   2.066   2.153   2.197   2.322   2.507
  2.524   2.535   2.567   2.613   2.637   2.659   2.755   2.818
  2.824   2.888   2.925   2.951   2.952   2.998   3.020   3.102
  3.134   3.144   3.231   3.233   3.257   3.275   3.321   3.360
  3.385   3.425   3.497   3.501   3.678   3.708   3.750   3.905
  4.071   4.122   4.207   4.246   5.056   5.104   5.131   5.298
  5.327   5.496   5.712   5.951   6.002  23.544  23.631  23.845
 23.949  24.351  49.994  50.054  50.146
 
 Beta MOs
 -- Occupied --
-19.320 -19.312 -19.249 -10.476 -10.363 -10.355 -10.296 -10.286
 -1.276  -1.189  -1.147  -0.908  -0.866  -0.762  -0.698  -0.671
 -0.668  -0.617  -0.595  -0.552  -0.549  -0.536  -0.509  -0.505
 -0.469  -0.464  -0.461  -0.412  -0.397  -0.342
 -- Virtual --
 -0.004   0.047   0.054   0.060   0.063   0.070   0.073   0.078
  0.090   0.109   0.111   0.118   0.127   0.146   0.153   0.162
  0.166   0.170   0.171   0.186   0.190   0.195   0.195   0.198
  0.206   0.215   0.223   0.227   0.234   0.239   0.253   0.261
  0.267   0.284   0.301   0.308   0.318   0.325   0.336   0.340
  0.348   0.355   0.359   0.374   0.384   0.393   0.401   0.418
  0.432   0.436   0.462   0.470   0.492   0.509   0.556   0.568
  0.574   0.583   0.598   0.615   0.626   0.633   0.640   0.666
  0.683   0.709   0.733   0.744   0.754   0.770   0.783   0.806
  0.819   0.826   0.848   0.865   0.905   0.932   0.958   0.988
  1.005   1.075   1.114   1.135   1.146   1.187   1.197   1.236
  1.243   1.250   1.258   1.274   1.286   1.351   1.367   1.414
  1.424   1.469   1.542   1.604   1.608   1.619   1.647   1.674
  1.703   1.722   1.758   1.830   1.837   1.885   1.903   1.914
  1.942   1.948   2.021   2.027   2.068   2.153   2.211   2.322
  2.510   2.524   2.541   2.567   2.616   2.642   2.665   2.755
  2.822   2.873   2.906   2.929   2.952   2.953   2.999   3.021
  3.102   3.140   3.145   3.232   3.237   3.257   3.278   3.322
  3.371   3.389   3.426   3.497   3.502   3.678   3.711   3.750
  3.912   4.074   4.123   4.207   4.247   5.056   5.104   5.131
  5.298   5.327   5.497   5.712   5.951   6.002  23.548  23.640
 23.854  23.949  24.351  49.994  50.054  50.146
 --------------------------------------------------------------
 
          Ground-State Mulliken Net Atomic Charges

     Atom                 Charge (a.u.)    Spin (a.u.)
  --------------------------------------------------------
      1 O                    -0.047963      -0.001884
      2 O                    -0.064520      -0.001595
      3 O                    -0.281320       0.000630
      4 C                    -0.369035      -0.099047
      5 C                     0.015350      -0.000556
      6 C                    -0.486270       1.119375
      7 C                    -0.516957       0.000062
      8 C                    -0.082498      -0.000545
      9 H                     0.287609       0.027987
     10 H                     0.291568       0.053487
     11 H                     0.288752      -0.000027
     12 H                     0.247367      -0.048025
     13 H                     0.246138      -0.049890
     14 H                     0.218542       0.000022
     15 H                     0.253237       0.000006
  --------------------------------------------------------
  Sum of atomic charges =    -0.000000
  Sum of spin   charges =     1.000000

 -----------------------------------------------------------------
                    Cartesian Multipole Moments
 -----------------------------------------------------------------
    Charge (ESU x 10^10)
                -0.0000
    Dipole Moment (Debye)
         X       0.8457      Y       0.3029      Z      -0.1204
       Tot       0.9063
    Quadrupole Moments (Debye-Ang)
        XX     -35.1201     XY      -0.7842     YY     -50.5299
        XZ      -0.0924     YZ      -0.7380     ZZ     -48.5632
    Octopole Moments (Debye-Ang^2)
       XXX       1.0570    XXY      -4.1823    XYY      -2.4587
       YYY       8.8542    XXZ       1.0047    XYZ      -1.6305
       YYZ      -0.9546    XZZ       4.2959    YZZ      -3.4242
       ZZZ      -0.1480
    Hexadecapole Moments (Debye-Ang^3)
      XXXX   -1323.7473   XXXY      -8.2549   XXYY    -267.4314
      XYYY      -2.0149   YYYY    -219.1598   XXXZ      10.8409
      XXYZ      -4.9625   XYYZ      -3.3977   YYYZ      -2.8880
      XXZZ    -293.4143   XYZZ      -3.5466   YYZZ     -46.6972
      XZZZ      -0.5653   YZZZ      -0.4055   ZZZZ     -57.4013
 -----------------------------------------------------------------
 Calculating MO derivatives via CPSCF
 D1JvT checksum  = 1031760 31454.1890868571
 D1KAT checksum  = 2249280 2780.6967929429
 D1JvT checksum  = 1031760 20062.5451123933
 D1KAT checksum  = 2249280 1209.9549311989
   1         3          45      0.229139    0.028175
   2         3          45      0.041956    0.007089
   3         3          45      0.005995    0.001079
   4         3          45      0.000895    0.000182
   5        14          34      0.000110    0.000021
   6        45           3      0.000006    0.000003
   7        48           0      0.000000    0.000000    Roots Converged
 Time for AOints: 152.3 s (CPU) 9.2 s (wall)
 ------------------------------------------------------------------------------
                     AOints        : Timing summary (seconds)
 ------------------------------------------------------------------------------
     job step          cpu (% of tot)      sys (% of tot)     wall (% of tot)
 ------------------------------------------------------------------------------
  cpscf_lag         0.1620E+04 (45.8)   0.1107E-01 (70.2)   0.3733E+03 (51.2)
  iterzp            0.1763E+04 (49.9)   0.3792E-02 (24.0)   0.3457E+03 (47.4)
  make_fx           0.0000E+00 ( 0.0)   0.0000E+00 ( 0.0)   0.0000E+00 ( 0.0)
  AOints            0.1523E+03 ( 4.3)   0.9050E-03 ( 5.7)   0.9232E+01 ( 1.3)
 ------------------------------------------------------------------------------
   Grand Totals     0.3536E+04          0.1577E-01          0.7286E+03
 ------------------------------------------------------------------------------
 Calculating analytic Hessian of the SCF energy
 Polarizability Matrix (a.u.)
            1           2           3
    1 -97.4153382   5.6326705  -0.4781897
    2   5.6326705 -66.1624912   0.0907347
    3  -0.4781897   0.0907347 -47.5375682
atom: 0 element: 8
atom: 1 element: 8
atom: 2 element: 8
atom: 3 element: 6
atom: 4 element: 6
atom: 5 element: 6
atom: 6 element: 6
atom: 7 element: 6
atom: 8 element: 1
atom: 9 element: 1
atom: 10 element: 1
atom: 11 element: 1
atom: 12 element: 1
atom: 13 element: 1
atom: 14 element: 1
 
 Direct stationary perturbation theory relativistic correction:
 
 rels  =       0.135434350993
 relv  =      -0.624400953605
 rel2e =       0.000000000000
 E_rel =      -0.488966602613
 
 Hessian of the SCF Energy
            1           2           3           4           5           6
    1   0.5803050   0.0501536  -0.0015025  -0.1121220  -0.0159818  -0.0008171
    2   0.0501536   0.3793093   0.0104280   0.0195742   0.0217443   0.0001991
    3  -0.0015025   0.0104280   0.0769242   0.0003866   0.0003615   0.0118198
    4  -0.1121220   0.0195742   0.0003866   0.6064716  -0.0335113   0.0003596
    5  -0.0159818   0.0217443   0.0003615  -0.0335113   0.3792236   0.0053417
    6  -0.0008171   0.0001991   0.0118198   0.0003596   0.0053417   0.0483533
    7  -0.0075483  -0.0564987  -0.0011930  -0.0067442   0.0528054   0.0011615
    8  -0.0521087  -0.0706244  -0.0025967   0.0528783  -0.0664337  -0.0020246
    9  -0.0015184  -0.0028460   0.0308941   0.0010929  -0.0019579   0.0274310
   10  -0.1476853   0.0412622   0.0030981   0.0097760  -0.0013120   0.0000761
   11   0.0732539  -0.1287560  -0.0009593  -0.0096070  -0.0025057  -0.0002498
   12   0.0064624   0.0001803  -0.0640368  -0.0007627  -0.0001008   0.0034746
   13   0.0112042   0.0014070   0.0000733  -0.2153987  -0.0557491  -0.0014394
   14   0.0111981  -0.0028155  -0.0001360  -0.0851521  -0.1588463  -0.0012779
   15   0.0001370  -0.0000163   0.0019377  -0.0019817  -0.0012256  -0.0402021
   16  -0.0473508  -0.0225861  -0.0015130  -0.0021368  -0.0010202  -0.0000051
   17   0.0181721   0.0161915   0.0002351   0.0022417   0.0008529   0.0000258
   18  -0.0028310  -0.0011753   0.0019016  -0.0002259  -0.0000316   0.0001283
   19  -0.0061468   0.0008611   0.0000304  -0.0699870   0.0184688  -0.0006118
   20  -0.0016135   0.0012434   0.0000526  -0.0213808   0.0238883  -0.0001164
   21  -0.0000373   0.0000042   0.0002725  -0.0007324   0.0001731   0.0083094
   22  -0.2293752  -0.0792210  -0.0018715  -0.1904527   0.0674497   0.0013561
   23  -0.1045216  -0.1890761  -0.0033743   0.0788112  -0.1856190  -0.0019604
   24  -0.0025037  -0.0035574  -0.0721475   0.0016915  -0.0021776  -0.0658876
   25  -0.0191510   0.0230426  -0.0253982  -0.0018283  -0.0004651   0.0007167
   26   0.0116758  -0.0126794   0.0108505   0.0009258   0.0000927   0.0000026
   27  -0.0037516  -0.0035901   0.0072864   0.0000252  -0.0006426  -0.0004157
   28  -0.0206579   0.0233894   0.0278864  -0.0019954  -0.0003142  -0.0007802
   29   0.0135532  -0.0131086  -0.0140426   0.0010639   0.0000411   0.0000898
   30   0.0048222   0.0004467   0.0047293   0.0001468   0.0006728  -0.0003698
   31  -0.0000096   0.0016350   0.0000458  -0.0140106  -0.0341226  -0.0000151
   32  -0.0009814   0.0002391   0.0000158  -0.0083478  -0.0117868  -0.0000509
   33  -0.0000436  -0.0000289   0.0001493  -0.0002323  -0.0004209   0.0046374
   34  -0.0040463  -0.0036602  -0.0002823  -0.0010596  -0.0001361   0.0000010
   35  -0.0044739  -0.0033161  -0.0002990  -0.0008377  -0.0001853  -0.0000128
   36   0.0021148  -0.0005085   0.0008065   0.0002769  -0.0000357  -0.0000332
   37   0.0033262   0.0006747   0.0002355   0.0000785   0.0002870  -0.0000142
   38   0.0009376   0.0017069  -0.0005293  -0.0002309   0.0001158   0.0000183
   39  -0.0005298   0.0004613  -0.0003095  -0.0000854  -0.0000299  -0.0000486
   40  -0.0008865   0.0002677   0.0000195  -0.0033934   0.0044574  -0.0000701
   41   0.0006423  -0.0001809  -0.0000118   0.0047322  -0.0020617   0.0000534
   42  -0.0000020   0.0000222  -0.0005616  -0.0000675   0.0000662   0.0107952
   43   0.0001441  -0.0003013  -0.0000151   0.0028027  -0.0008558   0.0000820
   44   0.0000941   0.0001223   0.0000054  -0.0011596   0.0014797  -0.0000378
   45   0.0000007  -0.0000194   0.0003337   0.0001084   0.0000073  -0.0079919
            7           8           9          10          11          12
    1  -0.0075483  -0.0521087  -0.0015184  -0.1476853   0.0732539   0.0064624
    2  -0.0564987  -0.0706244  -0.0028460   0.0412622  -0.1287560   0.0001803
    3  -0.0011930  -0.0025967   0.0308941   0.0030981  -0.0009593  -0.0640368
    4  -0.0067442   0.0528783   0.0010929   0.0097760  -0.0096070  -0.0007627
    5   0.0528054  -0.0664337  -0.0019579  -0.0013120  -0.0025057  -0.0001008
    6   0.0011615  -0.0020246   0.0274310   0.0000761  -0.0002498   0.0034746
    7   0.1251614   0.0133761   0.0005284   0.0048109  -0.0060142  -0.0005636
    8   0.0133761   0.8734266   0.0199452   0.0192861  -0.0084385  -0.0001478
    9   0.0005284   0.0199452   0.0393817   0.0003669  -0.0000797  -0.0034574
   10   0.0048109   0.0192861   0.0003669   0.4677712   0.0435120   0.0094738
   11  -0.0060142  -0.0084385  -0.0000797   0.0435120   0.5442803  -0.0265437
   12  -0.0005636  -0.0001478  -0.0034574   0.0094738  -0.0265437   0.5438577
   13   0.0040583  -0.0223322  -0.0004451  -0.0036510   0.0011188   0.0001446
   14   0.0026937  -0.0120014  -0.0002102  -0.0012568   0.0020505   0.0000547
   15   0.0002316  -0.0001117  -0.0001405  -0.0000481  -0.0000698   0.0017896
   16   0.0007040  -0.0018961   0.0000978  -0.1664403  -0.0769725  -0.0088867
   17  -0.0014340   0.0020078   0.0000692  -0.0949035  -0.1710447   0.0106410
   18   0.0002076   0.0001460   0.0005465  -0.0093125   0.0103563  -0.0497257
   19  -0.0007475   0.0061765   0.0001307   0.0013943  -0.0009393  -0.0000749
   20   0.0030701   0.0029451   0.0000114  -0.0001036  -0.0003197  -0.0000013
   21  -0.0000117   0.0000767   0.0001281   0.0000174  -0.0000140   0.0000179
   22  -0.1166803  -0.0136323  -0.0001155  -0.0665727  -0.0095736   0.0006317
   23  -0.0121090  -0.7256160  -0.0150012  -0.0098762   0.0230384   0.0004724
   24  -0.0003917  -0.0151135  -0.0936387   0.0002423   0.0015601  -0.0030617
   25  -0.0001228  -0.0031667   0.0003845  -0.0505438   0.0003355   0.0016158
   26   0.0000706   0.0012088  -0.0001307   0.0078532  -0.1390299   0.1256140
   27   0.0011181  -0.0018945   0.0001013  -0.0094964   0.1257223  -0.2126432
   28  -0.0002127  -0.0031048  -0.0005771  -0.0450964  -0.0060085  -0.0120103
   29   0.0001580   0.0011794   0.0001801   0.0049383  -0.1174523  -0.1139767
   30  -0.0010572   0.0020437   0.0002949   0.0054755  -0.1085872  -0.2219347
   31  -0.0012940   0.0043709   0.0000692  -0.0000887   0.0000939  -0.0000086
   32   0.0039058   0.0016296   0.0000289   0.0002857  -0.0001286  -0.0000076
   33   0.0000602  -0.0000180  -0.0010526   0.0000159   0.0000000   0.0000127
   34  -0.0002494  -0.0006533   0.0000101  -0.0099873   0.0114517  -0.0031987
   35   0.0000428  -0.0002097   0.0000121  -0.0169362   0.0105011  -0.0040955
   36   0.0000387  -0.0000434  -0.0001252  -0.0006323   0.0019524   0.0009362
   37  -0.0005209   0.0008238  -0.0000359   0.0061818  -0.0205170   0.0071851
   38  -0.0001606   0.0005789  -0.0000284   0.0073032  -0.0122968   0.0079030
   39  -0.0001055  -0.0002418  -0.0000201   0.0007264  -0.0030954   0.0048893
   40  -0.0000991   0.0007679   0.0000212   0.0002068  -0.0001832  -0.0000094
   41  -0.0001246  -0.0003097  -0.0000024  -0.0000401   0.0000942   0.0000047
   42   0.0000193  -0.0000012  -0.0001373   0.0000006   0.0000161  -0.0003087
   43  -0.0005155  -0.0007855  -0.0000098  -0.0000757   0.0000494   0.0000015
   44   0.0002187   0.0006571   0.0000093  -0.0000124   0.0000075   0.0000033
   45  -0.0000428  -0.0000184  -0.0002058  -0.0000037  -0.0000084   0.0001903
           13          14          15          16          17          18
    1   0.0112042   0.0111981   0.0001370  -0.0473508   0.0181721  -0.0028310
    2   0.0014070  -0.0028155  -0.0000163  -0.0225861   0.0161915  -0.0011753
    3   0.0000733  -0.0001360   0.0019377  -0.0015130   0.0002351   0.0019016
    4  -0.2153987  -0.0851521  -0.0019817  -0.0021368   0.0022417  -0.0002259
    5  -0.0557491  -0.1588463  -0.0012256  -0.0010202   0.0008529  -0.0000316
    6  -0.0014394  -0.0012779  -0.0402021  -0.0000051   0.0000258   0.0001283
    7   0.0040583   0.0026937   0.0002316   0.0007040  -0.0014340   0.0002076
    8  -0.0223322  -0.0120014  -0.0001117  -0.0018961   0.0020078   0.0001460
    9  -0.0004451  -0.0002102  -0.0001405   0.0000978   0.0000692   0.0005465
   10  -0.0036510  -0.0012568  -0.0000481  -0.1664403  -0.0949035  -0.0093125
   11   0.0011188   0.0020505  -0.0000698  -0.0769725  -0.1710447   0.0103563
   12   0.0001446   0.0000547   0.0017896  -0.0088867   0.0106410  -0.0497257
   13   0.7584512  -0.1940274   0.0056392   0.0001291  -0.0004048  -0.0000437
   14  -0.1940274   0.7839385  -0.0021822   0.0004485  -0.0005060   0.0000200
   15   0.0056392  -0.0021822   0.1291027   0.0000409  -0.0000175   0.0000599
   16   0.0001291   0.0004485   0.0000409   0.5934041  -0.0187825   0.1028371
   17  -0.0004048  -0.0005060  -0.0000175  -0.0187825   0.5871689  -0.1327281
   18  -0.0000437   0.0000200   0.0000599   0.1028371  -0.1327281   0.1016425
   19  -0.4119089   0.2292536  -0.0036645  -0.0001960   0.0002592  -0.0000037
   20   0.2342533  -0.2919867   0.0025814  -0.0001006   0.0000942  -0.0000228
   21  -0.0037020   0.0025837  -0.0520902  -0.0000087   0.0000234   0.0000329
   22  -0.0799383   0.0092935   0.0000788  -0.0029914   0.0004256  -0.0005700
   23   0.0194706   0.0339882   0.0004112   0.0052753  -0.0063625   0.0002515
   24   0.0002161   0.0006296  -0.0059923  -0.0000663  -0.0003936  -0.0002134
   25   0.0005780   0.0002454   0.0003294   0.0045571  -0.0165062   0.0155490
   26  -0.0003376  -0.0001159  -0.0001244  -0.0029503  -0.0174366   0.0144197
   27  -0.0000318   0.0000467  -0.0000580   0.0014714  -0.0025316   0.0046717
   28   0.0006385   0.0002781  -0.0003154  -0.0007782  -0.0158451  -0.0154907
   29  -0.0003611  -0.0001345   0.0001465  -0.0081966  -0.0149825  -0.0147888
   30  -0.0000194  -0.0000593  -0.0000231  -0.0051501  -0.0016063   0.0047191
   31  -0.0541186   0.0140499  -0.0002657  -0.0000301   0.0000338  -0.0000037
   32   0.0048724  -0.3492973   0.0004497  -0.0000330   0.0000410  -0.0000036
   33  -0.0001577   0.0003945  -0.0413518   0.0000035  -0.0000082  -0.0000399
   34   0.0003662   0.0002188   0.0000154  -0.3155145   0.0769024  -0.0647628
   35   0.0001327   0.0001588   0.0000067   0.0808429  -0.0803921   0.0298613
   36  -0.0000226  -0.0000207  -0.0000159  -0.0629350   0.0280061  -0.0248502
   37  -0.0000792  -0.0000457  -0.0000153  -0.0633293   0.0498147  -0.0253430
   38   0.0000526   0.0000204   0.0000142   0.0459437  -0.3155990   0.0936860
   39   0.0000408   0.0000129   0.0000277  -0.0258884   0.0982983  -0.0388364
   40  -0.0161953  -0.0161136  -0.0000845  -0.0000416   0.0000381  -0.0000027
   41   0.0170045   0.0105991   0.0001311   0.0000257  -0.0000320   0.0000068
   42  -0.0002083  -0.0001463  -0.0014977  -0.0000047  -0.0000029  -0.0000145
   43   0.0058645   0.0289160  -0.0000973   0.0000147  -0.0000115  -0.0000040
   44  -0.0050996  -0.0150520   0.0000067   0.0000018  -0.0000008   0.0000026
   45  -0.0000440   0.0002903   0.0084540   0.0000073  -0.0000107  -0.0000223
           19          20          21          22          23          24
    1  -0.0061468  -0.0016135  -0.0000373  -0.2293752  -0.1045216  -0.0025037
    2   0.0008611   0.0012434   0.0000042  -0.0792210  -0.1890761  -0.0035574
    3   0.0000304   0.0000526   0.0002725  -0.0018715  -0.0033743  -0.0721475
    4  -0.0699870  -0.0213808  -0.0007324  -0.1904527   0.0788112   0.0016915
    5   0.0184688   0.0238883   0.0001731   0.0674497  -0.1856190  -0.0021776
    6  -0.0006118  -0.0001164   0.0083094   0.0013561  -0.0019604  -0.0658876
    7  -0.0007475   0.0030701  -0.0000117  -0.1166803  -0.0121090  -0.0003917
    8   0.0061765   0.0029451   0.0000767  -0.0136323  -0.7256160  -0.0151135
    9   0.0001307   0.0000114   0.0001281  -0.0001155  -0.0150012  -0.0936387
   10   0.0013943  -0.0001036   0.0000174  -0.0665727  -0.0098762   0.0002423
   11  -0.0009393  -0.0003197  -0.0000140  -0.0095736   0.0230384   0.0015601
   12  -0.0000749  -0.0000013   0.0000179   0.0006317   0.0004724  -0.0030617
   13  -0.4119089   0.2342533  -0.0037020  -0.0799383   0.0194706   0.0002161
   14   0.2292536  -0.2919867   0.0025837   0.0092935   0.0339882   0.0006296
   15  -0.0036645   0.0025814  -0.0520902   0.0000788   0.0004112  -0.0059923
   16  -0.0001960  -0.0001006  -0.0000087  -0.0029914   0.0052753  -0.0000663
   17   0.0002592   0.0000942   0.0000234   0.0004256  -0.0063625  -0.0003936
   18  -0.0000037  -0.0000228   0.0000329  -0.0005700   0.0002515  -0.0002134
   19   0.8246970  -0.1037110   0.0064894   0.0107059  -0.0150749  -0.0002651
   20  -0.1037110   0.7418679  -0.0025113  -0.0030131  -0.0081414  -0.0001939
   21   0.0064894  -0.0025113   0.0980418   0.0001164  -0.0001706   0.0003189
   22   0.0107059  -0.0030131   0.0001164   0.6606404   0.0317833   0.0005768
   23  -0.0150749  -0.0081414  -0.0001706   0.0317833   1.0637866   0.0197610
   24  -0.0002651  -0.0001939   0.0003189   0.0005768   0.0197610   0.2359775
   25  -0.0002389  -0.0000284  -0.0000164   0.0049090   0.0087199  -0.0024139
   26   0.0001221   0.0000034  -0.0000046  -0.0033935  -0.0018398  -0.0000312
   27  -0.0000030  -0.0000366   0.0000123   0.0009871   0.0037937   0.0010600
   28  -0.0002618  -0.0000275   0.0000079   0.0051851   0.0085691   0.0031333
   29   0.0001366   0.0000035   0.0000084  -0.0035794  -0.0018356  -0.0003331
   30   0.0000238   0.0000354   0.0000149  -0.0015160  -0.0042873   0.0006680
   31   0.0055752   0.0246985  -0.0000607   0.0032690  -0.0104392  -0.0001554
   32  -0.0022865  -0.0066947  -0.0000167   0.0032225  -0.0040027  -0.0001313
   33  -0.0000813   0.0003568   0.0075462   0.0000725  -0.0000195   0.0007516
   34  -0.0001435  -0.0000142   0.0000045   0.0011847   0.0015029  -0.0000349
   35  -0.0000842  -0.0000332  -0.0000083  -0.0000854   0.0014600   0.0000518
   36   0.0000211   0.0000073  -0.0000238   0.0001143   0.0000109   0.0004859
   37   0.0000315   0.0000051  -0.0000001  -0.0002576  -0.0014901   0.0000031
   38  -0.0000236   0.0000026  -0.0000100   0.0001194  -0.0004570  -0.0000800
   39  -0.0000145   0.0000056  -0.0000286   0.0002022   0.0000889  -0.0000857
   40  -0.2938612  -0.1135678  -0.0018943   0.0008093  -0.0020491  -0.0000910
   41  -0.1211995  -0.1164868  -0.0008223  -0.0000180   0.0014489   0.0000320
   42  -0.0018040  -0.0007680  -0.0290882  -0.0000904  -0.0000476   0.0028636
   43  -0.0589121  -0.0184666  -0.0001720  -0.0004353   0.0014279   0.0000589
   44  -0.0119590  -0.3463860   0.0006882   0.0002223  -0.0007721  -0.0000230
   45  -0.0001725   0.0005998  -0.0334640   0.0000273   0.0000716  -0.0010985
           25          26          27          28          29          30
    1  -0.0191510   0.0116758  -0.0037516  -0.0206579   0.0135532   0.0048222
    2   0.0230426  -0.0126794  -0.0035901   0.0233894  -0.0131086   0.0004467
    3  -0.0253982   0.0108505   0.0072864   0.0278864  -0.0140426   0.0047293
    4  -0.0018283   0.0009258   0.0000252  -0.0019954   0.0010639   0.0001468
    5  -0.0004651   0.0000927  -0.0006426  -0.0003142   0.0000411   0.0006728
    6   0.0007167   0.0000026  -0.0004157  -0.0007802   0.0000898  -0.0003698
    7  -0.0001228   0.0000706   0.0011181  -0.0002127   0.0001580  -0.0010572
    8  -0.0031667   0.0012088  -0.0018945  -0.0031048   0.0011794   0.0020437
    9   0.0003845  -0.0001307   0.0001013  -0.0005771   0.0001801   0.0002949
   10  -0.0505438   0.0078532  -0.0094964  -0.0450964   0.0049383   0.0054755
   11   0.0003355  -0.1390299   0.1257223  -0.0060085  -0.1174523  -0.1085872
   12   0.0016158   0.1256140  -0.2126432  -0.0120103  -0.1139767  -0.2219347
   13   0.0005780  -0.0003376  -0.0000318   0.0006385  -0.0003611  -0.0000194
   14   0.0002454  -0.0001159   0.0000467   0.0002781  -0.0001345  -0.0000593
   15   0.0003294  -0.0001244  -0.0000580  -0.0003154   0.0001465  -0.0000231
   16   0.0045571  -0.0029503   0.0014714  -0.0007782  -0.0081966  -0.0051501
   17  -0.0165062  -0.0174366  -0.0025316  -0.0158451  -0.0149825  -0.0016063
   18   0.0155490   0.0144197   0.0046717  -0.0154907  -0.0147888   0.0047191
   19  -0.0002389   0.0001221  -0.0000030  -0.0002618   0.0001366   0.0000238
   20  -0.0000284   0.0000034  -0.0000366  -0.0000275   0.0000035   0.0000354
   21  -0.0000164  -0.0000046   0.0000123   0.0000079   0.0000084   0.0000149
   22   0.0049090  -0.0033935   0.0009871   0.0051851  -0.0035794  -0.0015160
   23   0.0087199  -0.0018398   0.0037937   0.0085691  -0.0018356  -0.0042873
   24  -0.0024139  -0.0000312   0.0010600   0.0031333  -0.0003331   0.0006680
   25   0.0613233  -0.0099721   0.0098127   0.0031504  -0.0008444  -0.0005921
   26  -0.0099721   0.1591172  -0.1366108  -0.0012553   0.0111757  -0.0140413
   27   0.0098127  -0.1366108   0.2236804  -0.0005979   0.0164334  -0.0234511
   28   0.0031504  -0.0012553  -0.0005979   0.0613678  -0.0057021  -0.0019083
   29  -0.0008444   0.0111757   0.0164334  -0.0057021   0.1360102   0.1260897
   30  -0.0005921  -0.0140413  -0.0234511  -0.0019083   0.1260897   0.2365179
   31  -0.0001057   0.0000041  -0.0000285  -0.0000989   0.0000020   0.0000355
   32  -0.0000358   0.0000354  -0.0000128  -0.0000392   0.0000338   0.0000158
   33  -0.0000272   0.0000160  -0.0000055   0.0000208  -0.0000140  -0.0000106
   34   0.0002925  -0.0001381   0.0005050  -0.0003223  -0.0004994  -0.0002851
   35   0.0006347   0.0005541   0.0007023   0.0005374  -0.0005092  -0.0006448
   36  -0.0002454  -0.0009511   0.0004765   0.0008355  -0.0001499   0.0000600
   37  -0.0028127  -0.0026162  -0.0000182  -0.0009067  -0.0006840   0.0000311
   38  -0.0019687  -0.0010758  -0.0013760  -0.0004890  -0.0004085  -0.0000793
   39   0.0003041   0.0009734  -0.0007135  -0.0002251   0.0003794  -0.0012096
   40  -0.0000281   0.0000192  -0.0000021  -0.0000320   0.0000215   0.0000043
   41   0.0000153  -0.0000074   0.0000027   0.0000171  -0.0000090  -0.0000039
   42  -0.0000590   0.0000065   0.0000166   0.0000605  -0.0000125   0.0000121
   43   0.0000208  -0.0000077   0.0000100   0.0000205  -0.0000066  -0.0000109
   44  -0.0000060  -0.0000025  -0.0000059  -0.0000052  -0.0000036   0.0000054
   45   0.0000401   0.0000114  -0.0000182  -0.0000394  -0.0000097  -0.0000173
           31          32          33          34          35          36
    1  -0.0000096  -0.0009814  -0.0000436  -0.0040463  -0.0044739   0.0021148
    2   0.0016350   0.0002391  -0.0000289  -0.0036602  -0.0033161  -0.0005085
    3   0.0000458   0.0000158   0.0001493  -0.0002823  -0.0002990   0.0008065
    4  -0.0140106  -0.0083478  -0.0002323  -0.0010596  -0.0008377   0.0002769
    5  -0.0341226  -0.0117868  -0.0004209  -0.0001361  -0.0001853  -0.0000357
    6  -0.0000151  -0.0000509   0.0046374   0.0000010  -0.0000128  -0.0000332
    7  -0.0012940   0.0039058   0.0000602  -0.0002494   0.0000428   0.0000387
    8   0.0043709   0.0016296  -0.0000180  -0.0006533  -0.0002097  -0.0000434
    9   0.0000692   0.0000289  -0.0010526   0.0000101   0.0000121  -0.0001252
   10  -0.0000887   0.0002857   0.0000159  -0.0099873  -0.0169362  -0.0006323
   11   0.0000939  -0.0001286   0.0000000   0.0114517   0.0105011   0.0019524
   12  -0.0000086  -0.0000076   0.0000127  -0.0031987  -0.0040955   0.0009362
   13  -0.0541186   0.0048724  -0.0001577   0.0003662   0.0001327  -0.0000226
   14   0.0140499  -0.3492973   0.0003945   0.0002188   0.0001588  -0.0000207
   15  -0.0002657   0.0004497  -0.0413518   0.0000154   0.0000067  -0.0000159
   16  -0.0000301  -0.0000330   0.0000035  -0.3155145   0.0808429  -0.0629350
   17   0.0000338   0.0000410  -0.0000082   0.0769024  -0.0803921   0.0280061
   18  -0.0000037  -0.0000036  -0.0000399  -0.0647628   0.0298613  -0.0248502
   19   0.0055752  -0.0022865  -0.0000813  -0.0001435  -0.0000842   0.0000211
   20   0.0246985  -0.0066947   0.0003568  -0.0000142  -0.0000332   0.0000073
   21  -0.0000607  -0.0000167   0.0075462   0.0000045  -0.0000083  -0.0000238
   22   0.0032690   0.0032225   0.0000725   0.0011847  -0.0000854   0.0001143
   23  -0.0104392  -0.0040027  -0.0000195   0.0015029   0.0014600   0.0000109
   24  -0.0001554  -0.0001313   0.0007516  -0.0000349   0.0000518   0.0004859
   25  -0.0001057  -0.0000358  -0.0000272   0.0002925   0.0006347  -0.0002454
   26   0.0000041   0.0000354   0.0000160  -0.0001381   0.0005541  -0.0009511
   27  -0.0000285  -0.0000128  -0.0000055   0.0005050   0.0007023   0.0004765
   28  -0.0000989  -0.0000392   0.0000208  -0.0003223   0.0005374   0.0008355
   29   0.0000020   0.0000338  -0.0000140  -0.0004994  -0.0005092  -0.0001499
   30   0.0000355   0.0000158  -0.0000106  -0.0002851  -0.0006448   0.0000600
   31   0.0639543  -0.0023074   0.0004562  -0.0000057  -0.0000050   0.0000014
   32  -0.0023074   0.3690689  -0.0002957  -0.0000210  -0.0000103   0.0000034
   33   0.0004562  -0.0002957   0.0252449  -0.0000038   0.0000017   0.0000095
   34  -0.0000057  -0.0000210  -0.0000038   0.3282679  -0.0829844   0.0674588
   35  -0.0000050  -0.0000103   0.0000017  -0.0829844   0.0725978  -0.0292345
   36   0.0000014   0.0000034   0.0000095   0.0674588  -0.0292345   0.0209152
   37   0.0000268   0.0000157  -0.0000006   0.0012309   0.0232307  -0.0070319
   38   0.0000084   0.0000008   0.0000060  -0.0019813  -0.0006311   0.0009689
   39  -0.0000048  -0.0000036   0.0000113   0.0005778   0.0036523   0.0013433
   40   0.0003698   0.0005489   0.0000582  -0.0000209  -0.0000141   0.0000049
   41  -0.0002355   0.0004586  -0.0000227   0.0000109   0.0000122  -0.0000036
   42   0.0000547   0.0000148  -0.0064933  -0.0000025   0.0000007   0.0000099
   43  -0.0034334   0.0012010  -0.0001410   0.0000072  -0.0000003   0.0000007
   44   0.0022130   0.0004132   0.0000529   0.0000014   0.0000030  -0.0000015
   45  -0.0001203  -0.0000060   0.0105909  -0.0000025   0.0000060   0.0000055
           37          38          39          40          41          42
    1   0.0033262   0.0009376  -0.0005298  -0.0008865   0.0006423  -0.0000020
    2   0.0006747   0.0017069   0.0004613   0.0002677  -0.0001809   0.0000222
    3   0.0002355  -0.0005293  -0.0003095   0.0000195  -0.0000118  -0.0005616
    4   0.0000785  -0.0002309  -0.0000854  -0.0033934   0.0047322  -0.0000675
    5   0.0002870   0.0001158  -0.0000299   0.0044574  -0.0020617   0.0000662
    6  -0.0000142   0.0000183  -0.0000486  -0.0000701   0.0000534   0.0107952
    7  -0.0005209  -0.0001606  -0.0001055  -0.0000991  -0.0001246   0.0000193
    8   0.0008238   0.0005789  -0.0002418   0.0007679  -0.0003097  -0.0000012
    9  -0.0000359  -0.0000284  -0.0000201   0.0000212  -0.0000024  -0.0001373
   10   0.0061818   0.0073032   0.0007264   0.0002068  -0.0000401   0.0000006
   11  -0.0205170  -0.0122968  -0.0030954  -0.0001832   0.0000942   0.0000161
   12   0.0071851   0.0079030   0.0048893  -0.0000094   0.0000047  -0.0003087
   13  -0.0000792   0.0000526   0.0000408  -0.0161953   0.0170045  -0.0002083
   14  -0.0000457   0.0000204   0.0000129  -0.0161136   0.0105991  -0.0001463
   15  -0.0000153   0.0000142   0.0000277  -0.0000845   0.0001311  -0.0014977
   16  -0.0633293   0.0459437  -0.0258884  -0.0000416   0.0000257  -0.0000047
   17   0.0498147  -0.3155990   0.0982983   0.0000381  -0.0000320  -0.0000029
   18  -0.0253430   0.0936860  -0.0388364  -0.0000027   0.0000068  -0.0000145
   19   0.0000315  -0.0000236  -0.0000145  -0.2938612  -0.1211995  -0.0018040
   20   0.0000051   0.0000026   0.0000056  -0.1135678  -0.1164868  -0.0007680
   21  -0.0000001  -0.0000100  -0.0000286  -0.0018943  -0.0008223  -0.0290882
   22  -0.0002576   0.0001194   0.0002022   0.0008093  -0.0000180  -0.0000904
   23  -0.0014901  -0.0004570   0.0000889  -0.0020491   0.0014489  -0.0000476
   24   0.0000031  -0.0000800  -0.0000857  -0.0000910   0.0000320   0.0028636
   25  -0.0028127  -0.0019687   0.0003041  -0.0000281   0.0000153  -0.0000590
   26  -0.0026162  -0.0010758   0.0009734   0.0000192  -0.0000074   0.0000065
   27  -0.0000182  -0.0013760  -0.0007135  -0.0000021   0.0000027   0.0000166
   28  -0.0009067  -0.0004890  -0.0002251  -0.0000320   0.0000171   0.0000605
   29  -0.0006840  -0.0004085   0.0003794   0.0000215  -0.0000090  -0.0000125
   30   0.0000311  -0.0000793  -0.0012096   0.0000043  -0.0000039   0.0000121
   31   0.0000268   0.0000084  -0.0000048   0.0003698  -0.0002355   0.0000547
   32   0.0000157   0.0000008  -0.0000036   0.0005489   0.0004586   0.0000148
   33  -0.0000006   0.0000060   0.0000113   0.0000582  -0.0000227  -0.0064933
   34   0.0012309  -0.0019813   0.0005778  -0.0000209   0.0000109  -0.0000025
   35   0.0232307  -0.0006311   0.0036523  -0.0000141   0.0000122   0.0000007
   36  -0.0070319   0.0009689   0.0013433   0.0000049  -0.0000036   0.0000099
   37   0.0570384  -0.0495055   0.0250014   0.0000052   0.0000024   0.0000018
   38  -0.0495055   0.3280364  -0.1004988  -0.0000026   0.0000025  -0.0000004
   39   0.0250014  -0.1004988   0.0349630  -0.0000031  -0.0000014   0.0000029
   40   0.0000052  -0.0000026  -0.0000031   0.3093494   0.1235896   0.0020295
   41   0.0000024   0.0000025  -0.0000014   0.1235896   0.1119671   0.0008208
   42   0.0000018  -0.0000004   0.0000029   0.0020295   0.0008208   0.0230736
   43  -0.0000129  -0.0000028   0.0000041   0.0038175  -0.0244223   0.0000723
   44   0.0000044   0.0000037  -0.0000010   0.0022200  -0.0054952   0.0000316
   45   0.0000014   0.0000059   0.0000146   0.0000195  -0.0001834   0.0013275
           43          44          45
    1   0.0001441   0.0000941   0.0000007
    2  -0.0003013   0.0001223  -0.0000194
    3  -0.0000151   0.0000054   0.0003337
    4   0.0028027  -0.0011596   0.0001084
    5  -0.0008558   0.0014797   0.0000073
    6   0.0000820  -0.0000378  -0.0079919
    7  -0.0005155   0.0002187  -0.0000428
    8  -0.0007855   0.0006571  -0.0000184
    9  -0.0000098   0.0000093  -0.0002058
   10  -0.0000757  -0.0000124  -0.0000037
   11   0.0000494   0.0000075  -0.0000084
   12   0.0000015   0.0000033   0.0001903
   13   0.0058645  -0.0050996  -0.0000440
   14   0.0289160  -0.0150520   0.0002903
   15  -0.0000973   0.0000067   0.0084540
   16   0.0000147   0.0000018   0.0000073
   17  -0.0000115  -0.0000008  -0.0000107
   18  -0.0000040   0.0000026  -0.0000223
   19  -0.0589121  -0.0119590  -0.0001725
   20  -0.0184666  -0.3463860   0.0005998
   21  -0.0001720   0.0006882  -0.0334640
   22  -0.0004353   0.0002223   0.0000273
   23   0.0014279  -0.0007721   0.0000716
   24   0.0000589  -0.0000230  -0.0010985
   25   0.0000208  -0.0000060   0.0000401
   26  -0.0000077  -0.0000025   0.0000114
   27   0.0000100  -0.0000059  -0.0000182
   28   0.0000205  -0.0000052  -0.0000394
   29  -0.0000066  -0.0000036  -0.0000097
   30  -0.0000109   0.0000054  -0.0000173
   31  -0.0034334   0.0022130  -0.0001203
   32   0.0012010   0.0004132  -0.0000060
   33  -0.0001410   0.0000529   0.0105909
   34   0.0000072   0.0000014  -0.0000025
   35  -0.0000003   0.0000030   0.0000060
   36   0.0000007  -0.0000015   0.0000055
   37  -0.0000129   0.0000044   0.0000014
   38  -0.0000028   0.0000037   0.0000059
   39   0.0000041  -0.0000010   0.0000146
   40   0.0038175   0.0022200   0.0000195
   41  -0.0244223  -0.0054952  -0.0001834
   42   0.0000723   0.0000316   0.0013275
   43   0.0506929   0.0132661   0.0002206
   44   0.0132661   0.3650257  -0.0007361
   45   0.0002206  -0.0007361   0.0219015
 Gradient time:  CPU 4213.48 s  wall 1094.63 s
 **********************************************************************
 **                                                                  **
 **                       VIBRATIONAL ANALYSIS                       **
 **                       --------------------                       **
 **                                                                  **
 **        VIBRATIONAL FREQUENCIES (CM**-1) AND NORMAL MODES         **
 **     FORCE CONSTANTS (mDYN/ANGSTROM) AND REDUCED MASSES (AMU)     **
 **                  INFRARED INTENSITIES (KM/MOL)                   **
 **                                                                  **
 **********************************************************************
 

 Mode:                 1                      2                      3
 Frequency:       -26.25                  63.75                  84.33
 Force Cnst:      0.0006                 0.0092                 0.0066
 Red. Mass:       1.4429                 3.8298                 1.5813
 IR Active:          YES                    YES                    YES
 IR Intens:        0.765                  0.331                  1.007
 Raman Active:       YES                    YES                    YES
               X      Y      Z        X      Y      Z        X      Y      Z
 O          0.002 -0.007 -0.069   -0.002  0.014 -0.196   -0.002  0.013 -0.047
 O          0.004 -0.002 -0.018   -0.004  0.006 -0.224   -0.005  0.006  0.030
 O         -0.003 -0.008  0.079    0.004  0.004  0.079    0.000  0.011 -0.029
 C         -0.001  0.002 -0.113    0.000 -0.001  0.046   -0.001  0.002 -0.086
 C          0.001  0.003  0.039   -0.001 -0.004 -0.055   -0.001 -0.006  0.147
 C         -0.006  0.005  0.094    0.009 -0.014  0.191    0.012 -0.017  0.102
 C          0.005  0.008 -0.024   -0.011 -0.012  0.274   -0.007 -0.018 -0.075
 C          0.000 -0.007  0.005    0.000  0.008 -0.100   -0.001  0.011 -0.019
 H         -0.038 -0.131 -0.213   -0.152  0.038  0.085   -0.038 -0.117 -0.186
 H          0.049  0.130 -0.200    0.140 -0.035  0.072    0.018  0.141 -0.183
 H         -0.005  0.003  0.135    0.010 -0.003 -0.216    0.007 -0.006  0.431
 H          0.050 -0.093 -0.305   -0.059  0.008  0.540   -0.076  0.017  0.556
 H         -0.132  0.207  0.802    0.139 -0.090 -0.124    0.193 -0.135 -0.380
 H          0.003  0.013  0.022   -0.007 -0.021  0.370   -0.003 -0.029  0.044
 H          0.011  0.008 -0.124   -0.022 -0.011  0.443   -0.017 -0.019 -0.376
 TransDip  -0.025  0.012  0.004    0.011 -0.004  0.014    0.031 -0.006 -0.005

 Mode:                 4                      5                      6
 Frequency:       112.81                 139.70                 178.62
 Force Cnst:      0.0152                 0.0410                 0.0947
 Red. Mass:       2.0310                 3.5635                 5.0376
 IR Active:          YES                    YES                    YES
 IR Intens:       10.550                  2.001                  0.431
 Raman Active:       YES                    YES                    YES
               X      Y      Z        X      Y      Z        X      Y      Z
 O          0.002 -0.003 -0.040   -0.021 -0.126 -0.000    0.003 -0.007  0.363
 O          0.004  0.003 -0.074    0.035 -0.107 -0.018    0.001  0.016 -0.352
 O         -0.002  0.002 -0.125   -0.017 -0.150 -0.006   -0.004  0.007  0.014
 C         -0.001 -0.007  0.168    0.057  0.036 -0.009   -0.000  0.001 -0.090
 C          0.002  0.001  0.160   -0.028  0.049  0.019    0.003  0.002  0.036
 C         -0.004  0.001 -0.016   -0.121  0.235  0.019    0.006 -0.008 -0.045
 C          0.002 -0.001  0.009    0.092  0.226  0.007   -0.010 -0.017  0.070
 C          0.000  0.001 -0.087   -0.000 -0.152 -0.009    0.000  0.007  0.020
 H         -0.049  0.200  0.345    0.161  0.029 -0.023    0.195 -0.263 -0.321
 H          0.054 -0.236  0.330    0.151  0.069 -0.030   -0.203  0.285 -0.293
 H          0.001  0.001  0.478   -0.182  0.046  0.059    0.015  0.002  0.309
 H          0.053 -0.017 -0.310   -0.090  0.472  0.206    0.008 -0.022 -0.074
 H         -0.125  0.071  0.275   -0.276  0.145 -0.173    0.025 -0.015 -0.080
 H          0.001 -0.003  0.226    0.009  0.399  0.039   -0.003 -0.035  0.382
 H          0.003 -0.002 -0.333    0.288  0.217 -0.035   -0.028 -0.017 -0.225
 TransDip  -0.023 -0.002  0.101    0.015  0.043  0.002    0.008  0.001 -0.019

 Mode:                 7                      8                      9
 Frequency:       278.07                 380.63                 424.72
 Force Cnst:      0.1774                 0.2882                 0.1649
 Red. Mass:       3.8946                 3.3765                 1.5515
 IR Active:          YES                    YES                    YES
 IR Intens:       13.484                  9.603                 51.018
 Raman Active:       YES                    YES                    YES
               X      Y      Z        X      Y      Z        X      Y      Z
 O         -0.085  0.149  0.008    0.020 -0.051 -0.006    0.032 -0.007  0.013
 O         -0.081 -0.176 -0.010   -0.059 -0.036  0.002   -0.027 -0.013 -0.001
 O          0.247 -0.021 -0.002   -0.122 -0.060 -0.000    0.071  0.001 -0.002
 C         -0.111  0.100  0.007    0.168  0.136  0.013    0.048 -0.036 -0.010
 C         -0.120 -0.083  0.004   -0.123  0.035  0.000   -0.072  0.042  0.001
 C          0.071 -0.110  0.002    0.288  0.064  0.034    0.050 -0.028 -0.121
 C          0.041  0.157  0.001   -0.151  0.015 -0.002   -0.102  0.019  0.000
 C          0.011 -0.016  0.000   -0.030 -0.061 -0.002    0.014  0.000  0.004
 H         -0.176  0.079 -0.005    0.209  0.119 -0.003    0.082  0.052  0.060
 H         -0.166  0.088  0.013    0.247  0.150  0.004   -0.029 -0.130  0.059
 H         -0.260 -0.088  0.021   -0.167  0.034  0.001   -0.100  0.040  0.002
 H          0.015 -0.401 -0.144    0.275 -0.247 -0.315   -0.055  0.239  0.721
 H          0.332 -0.064 -0.005    0.545  0.061 -0.128   -0.109  0.140  0.508
 H         -0.091  0.430  0.013   -0.124 -0.046 -0.002   -0.075 -0.041  0.002
 H          0.353  0.143 -0.015   -0.230  0.019 -0.003   -0.177  0.022 -0.004
 TransDip  -0.117  0.005 -0.014    0.083 -0.008 -0.054   -0.053  0.053  0.216

 Mode:                10                     11                     12
 Frequency:       445.90                 522.94                 728.50
 Force Cnst:      0.3245                 0.5547                 0.4789
 Red. Mass:       2.7700                 3.4430                 1.5314
 IR Active:          YES                    YES                    YES
 IR Intens:       17.239                  3.273                  7.300
 Raman Active:       YES                    YES                    YES
               X      Y      Z        X      Y      Z        X      Y      Z
 O          0.046 -0.037 -0.012   -0.141  0.015  0.005    0.003  0.006 -0.007
 O          0.014  0.018  0.005    0.137  0.033  0.002    0.003 -0.007  0.074
 O          0.206 -0.020  0.001    0.019 -0.155 -0.005   -0.005  0.001 -0.003
 C          0.018 -0.092  0.002   -0.157  0.166  0.003   -0.001 -0.000 -0.001
 C         -0.068  0.157  0.002    0.145  0.189  0.002    0.002  0.002 -0.196
 C         -0.101  0.016  0.096    0.010 -0.030 -0.047   -0.001 -0.001  0.001
 C         -0.188  0.019 -0.003    0.000 -0.025 -0.000   -0.001  0.001  0.033
 C          0.048 -0.018 -0.002   -0.001 -0.145 -0.000    0.004 -0.000  0.024
 H         -0.013 -0.161 -0.054   -0.121  0.197  0.030   -0.004  0.000 -0.000
 H          0.071 -0.002 -0.061   -0.160  0.090  0.053   -0.002 -0.001 -0.001
 H         -0.104  0.151  0.002    0.127  0.187 -0.001   -0.011  0.002  0.289
 H          0.035  0.020 -0.520   -0.131 -0.304  0.219   -0.000  0.003  0.000
 H         -0.183 -0.153 -0.393    0.320  0.095  0.172   -0.005 -0.002 -0.001
 H         -0.070 -0.234 -0.003    0.176 -0.392 -0.002   -0.003 -0.008  0.812
 H         -0.492  0.033 -0.005   -0.421 -0.006 -0.002   -0.009  0.000 -0.460
 TransDip  -0.041 -0.039 -0.120    0.022  0.029  0.045    0.001  0.000  0.087

 Mode:                13                     14                     15
 Frequency:       768.04                 805.10                 875.50
 Force Cnst:      1.7300                 4.0576                 0.8158
 Red. Mass:       4.9779                10.6249                 1.8064
 IR Active:          YES                    YES                    YES
 IR Intens:        0.027                 21.228                 15.000
 Raman Active:       YES                    YES                    YES
               X      Y      Z        X      Y      Z        X      Y      Z
 O         -0.125 -0.272 -0.000    0.013 -0.002 -0.179   -0.105  0.070 -0.031
 O         -0.119  0.286  0.010    0.003 -0.003 -0.188   -0.038  0.041 -0.005
 O          0.219 -0.004  0.002   -0.004  0.015 -0.250    0.023 -0.055 -0.012
 C          0.006  0.012 -0.014   -0.000 -0.004 -0.066    0.039 -0.044  0.087
 C          0.009 -0.047 -0.014   -0.003 -0.002  0.003    0.035  0.022 -0.000
 C          0.041  0.059 -0.009   -0.021  0.014  0.029    0.135 -0.034 -0.018
 C          0.042 -0.050  0.002   -0.003  0.001  0.020    0.034 -0.008  0.002
 C         -0.173  0.006 -0.000    0.007 -0.014  0.831   -0.067 -0.036  0.031
 H          0.191  0.087  0.036   -0.021  0.224  0.122   -0.210 -0.361 -0.166
 H          0.135 -0.074  0.050    0.047 -0.241  0.100    0.004  0.305 -0.153
 H          0.322 -0.042  0.019   -0.009 -0.002  0.002    0.075  0.023  0.002
 H         -0.056 -0.242  0.046   -0.046 -0.091  0.008    0.316  0.535 -0.065
 H          0.366  0.138  0.053    0.095  0.023 -0.009   -0.439 -0.146 -0.052
 H         -0.119  0.296  0.058   -0.004  0.003 -0.108    0.048 -0.033 -0.004
 H          0.465 -0.067 -0.027   -0.001  0.001 -0.068    0.024 -0.008 -0.007
 TransDip   0.000  0.000  0.005    0.003 -0.005  0.147    0.114 -0.040  0.028

 Mode:                16                     17                     18
 Frequency:       910.17                 936.81                 968.93
 Force Cnst:      0.6566                 1.2852                 1.1363
 Red. Mass:       1.3452                 2.4856                 2.0542
 IR Active:          YES                    YES                    YES
 IR Intens:       76.724                 19.500                 24.634
 Raman Active:       YES                    YES                    YES
               X      Y      Z        X      Y      Z        X      Y      Z
 O         -0.001  0.001 -0.002    0.086  0.063 -0.012    0.048 -0.117 -0.050
 O         -0.001 -0.000 -0.007    0.102  0.131  0.002    0.009 -0.048 -0.004
 O          0.000  0.000 -0.004   -0.030 -0.109 -0.006    0.004  0.081 -0.006
 C          0.001 -0.001 -0.001   -0.038  0.070  0.049   -0.052  0.084  0.180
 C          0.000  0.000  0.053   -0.082 -0.045 -0.001   -0.008 -0.012  0.001
 C          0.001  0.000  0.001   -0.043 -0.044 -0.023   -0.046 -0.019 -0.096
 C          0.002 -0.000 -0.166   -0.150 -0.063 -0.003    0.013  0.020 -0.001
 C         -0.001 -0.000  0.012    0.103 -0.071  0.007    0.014  0.044  0.023
 H         -0.001  0.003  0.002   -0.095 -0.093 -0.077   -0.046 -0.469 -0.270
 H         -0.000 -0.005  0.001   -0.003  0.216 -0.061    0.238  0.632 -0.212
 H         -0.001  0.000  0.024    0.191 -0.041  0.002   -0.095 -0.013  0.009
 H          0.002  0.003  0.000   -0.049 -0.015  0.021   -0.144 -0.195  0.084
 H         -0.002 -0.000  0.000   -0.107 -0.049  0.004    0.082  0.051  0.064
 H         -0.003 -0.001  0.648   -0.446  0.549  0.004    0.068 -0.098 -0.002
 H         -0.008  0.002  0.740    0.498 -0.084  0.010   -0.127  0.025  0.010
 TransDip   0.001 -0.000  0.281   -0.132 -0.049  0.017   -0.127  0.073  0.062

 Mode:                19                     20                     21
 Frequency:      1001.61                1083.72                1133.79
 Force Cnst:      0.6592                 2.2148                 1.9427
 Red. Mass:       1.1153                 3.2008                 2.5651
 IR Active:          YES                    YES                    YES
 IR Intens:       24.813                 74.858                 32.932
 Raman Active:       YES                    YES                    YES
               X      Y      Z        X      Y      Z        X      Y      Z
 O         -0.000  0.001  0.001    0.004  0.160 -0.009    0.114 -0.069  0.014
 O          0.000  0.001  0.002   -0.138  0.067  0.001   -0.060  0.090  0.001
 O          0.000 -0.000 -0.001   -0.001 -0.112 -0.004    0.009 -0.038  0.000
 C          0.000 -0.000 -0.001    0.249  0.002  0.047   -0.048  0.220 -0.062
 C          0.001 -0.000 -0.097    0.022  0.009  0.000   -0.059 -0.091 -0.001
 C          0.000  0.000  0.000   -0.184 -0.079 -0.036    0.001 -0.146  0.041
 C         -0.000 -0.000  0.021    0.071  0.013  0.001    0.075  0.060  0.001
 C         -0.000 -0.000 -0.001   -0.031 -0.053  0.001    0.007 -0.020 -0.001
 H          0.002  0.003  0.002    0.476 -0.066 -0.024   -0.047  0.350  0.046
 H         -0.003 -0.004  0.002    0.351  0.168 -0.072    0.028 -0.004  0.085
 H         -0.010  0.001  0.833    0.011  0.010  0.000   -0.205 -0.096 -0.002
 H          0.001  0.001 -0.000   -0.341 -0.496  0.061    0.119  0.248 -0.018
 H         -0.000 -0.000 -0.000    0.050 -0.022  0.066   -0.546 -0.285 -0.068
 H          0.002 -0.000 -0.349    0.164 -0.170  0.002    0.236 -0.278  0.003
 H         -0.002  0.001  0.417   -0.075  0.016 -0.001   -0.292  0.070 -0.004
 TransDip  -0.004 -0.000  0.159    0.250 -0.120  0.008   -0.183 -0.016 -0.006

 Mode:                22                     23                     24
 Frequency:      1154.99                1222.15                1269.10
 Force Cnst:      2.3289                 4.3030                 1.0282
 Red. Mass:       2.9631                 4.8897                 1.0835
 IR Active:          YES                    YES                    YES
 IR Intens:       43.381                 83.143                  4.125
 Raman Active:       YES                    YES                    YES
               X      Y      Z        X      Y      Z        X      Y      Z
 O          0.135  0.067 -0.005   -0.222  0.015 -0.009   -0.013  0.009  0.047
 O         -0.063  0.125  0.001    0.317  0.107  0.002    0.014  0.002 -0.001
 O         -0.004 -0.117 -0.003    0.007  0.042  0.001    0.001  0.000  0.001
 C         -0.142 -0.147  0.039    0.123 -0.047  0.009    0.015 -0.015 -0.043
 C         -0.071 -0.107 -0.001   -0.177 -0.262 -0.001   -0.005 -0.008 -0.001
 C          0.048  0.161 -0.025   -0.019 -0.018  0.002   -0.006  0.006 -0.028
 C          0.080  0.065  0.001   -0.001  0.105 -0.000   -0.001  0.003 -0.000
 C          0.025 -0.038  0.000   -0.014  0.037  0.001   -0.008  0.001  0.002
 H         -0.318 -0.270 -0.041    0.319 -0.035  0.000   -0.657  0.080  0.070
 H         -0.240 -0.036 -0.040    0.017 -0.000 -0.017    0.736 -0.051 -0.006
 H         -0.214 -0.112 -0.003   -0.425 -0.278 -0.006   -0.006 -0.008  0.002
 H         -0.001 -0.028  0.001   -0.034 -0.073 -0.002   -0.039 -0.060  0.025
 H          0.477  0.271  0.029    0.001 -0.015  0.016    0.007  0.014 -0.005
 H          0.249 -0.290  0.003    0.091 -0.129  0.001   -0.001  0.001  0.001
 H         -0.306  0.075 -0.004   -0.545  0.128 -0.005   -0.016  0.004 -0.001
 TransDip  -0.199 -0.071  0.002   -0.287  0.055  0.001   -0.048 -0.010 -0.043

 Mode:                25                     26                     27
 Frequency:      1330.01                1340.13                1424.75
 Force Cnst:      1.6581                 2.5126                 1.6219
 Red. Mass:       1.5909                 2.3745                 1.3561
 IR Active:          YES                    YES                    YES
 IR Intens:      448.513                911.362                 92.479
 Raman Active:       YES                    YES                    YES
               X      Y      Z        X      Y      Z        X      Y      Z
 O          0.070  0.031 -0.000   -0.101 -0.054 -0.001   -0.032  0.015  0.001
 O          0.041 -0.047 -0.000   -0.103  0.010  0.000   -0.037  0.014  0.000
 O          0.013 -0.017 -0.001   -0.028  0.008  0.000   -0.009  0.009  0.000
 C         -0.041 -0.000 -0.000    0.070  0.007  0.001   -0.113 -0.045 -0.004
 C         -0.009 -0.054 -0.000    0.031 -0.068  0.000    0.035 -0.010  0.000
 C          0.002 -0.004  0.002   -0.004  0.009 -0.003   -0.013 -0.050  0.005
 C         -0.026  0.075 -0.000   -0.019  0.086 -0.000    0.006 -0.003  0.000
 C         -0.167  0.011  0.000    0.269  0.005  0.000    0.092 -0.018 -0.001
 H          0.173  0.004 -0.007   -0.323 -0.006  0.008    0.513  0.152  0.102
 H          0.139 -0.004  0.002   -0.281  0.008 -0.001    0.509  0.129 -0.096
 H          0.882 -0.052  0.011    0.689 -0.076  0.009   -0.075 -0.015 -0.001
 H          0.021  0.047 -0.003   -0.042 -0.093  0.008    0.158  0.426 -0.080
 H          0.016 -0.001  0.000   -0.039 -0.001 -0.003    0.313  0.029  0.048
 H         -0.039  0.086 -0.001   -0.057  0.145 -0.002   -0.082  0.173 -0.001
 H         -0.317  0.094 -0.002   -0.415  0.113 -0.003   -0.178  0.009 -0.001
 TransDip  -0.674  0.078  0.001    0.967  0.004  0.002    0.297 -0.080 -0.005

 Mode:                28                     29                     30
 Frequency:      1439.68                1470.35                1502.51
 Force Cnst:      1.4778                 1.7345                 1.4446
 Red. Mass:       1.2102                 1.3617                 1.0861
 IR Active:          YES                    YES                    YES
 IR Intens:       18.057                  8.808                 13.953
 Raman Active:       YES                    YES                    YES
               X      Y      Z        X      Y      Z        X      Y      Z
 O          0.026  0.003 -0.000    0.012 -0.012  0.001    0.018 -0.013 -0.002
 O         -0.011  0.004 -0.000    0.010 -0.005 -0.000    0.009 -0.004 -0.000
 O          0.006 -0.005 -0.000    0.004 -0.003  0.000    0.004 -0.003  0.000
 C          0.015  0.010  0.001    0.094  0.062  0.005    0.035 -0.060  0.001
 C          0.103 -0.018  0.001    0.004  0.001 -0.000   -0.000  0.001 -0.000
 C          0.009  0.016 -0.001   -0.105 -0.078 -0.002   -0.015 -0.010 -0.001
 C          0.029 -0.041  0.000    0.003 -0.005 -0.000    0.001 -0.003 -0.000
 C         -0.056 -0.004 -0.000   -0.041  0.009  0.000   -0.032  0.007  0.000
 H         -0.086 -0.041 -0.029   -0.313 -0.123 -0.111   -0.171  0.504  0.438
 H         -0.092 -0.038  0.027   -0.226 -0.112  0.106   -0.233  0.550 -0.394
 H         -0.334 -0.024 -0.004   -0.021  0.002 -0.000   -0.010  0.001  0.000
 H         -0.042 -0.129  0.027    0.116  0.566 -0.136    0.002  0.029 -0.016
 H         -0.110 -0.012 -0.017    0.631  0.082  0.088    0.060  0.010  0.020
 H         -0.304  0.628 -0.003   -0.019  0.039 -0.000   -0.006  0.012 -0.000
 H         -0.575 -0.004 -0.005   -0.030 -0.003 -0.000   -0.007 -0.002 -0.000
 TransDip  -0.135  0.017  0.001   -0.042  0.085 -0.004   -0.028  0.116  0.006

 Mode:                31                     32                     33
 Frequency:      1746.31                1848.24                3007.41
 Force Cnst:      8.6199                24.2191                 5.6816
 Red. Mass:       4.7974                12.0335                 1.0662
 IR Active:          YES                    YES                    YES
 IR Intens:       98.609                409.455                 18.953
 Raman Active:       YES                    YES                    YES
               X      Y      Z        X      Y      Z        X      Y      Z
 O          0.018  0.007  0.000   -0.049 -0.073 -0.002    0.002 -0.000 -0.000
 O         -0.030  0.020 -0.000    0.018 -0.070 -0.001    0.000  0.000 -0.000
 O          0.005  0.013  0.000   -0.011 -0.485 -0.012   -0.000  0.001  0.000
 C          0.001  0.001  0.000   -0.028  0.014 -0.001    0.003 -0.055 -0.047
 C          0.389 -0.196  0.004    0.062  0.013  0.001   -0.000  0.000 -0.000
 C         -0.001  0.000 -0.000    0.010 -0.010  0.001   -0.002  0.000 -0.001
 C         -0.319  0.216 -0.003   -0.042  0.003 -0.000    0.000  0.000  0.000
 C         -0.054 -0.035 -0.001    0.044  0.809  0.019   -0.001 -0.003  0.000
 H         -0.010 -0.002  0.001    0.140  0.032 -0.036   -0.018  0.152 -0.231
 H         -0.010 -0.001 -0.001    0.140  0.019  0.036   -0.014  0.529  0.798
 H         -0.388 -0.280 -0.004   -0.182  0.030 -0.001    0.000 -0.001 -0.000
 H         -0.002 -0.001 -0.000    0.021  0.030 -0.001    0.002 -0.006  0.000
 H          0.003  0.001  0.000   -0.033 -0.019  0.001    0.002 -0.006  0.001
 H         -0.069 -0.444 -0.000   -0.048 -0.002 -0.000    0.000 -0.000  0.000
 H          0.400  0.255  0.003    0.069  0.007  0.001   -0.000  0.000 -0.000
 TransDip   0.285 -0.142  0.001    0.026  0.647  0.013    0.063 -0.103 -0.069

 Mode:                34                     35                     36
 Frequency:      3068.03                3174.86                3178.83
 Force Cnst:      6.0672                 6.2471                 6.3140
 Red. Mass:       1.0940                 1.0519                 1.0605
 IR Active:          YES                    YES                    YES
 IR Intens:       15.807                  4.865                  0.284
 Raman Active:       YES                    YES                    YES
               X      Y      Z        X      Y      Z        X      Y      Z
 O         -0.001 -0.000  0.000    0.000 -0.000 -0.000   -0.000  0.000  0.000
 O         -0.000 -0.000 -0.000   -0.000 -0.000  0.000   -0.000 -0.000 -0.000
 O          0.000 -0.001  0.000   -0.000 -0.000 -0.000    0.000  0.000  0.000
 C         -0.003  0.037 -0.080    0.003  0.003  0.000   -0.000 -0.000  0.000
 C          0.000 -0.000 -0.000    0.000 -0.000  0.000   -0.008 -0.006 -0.000
 C          0.002 -0.002  0.000   -0.048 -0.040  0.004    0.000  0.000 -0.000
 C         -0.000 -0.000  0.000    0.000 -0.000  0.000    0.054 -0.043  0.001
 C          0.001  0.001  0.000    0.000  0.000  0.000    0.000 -0.000 -0.000
 H          0.044 -0.598  0.752   -0.002 -0.002  0.000   -0.000  0.000 -0.000
 H          0.000  0.161  0.202    0.000  0.001  0.002   -0.000  0.000  0.000
 H         -0.000  0.001 -0.000   -0.000  0.002 -0.000    0.002  0.130 -0.000
 H         -0.016  0.008 -0.002    0.667 -0.207  0.149   -0.001  0.000 -0.000
 H         -0.003  0.011 -0.010   -0.127  0.654 -0.206    0.000 -0.001  0.000
 H         -0.000  0.000  0.000   -0.001 -0.001 -0.000   -0.584 -0.288 -0.004
 H          0.000  0.000 -0.000    0.000  0.001 -0.000    0.037  0.743 -0.002
 TransDip  -0.037  0.061 -0.105   -0.067 -0.022 -0.001   -0.013 -0.011  0.000

 Mode:                37                     38                     39
 Frequency:      3238.59                3278.21                3289.82
 Force Cnst:      6.7893                 7.0743                 7.1447
 Red. Mass:       1.0987                 1.1173                 1.1204
 IR Active:          YES                    YES                    YES
 IR Intens:        7.662                  4.292                  4.150
 Raman Active:       YES                    YES                    YES
               X      Y      Z        X      Y      Z        X      Y      Z
 O         -0.000  0.000  0.000   -0.000  0.000  0.000   -0.000  0.000 -0.000
 O         -0.000  0.000  0.000    0.001  0.000  0.000    0.000  0.000  0.000
 O          0.001  0.001  0.000    0.000  0.000  0.000    0.000  0.000 -0.000
 C          0.000 -0.000  0.000    0.000 -0.000  0.000    0.001 -0.002  0.002
 C          0.008 -0.087  0.000    0.001 -0.018  0.000   -0.000 -0.000 -0.000
 C         -0.000  0.000 -0.000   -0.000  0.000 -0.000    0.064 -0.072  0.029
 C         -0.001  0.026 -0.000   -0.060 -0.077 -0.000   -0.000 -0.000  0.000
 C          0.000 -0.002 -0.000    0.000 -0.000 -0.000   -0.000 -0.000 -0.000
 H         -0.000  0.001 -0.001   -0.000  0.000 -0.000    0.001  0.016 -0.018
 H         -0.000  0.001  0.001   -0.000  0.000  0.000    0.002  0.001  0.002
 H         -0.011  0.970 -0.001   -0.004  0.193 -0.000   -0.000  0.001  0.000
 H         -0.001  0.000 -0.000    0.001 -0.000  0.000   -0.651  0.194 -0.141
 H          0.000 -0.001  0.000    0.000 -0.001  0.000   -0.119  0.670 -0.212
 H         -0.058 -0.031 -0.000    0.679  0.323  0.005    0.001  0.000  0.000
 H         -0.011 -0.215  0.000    0.021  0.621 -0.001    0.000  0.001  0.000
 TransDip  -0.087  0.017  0.001   -0.053 -0.040 -0.000    0.049 -0.038  0.018

 STANDARD THERMODYNAMIC QUANTITIES AT   298.15 K  AND     1.00 ATM

   This Molecule has  1 Imaginary Frequencies
   Zero point vibrational energy:       71.232 kcal/mol

   Atom    1 Element O  Has Mass   15.99491
   Atom    2 Element O  Has Mass   15.99491
   Atom    3 Element O  Has Mass   15.99491
   Atom    4 Element C  Has Mass   12.00000
   Atom    5 Element C  Has Mass   12.00000
   Atom    6 Element C  Has Mass   12.00000
   Atom    7 Element C  Has Mass   12.00000
   Atom    8 Element C  Has Mass   12.00000
   Atom    9 Element H  Has Mass    1.00783
   Atom   10 Element H  Has Mass    1.00783
   Atom   11 Element H  Has Mass    1.00783
   Atom   12 Element H  Has Mass    1.00783
   Atom   13 Element H  Has Mass    1.00783
   Atom   14 Element H  Has Mass    1.00783
   Atom   15 Element H  Has Mass    1.00783
   Molecular Mass:   115.039540 amu
   Principal axes and moments of inertia in amu*Bohr^2:
                             1           2           3
    Eigenvalues --      247.26334  1874.93215  2109.77750
          X               1.00000    -0.00089    -0.00018
          Y               0.00089     0.99997    -0.00717
          Z               0.00019     0.00717     0.99997
   Rotational Symmetry Number is   1
   The Molecule is an Asymmetric Top
   Translational Enthalpy:        0.889 kcal/mol
   Rotational Enthalpy:           0.889 kcal/mol
   Vibrational Enthalpy:         74.822 kcal/mol
   gas constant (RT):             0.592 kcal/mol
   Translational Entropy:        40.136  cal/mol.K
   Rotational Entropy:           28.371  cal/mol.K
   Vibrational Entropy:          23.035  cal/mol.K

   Total Enthalpy:               77.192 kcal/mol
   Total Entropy:                91.541  cal/mol.K
Archival summary:
1\1\nid03485\FREQ\ProcedureUnspecified\BasisUnspecified\357(2)\sblau\TueNov1315:11:282018TueNov1315:11:282018\0\\#,FREQ,ProcedureUnspecified,BasisUnspecified,\\0,2\O\C,1,1.32393\O,2,1.20011,1,126.444\O,2,1.34185,1,107.429,3,-179.969,0\C,4,1.37914,2,117.591,1,-179.653,0\H,5,1.08282,4,114.738,2,1.21942,0\C,5,1.32127,4,119.857,2,-178.768,0\H,7,1.08198,5,119.369,4,-179.861,0\H,7,1.08375,5,121.865,4,0.103483,0\C,1,1.43672,2,115.491,3,1.10795,0\H,10,1.0953,1,109.321,2,-58.3161,0\H,10,1.09946,1,108.255,2,57.3778,0\C,10,1.47618,1,108.199,2,179.373,0\H,13,1.08203,10,120.443,1,-22.5579,0\H,13,1.0823,10,119.526,1,165.179,0\\\@

 Total job time:  1122.65s(wall), 4967.95s(cpu) 
 Tue Nov 13 15:11:28 2018

        *************************************************************
        *                                                           *
        *  Thank you very much for using Q-Chem.  Have a nice day.  *
        *                                                           *
        *************************************************************


