
Running Job 1 of 1 mol.qin
qchem mol.qin_35037.0 /tmp/qchem35037/ 1
/global/common/edison/software/qchem/5.1/exe/qcprog.exe mol.qin_35037.0 /tmp/qchem35037/
Check license passed

                  Welcome to Q-Chem
     A Quantum Leap Into The Future Of Chemistry


 Q-Chem 5.1, Q-Chem, Inc., Pleasanton, CA (2018)

 Yihan Shao,  Zhengting Gan,  E. Epifanovsky,  A. T. B. Gilbert,  M. Wormit,  
 J. Kussmann,  A. W. Lange,  A. Behn,  Jia Deng,  Xintian Feng,  D. Ghosh,  
 M. Goldey,  P. R. Horn,  L. D. Jacobson,  I. Kaliman,  T. Kus,  A. Landau,  
 Jie Liu,  E. I. Proynov,  R. M. Richard,  R. P. Steele,  E. J. Sundstrom,  
 H. L. Woodcock III,  P. M. Zimmerman,  D. Zuev,  B. Albrecht,  E. Alguire,  
 S. A. Baeppler,  D. Barton,  Z. Benda,  Y. A. Bernard,  E. J. Berquist,  
 K. B. Bravaya,  H. Burton,  D. Casanova,  Chun-Min Chang,  Yunqing Chen,  
 A. Chien,  K. D. Closser,  M. P. Coons,  S. Coriani,  S. Dasgupta,  
 A. L. Dempwolff,  M. Diedenhofen,  Hainam Do,  R. G. Edgar,  Po-Tung Fang,  
 S. Faraji,  S. Fatehi,  Qingguo Feng,  K. D. Fenk,  J. Fosso-Tande,  
 Qinghui Ge,  A. Ghysels,  G. Gidofalvi,  J. Gomes,  J. Gonthier,  A. Gunina,  
 D. Hait,  M. W. D. Hanson-Heine,  P. H. P. Harbach,  A. W. Hauser,  
 J. E. Herr,  E. G. Hohenstein,  Z. C. Holden,  Kerwin Hui,  B. C. Huynh,  
 T.-C. Jagau,  Hyunjun Ji,  B. Kaduk,  K. Khistyaev,  Jaehoon Kim,  
 P. Klunzinger,  K. Koh,  D. Kosenkov,  L. Koulias,  T. Kowalczyk,  
 C. M. Krauter,  A. Kunitsa,  Ka Un Lao,  A. Laurent,  K. V. Lawler,  
 Joonho Lee,  D. Lefrancois,  S. Lehtola,  D. S. Levine,  Yi-Pei Li,  
 You-Sheng Lin,  Fenglai Liu,  E. Livshits,  A. Luenser,  P. Manohar,  
 E. Mansoor,  S. F. Manzer,  Shan-Ping Mao,  Yuezhi Mao,  N. Mardirossian,  
 A. V. Marenich,  T. Markovich,  L. A. Martinez-Martinez,  S. A. Maurer,  
 N. J. Mayhall,  S. C. McKenzie,  J.-M. Mewes,  A. F. Morrison,  
 J. W. Mullinax,  K. Nanda,  T. S. Nguyen-Beck,  R. Olivares-Amaya,  
 J. A. Parkhill,  T. M. Perrine,  F. Plasser,  P. Pokhilko,  S. Prager,  
 A. Prociuk,  E. Ramos,  D. R. Rehn,  F. Rob,  M. Schneider,  N. Sergueev,  
 S. M. Sharada,  S. Sharma,  D. W. Small,  T. Stauch,  T. Stein,  
 Yu-Chuan Su,  A. J. W. Thom,  A. Tkatchenko,  T. Tsuchimochi,  N. M. Tubman,  
 L. Vogt,  M. L. Vidal,  O. Vydrov,  M. A. Watson,  J. Wenzel,  
 M. de Wergifosse,  T. A. Wesolowski,  A. White,  J. Witte,  A. Yamada,  
 Jun Yang,  K. Yao,  S. Yeganeh,  S. R. Yost,  Zhi-Qiang You,  A. Zech,  
 Igor Ying Zhang,  Xing Zhang,  Yan Zhao,  Ying Zhu,  B. R. Brooks,  
 G. K. L. Chan,  C. J. Cramer,  M. S. Gordon,  W. J. Hehre,  A. Klamt,  
 M. W. Schmidt,  C. D. Sherrill,  D. G. Truhlar,  A. Aspuru-Guzik,  R. Baer,  
 A. T. Bell,  N. A. Besley,  Jeng-Da Chai,  R. A. DiStasio Jr.,  A. Dreuw,  
 B. D. Dunietz,  T. R. Furlani,  Chao-Ping Hsu,  Yousung Jung,  Jing Kong,  
 D. S. Lambrecht,  WanZhen Liang,  C. Ochsenfeld,  V. A. Rassolov,  
 L. V. Slipchenko,  J. E. Subotnik,  T. Van Voorhis,  J. M. Herbert,  
 A. I. Krylov,  P. M. W. Gill,  M. Head-Gordon

 Contributors to earlier versions of Q-Chem not listed above: 
 R. D. Adamson,  B. Austin,  J. Baker,  G. J. O. Beran,  K. Brandhorst,  
 S. T. Brown,  E. F. C. Byrd,  A. K. Chakraborty,  C.-L. Cheng,  
 Siu Hung Chien,  D. M. Chipman,  D. L. Crittenden,  H. Dachsel,  
 R. J. Doerksen,  A. D. Dutoi,  L. Fusti-Molnar,  W. A. Goddard III,  
 A. Golubeva-Zadorozhnaya,  S. R. Gwaltney,  G. Hawkins,  A. Heyden,  
 S. Hirata,  G. Kedziora,  F. J. Keil,  C. Kelley,  Jihan Kim,  R. A. King,  
 R. Z. Khaliullin,  P. P. Korambath,  W. Kurlancheek,  A. M. Lee,  M. S. Lee,  
 S. V. Levchenko,  Ching Yeh Lin,  D. Liotard,  R. C. Lochan,  I. Lotan,  
 P. E. Maslen,  N. Nair,  D. P. O'Neill,  D. Neuhauser,  E. Neuscamman,  
 C. M. Oana,  R. Olson,  B. Peters,  R. Peverati,  P. A. Pieniazek,  
 Y. M. Rhee,  J. Ritchie,  M. A. Rohrdanz,  E. Rosta,  N. J. Russ,  
 H. F. Schaefer III,  N. E. Schultz,  N. Shenvi,  A. C. Simmonett,  A. Sodt,  
 D. Stuck,  K. S. Thanthiriwatte,  V. Vanovschi,  Tao Wang,  A. Warshel,  
 C. F. Williams,  Q. Wu,  X. Xu,  W. Zhang

 Please cite Q-Chem as follows:
 Y. Shao et al., Mol. Phys. 113, 184-215 (2015)
 DOI: 10.1080/00268976.2014.952696

 Q-Chem 5.1.0 for Intel X86 EM64T Linux

 Parts of Q-Chem use Armadillo 8.300.2 (Tropical Shenanigans).
 http://arma.sourceforge.net/

 Q-Chem begins on Tue Nov 13 14:29:24 2018  

Host: edison03
0

     Scratch files written to /tmp/qchem35037//
 Jun2518 |scratch|qcdevops|jenkins|workspace|build_RNUM -1
Processing $rem in /global/common/edison/software/qchem/5.1/config/preferences.
 MEM_TOTAL  48000 

Checking the input file for inconsistencies... 	...done.

--------------------------------------------------------------
User input:
--------------------------------------------------------------
$molecule
0 2
O      1.0415780514      0.4073567382      0.0103077132
O     -1.1059102654      0.4667790602      0.0418935357
O     -0.0762719728     -1.5403401365     -0.1848804197
C      2.2907306621     -0.2926178254     -0.1055639893
C     -2.3583703464     -0.1089627381     -0.0003710775
C      3.3827166096      0.6978373867     -0.0292268793
C     -3.4354061791      0.6535954351      0.0645999638
C     -0.0439176183     -0.3474795075     -0.0574317501
H      2.3610804395     -1.0441734387      0.6881194014
H      2.2910903600     -0.8424271086     -1.0576852071
H     -2.3582952956     -1.1883118647     -0.0870918511
H      4.3962880167      0.3612171082      0.1461431823
H      3.1993697928      1.7354608528     -0.2752312204
H     -4.4141334298      0.1933426837      0.0337190565
H     -3.3683883511      1.7319314033      0.1496121575
$end

$rem
job_type = freq
basis = 6-311++g*
max_scf_cycles = 200
gen_scfman = true
scf_algorithm = gdm
method = wb97xd
geom_opt_max_cycles = 200
$end
--------------------------------------------------------------
 ----------------------------------------------------------------
             Standard Nuclear Orientation (Angstroms)
    I     Atom           X                Y                Z
 ----------------------------------------------------------------
    1      O       1.0363257340     0.4344056146     0.0296283044
    2      O      -1.1118861040     0.4712849225     0.0218460805
    3      O      -0.0580189967    -1.5355007837    -0.0259467997
    4      C       2.2943764907    -0.2580949785    -0.0094115237
    5      C      -2.3574786008    -0.1204661447     0.0059975249
    6      C       3.3746949002     0.7478788159     0.0044105669
    7      C      -3.4432264000     0.6323147139    -0.0079697328
    8      C      -0.0400664112    -0.3359611438     0.0054984684
    9      H       2.3589823428    -0.9425604481     0.8432615440
   10      H       2.3164995623    -0.8826115061    -0.9140191000
   11      H      -2.3448623020    -1.2032198527     0.0065190905
   12      H       4.3885512284     0.4382112147     0.2225760781
   13      H       3.1849051378     1.7601779176    -0.3272926485
   14      H      -4.4165172634     0.1597583044    -0.0173820481
   15      H      -3.3887236449     1.7146987662    -0.0090354199
 ----------------------------------------------------------------
 Molecular Point Group                 C1    NOp =  1
 Largest Abelian Subgroup              C1    NOp =  1
 Nuclear Repulsion Energy =   363.1592524616 hartrees
 There are       31 alpha and       30 beta electrons
 Requested basis set is 6-311++G(d)
 There are 76 shells and 204 basis functions

 Total QAlloc Memory Limit  48000 MB
 Mega-Array Size       188 MB
 MEM_STATIC part       192 MB

                       Distance Matrix (Angstroms)
             O (  1)   O (  2)   O (  3)   C (  4)   C (  5)   C (  6)
   O (  2)  2.148542
   O (  3)  2.254154  2.267181
   C (  4)  1.436584  3.483618  2.676902
   C (  5)  3.438946  1.379102  2.700159  4.653916
   C (  6)  2.359422  4.495133  4.122896  1.476232  5.797572
   C (  7)  4.484079  2.337085  4.019873  5.806283  1.321258  6.818912
   C (  8)  1.323883  1.341906  1.200086  2.335789  2.327410  3.582639
   H (  9)  2.075441  3.836745  2.636095  1.095317  4.860232  2.143112
   H ( 10)  2.064909  3.802987  2.617876  1.099466  4.824248  2.149835
   H ( 11)  3.756965  2.079527  2.311086  4.734559  1.082827  6.043188
   H ( 12)  3.357776  5.504198  4.871272  2.219060  6.772588  1.082310
   H ( 13)  2.549796  4.499506  4.633451  2.228792  5.862245  1.082034
   H ( 14)  5.459958  3.319514  4.676589  6.723895  2.078151  7.813408
   H ( 15)  4.606702  2.594421  4.653781  6.015774  2.105118  6.832185
             C (  7)   C (  8)   H (  9)   H ( 10)   H ( 11)   H ( 12)
   C (  8)  3.538253
   H (  9)  6.072104  2.612517
   H ( 10)  6.024149  2.588000  1.758816
   H ( 11)  2.139112  2.462564  4.784792  4.762192
   H ( 12)  7.837574  4.501013  2.531982  2.707364  6.933962
   H ( 13)  6.730986  3.860698  3.058944  2.843011  6.282634  1.870485
   H ( 14)  1.081986  4.404496  6.918324  6.871973  2.479926  8.812738
   H ( 15)  1.083756  3.926694  6.389332  6.333608  3.099054  7.884736
             H ( 13)   H ( 14)
   H ( 14)  7.774253
   H ( 15)  6.581486  1.863939
 
 A cutoff of  1.0D-12 yielded   2592 shell pairs
 There are     19270 function pairs (     20773 Cartesian)
 
 -------------------------------------------------------
 OpenMP Integral Computing Module                       
 Release: version 1.0, May 2013, Q-Chem Inc. Pittsburgh 
 -------------------------------------------------------
 Integral Job Info:
 Integral job number is                      11
 Integral operator is                         1
 short-range coefficients              22203600
 long-range coefficients              100000000
 Omega coefficients                         200
 if combine SR and LR in K                    1
 Integral screening is                        0
 Integral computing path is                   2
 max size of driver memory is            800000
 size of driver memory is                593474
 size of scratch memory is              2428936
 max col of scratch BK array               1296
 max len of scratch array in speh3          155
 max len of scratch index in speh4           18
 max int batch size is                      520
 min int batch size is                       52
 fixed nKL is                                52
 max L of basis functions is                  2
 order of int derivative is                   0
 number of shells is                         76
 number of basis is                         212
 number of cartesian basis is               212
 number of contracted shell pairs          2592
 number of primitive shell pairs           6856
 maxK2 (contraction) of shell pair           36
 max number of K2 of shell pair               1
 max number of CS2 of shell pair            516
 max number of PS2 of shell pair           1068
 mem total for path MDJ                  544178
 -------------------------------------------------------
 Smallest overlap matrix eigenvalue = 1.79E-05
 Guess from superposition of atomic densities
 Warning:  Energy on first SCF cycle will be non-variational
 SAD guess density has 61.000000 electrons

 -----------------------------------------------------------------------
  General SCF calculation program by
  Eric Jon Sundstrom, Paul Horn, Yuezhi Mao, Dmitri Zuev, Alec White,
  David Stuck, Shaama M.S., Shane Yost, Joonho Lee, David Small,
  Daniel Levine, Susi Lehtola, Hugh Burton, Evgeny Epifanovsky
 -----------------------------------------------------------------------
 Exchange:     0.2220 Hartree-Fock + 1.0000 wB97X-D + LR-HF
 Correlation:  1.0000 wB97X-D
 Using SG-2 standard quadrature grid
 Dispersion:   Grimme D
 using 32 threads for integral computing
 -------------------------------------------------------
 OpenMP Integral computing Module                
 Release: version 1.0, May 2013, Q-Chem Inc. Pittsburgh 
 -------------------------------------------------------
 using 32 threads for integral computing
 -------------------------------------------------------
 OpenMP Integral computing Module                
 Release: version 1.0, May 2013, Q-Chem Inc. Pittsburgh 
 -------------------------------------------------------
 -------------------------------------------------------
 OpenMP BLAS3 based DFT computing Module                
 Release: version 1.0, May 2013, Q-Chem Inc. Pittsburgh 
 -------------------------------------------------------
 A unrestricted SCF calculation will be
 performed using Roothaan-Hall, GDM
 SCF converges when RMS gradient is below 1.0e-08
 ---------------------------------------
  Cycle       Energy         DIIS error
 ---------------------------------------
    1    -422.1051182793      2.32e-02  Roothaan Step
 ---------------------------------------
  Cycle       Energy        RMS Gradient
 ---------------------------------------
    1    -420.1286943432      1.88e-01   Descent step
    2    -420.2840053727      2.67e-02   Normal BFGS step
    3    -420.2948542996      2.79e-02   Normal BFGS step
    4    -420.2990386217      1.07e-02   Normal BFGS step
    5    -420.2997609089      2.79e-03   Normal BFGS step
    6    -420.2998488725      1.01e-03   Normal BFGS step
    7    -420.2998651064      3.88e-04   Normal BFGS step
    8    -420.2998667374      2.36e-04   Normal BFGS step
    9    -420.2998673043      6.14e-05   Normal BFGS step
   10    -420.2998673692      3.47e-05   Normal BFGS step
   11    -420.2998673804      1.59e-05   Normal BFGS step
   12    -420.2998673814      5.05e-06   Normal BFGS step
   13    -420.2998673817      1.58e-06   Normal BFGS step
   14    -420.2998673817      5.71e-07   Normal BFGS step
   15    -420.2998673817      3.57e-07   Normal BFGS step
   16    -420.2998673817      2.66e-07   Normal BFGS step
   17    -420.2998673817      1.36e-07   Normal BFGS step
   18    -420.2998673817      4.93e-08   Normal BFGS step
   19    -420.2998673817      3.66e-08   Normal BFGS step
   20    -420.2998673817      1.38e-08   Normal BFGS step
   21    -420.2998673817      1.22e-08   Normal BFGS step
   22    -420.2998673817      5.96e-09  Convergence criterion met
 ---------------------------------------
 SCF time:   CPU 734.00s  wall 26.00s 
<S^2> =          0.754421582
 SCF   energy in the final basis set =     -420.2998673817
 Total energy in the final basis set =     -420.2998673817
 
 --------------------------------------------------------------
 
                    Orbital Energies (a.u.)
 --------------------------------------------------------------
 
 Alpha MOs
 -- Occupied --
-19.320 -19.312 -19.249 -10.476 -10.362 -10.355 -10.308 -10.286
 -1.276  -1.190  -1.147  -0.913  -0.876  -0.774  -0.714  -0.672
 -0.669  -0.619  -0.595  -0.558  -0.551  -0.540  -0.515  -0.511
 -0.473  -0.467  -0.462  -0.415  -0.397  -0.342  -0.308
 -- Virtual --
  0.042   0.053   0.060   0.061   0.068   0.070   0.074   0.088
  0.108   0.111   0.117   0.126   0.141   0.144   0.152   0.161
  0.169   0.169   0.185   0.188   0.192   0.193   0.197   0.204
  0.212   0.221   0.226   0.228   0.235   0.251   0.257   0.260
  0.283   0.300   0.306   0.314   0.322   0.332   0.336   0.347
  0.353   0.358   0.372   0.383   0.390   0.399   0.418   0.431
  0.435   0.461   0.467   0.492   0.506   0.548   0.562   0.572
  0.580   0.596   0.607   0.617   0.624   0.637   0.652   0.667
  0.707   0.729   0.741   0.753   0.765   0.778   0.803   0.818
  0.825   0.844   0.864   0.901   0.927   0.957   0.986   1.002
  1.075   1.113   1.133   1.135   1.187   1.196   1.234   1.242
  1.250   1.255   1.273   1.277   1.349   1.363   1.369   1.423
  1.465   1.536   1.587   1.608   1.619   1.642   1.669   1.699
  1.710   1.748   1.815   1.824   1.873   1.885   1.911   1.940
  1.948   2.018   2.027   2.066   2.153   2.196   2.322   2.507
  2.524   2.535   2.567   2.613   2.637   2.659   2.755   2.818
  2.824   2.887   2.925   2.951   2.952   2.998   3.020   3.102
  3.134   3.144   3.231   3.233   3.257   3.275   3.321   3.360
  3.385   3.425   3.497   3.501   3.678   3.708   3.750   3.905
  4.071   4.122   4.207   4.246   5.056   5.104   5.131   5.298
  5.327   5.496   5.712   5.951   6.002  23.544  23.632  23.845
 23.949  24.351  49.994  50.054  50.146
 
 Beta MOs
 -- Occupied --
-19.320 -19.312 -19.249 -10.476 -10.363 -10.355 -10.296 -10.286
 -1.276  -1.189  -1.147  -0.908  -0.866  -0.762  -0.698  -0.671
 -0.668  -0.617  -0.595  -0.552  -0.549  -0.536  -0.509  -0.505
 -0.469  -0.464  -0.461  -0.412  -0.397  -0.342
 -- Virtual --
 -0.004   0.047   0.054   0.060   0.063   0.070   0.073   0.078
  0.090   0.109   0.111   0.118   0.127   0.146   0.154   0.162
  0.166   0.170   0.171   0.186   0.190   0.195   0.195   0.198
  0.206   0.215   0.223   0.227   0.234   0.239   0.253   0.261
  0.267   0.284   0.301   0.308   0.318   0.325   0.336   0.339
  0.348   0.355   0.359   0.374   0.384   0.393   0.402   0.418
  0.432   0.436   0.462   0.470   0.492   0.509   0.556   0.568
  0.573   0.583   0.598   0.614   0.626   0.633   0.641   0.665
  0.683   0.709   0.733   0.744   0.754   0.770   0.783   0.806
  0.819   0.826   0.847   0.865   0.905   0.932   0.958   0.988
  1.005   1.075   1.114   1.135   1.146   1.187   1.197   1.237
  1.243   1.250   1.258   1.274   1.286   1.351   1.367   1.414
  1.424   1.468   1.542   1.604   1.608   1.619   1.647   1.674
  1.703   1.722   1.758   1.830   1.837   1.885   1.903   1.914
  1.942   1.948   2.021   2.027   2.068   2.153   2.211   2.322
  2.510   2.524   2.541   2.567   2.615   2.642   2.664   2.756
  2.821   2.873   2.906   2.929   2.952   2.953   2.999   3.022
  3.102   3.140   3.145   3.232   3.237   3.257   3.277   3.322
  3.371   3.389   3.426   3.497   3.502   3.679   3.711   3.750
  3.913   4.075   4.123   4.207   4.247   5.056   5.104   5.131
  5.298   5.327   5.497   5.712   5.951   6.002  23.548  23.641
 23.854  23.949  24.351  49.994  50.054  50.146
 --------------------------------------------------------------
 
          Ground-State Mulliken Net Atomic Charges

     Atom                 Charge (a.u.)    Spin (a.u.)
  --------------------------------------------------------
      1 O                    -0.047591      -0.001907
      2 O                    -0.064345      -0.001610
      3 O                    -0.281320       0.000645
      4 C                    -0.371301      -0.098492
      5 C                     0.014746      -0.000603
      6 C                    -0.485273       1.119058
      7 C                    -0.516686       0.000074
      8 C                    -0.080827      -0.000598
      9 H                     0.287831       0.027730
     10 H                     0.291428       0.053572
     11 H                     0.288654      -0.000028
     12 H                     0.247292      -0.048011
     13 H                     0.245696      -0.049858
     14 H                     0.218551       0.000023
     15 H                     0.253144       0.000005
  --------------------------------------------------------
  Sum of atomic charges =    -0.000000
  Sum of spin   charges =     1.000000

 -----------------------------------------------------------------
                    Cartesian Multipole Moments
 -----------------------------------------------------------------
    Charge (ESU x 10^10)
                -0.0000
    Dipole Moment (Debye)
         X       0.8484      Y       0.3026      Z      -0.1268
       Tot       0.9096
    Quadrupole Moments (Debye-Ang)
        XX     -35.1145     XY      -0.7897     YY     -50.5377
        XZ      -0.1016     YZ      -0.7625     ZZ     -48.5597
    Octopole Moments (Debye-Ang^2)
       XXX       1.1076    XXY      -4.2016    XYY      -2.4758
       YYY       8.8398    XXZ       0.9053    XYZ      -1.6719
       YYZ      -0.9647    XZZ       4.3105    YZZ      -3.4183
       ZZZ      -0.1051
    Hexadecapole Moments (Debye-Ang^3)
      XXXX   -1323.4156   XXXY      -8.2695   XXYY    -267.5058
      XYYY      -2.0969   YYYY    -219.3785   XXXZ      10.8568
      XXYZ      -5.0691   XYYZ      -3.4715   YYYZ      -2.9338
      XXZZ    -293.3258   XYZZ      -3.5121   YYZZ     -46.7094
      XZZZ      -0.5969   YZZZ      -0.3939   ZZZZ     -57.4262
 -----------------------------------------------------------------
 Calculating MO derivatives via CPSCF
 D1JvT checksum  = 1031760 31504.3217615250
 D1KAT checksum  = 2249280 2785.5456395519
 D1JvT checksum  = 1031760 20092.5009345510
 D1KAT checksum  = 2249280 1211.8834368535
   1         3          45      0.229101    0.028179
   2         3          45      0.041949    0.007090
   3         3          45      0.005996    0.001080
   4         3          45      0.000896    0.000183
   5        14          34      0.000110    0.000021
   6        45           3      0.000006    0.000003
   7        48           0      0.000000    0.000000    Roots Converged
 Time for AOints: 154.7 s (CPU) 9.5 s (wall)
 ------------------------------------------------------------------------------
                     AOints        : Timing summary (seconds)
 ------------------------------------------------------------------------------
     job step          cpu (% of tot)      sys (% of tot)     wall (% of tot)
 ------------------------------------------------------------------------------
  cpscf_lag         0.1632E+04 (45.6)   0.1104E-01 (69.3)   0.3765E+03 (51.5)
  iterzp            0.1788E+04 (50.0)   0.3818E-02 (24.0)   0.3453E+03 (47.2)
  make_fx           0.0000E+00 ( 0.0)   0.0000E+00 ( 0.0)   0.0000E+00 ( 0.0)
  AOints            0.1547E+03 ( 4.3)   0.1077E-02 ( 6.8)   0.9490E+01 ( 1.3)
 ------------------------------------------------------------------------------
   Grand Totals     0.3575E+04          0.1594E-01          0.7317E+03
 ------------------------------------------------------------------------------
 Calculating analytic Hessian of the SCF energy
 Polarizability Matrix (a.u.)
            1           2           3
    1 -97.4098512   5.6433222  -0.5135194
    2   5.6433222 -66.1817840   0.0966196
    3  -0.5135194   0.0966196 -47.5434401
atom: 0 element: 8
atom: 1 element: 8
atom: 2 element: 8
atom: 3 element: 6
atom: 4 element: 6
atom: 5 element: 6
atom: 6 element: 6
atom: 7 element: 6
atom: 8 element: 1
atom: 9 element: 1
atom: 10 element: 1
atom: 11 element: 1
atom: 12 element: 1
atom: 13 element: 1
atom: 14 element: 1
 
 Direct stationary perturbation theory relativistic correction:
 
 rels  =       0.135434377938
 relv  =      -0.624400281021
 rel2e =       0.000000000000
 E_rel =      -0.488965903083
 
 Hessian of the SCF Energy
            1           2           3           4           5           6
    1   0.5808153   0.0502178  -0.0016280  -0.1122402  -0.0159471  -0.0008462
    2   0.0502178   0.3790807   0.0111985   0.0195912   0.0217366   0.0002403
    3  -0.0016280   0.0111985   0.0768952   0.0004872   0.0004001   0.0118373
    4  -0.1122402   0.0195912   0.0004872   0.6065107  -0.0335109   0.0008450
    5  -0.0159471   0.0217366   0.0004001  -0.0335109   0.3791537   0.0063697
    6  -0.0008462   0.0002403   0.0118373   0.0008450   0.0063697   0.0483944
    7  -0.0075512  -0.0565179  -0.0013073  -0.0067059   0.0527698   0.0012742
    8  -0.0520909  -0.0705789  -0.0028133   0.0528424  -0.0664476  -0.0022690
    9  -0.0016205  -0.0030752   0.0308754   0.0012418  -0.0022118   0.0274148
   10  -0.1479069   0.0413332   0.0032333   0.0097940  -0.0013193   0.0000679
   11   0.0733342  -0.1286773  -0.0011475  -0.0095915  -0.0024937  -0.0002669
   12   0.0067234   0.0000010  -0.0640494  -0.0008098  -0.0001118   0.0034752
   13   0.0112069   0.0014084   0.0000643  -0.2155317  -0.0557438  -0.0019340
   14   0.0111964  -0.0028135  -0.0001597  -0.0851355  -0.1587959  -0.0017135
   15   0.0002052  -0.0000394   0.0019371  -0.0026237  -0.0016100  -0.0402226
   16  -0.0474005  -0.0226213  -0.0014316  -0.0021395  -0.0010183  -0.0000112
   17   0.0180819   0.0161831   0.0002042   0.0022355   0.0008484   0.0000319
   18  -0.0027670  -0.0011431   0.0019235  -0.0002295  -0.0000267   0.0001255
   19  -0.0061509   0.0008603   0.0000369  -0.0699880   0.0185190  -0.0007829
   20  -0.0016112   0.0012423   0.0000583  -0.0213304   0.0238912  -0.0001441
   21  -0.0000588   0.0000069   0.0002717  -0.0009741   0.0002421   0.0083084
   22  -0.2294771  -0.0792765  -0.0020267  -0.1902753   0.0673960   0.0015131
   23  -0.1045750  -0.1890575  -0.0036520   0.0787560  -0.1856072  -0.0022883
   24  -0.0027249  -0.0038608  -0.0721261   0.0019258  -0.0025579  -0.0659057
   25  -0.0192102   0.0229979  -0.0253572  -0.0018410  -0.0004636   0.0007167
   26   0.0116700  -0.0126016   0.0107720   0.0009260   0.0000935   0.0000030
   27  -0.0036999  -0.0036644   0.0073657   0.0000256  -0.0006373  -0.0004184
   28  -0.0206092   0.0233889   0.0279231  -0.0019906  -0.0003137  -0.0007786
   29   0.0135087  -0.0130836  -0.0140320   0.0010623   0.0000404   0.0000881
   30   0.0048620   0.0004045   0.0046562   0.0001507   0.0006745  -0.0003657
   31  -0.0000107   0.0016336   0.0000485  -0.0140240  -0.0341208  -0.0000640
   32  -0.0009817   0.0002391   0.0000176  -0.0083472  -0.0117647  -0.0000795
   33  -0.0000497  -0.0000289   0.0001489  -0.0002982  -0.0005524   0.0046361
   34  -0.0040483  -0.0036606  -0.0002785  -0.0010596  -0.0001352  -0.0000005
   35  -0.0044708  -0.0033238  -0.0002956  -0.0008367  -0.0001851  -0.0000144
   36   0.0021371  -0.0005036   0.0008009   0.0002832  -0.0000365  -0.0000329
   37   0.0033253   0.0006786   0.0002305   0.0000792   0.0002860  -0.0000139
   38   0.0009308   0.0017127  -0.0005430  -0.0002317   0.0001154   0.0000190
   39  -0.0005320   0.0004592  -0.0003090  -0.0000827  -0.0000318  -0.0000479
   40  -0.0008866   0.0002672   0.0000225  -0.0033883   0.0044580  -0.0000904
   41   0.0006429  -0.0001808  -0.0000130   0.0047315  -0.0020664   0.0000559
   42  -0.0000042   0.0000278  -0.0005609  -0.0000788   0.0000734   0.0107944
   43   0.0001443  -0.0003010  -0.0000170   0.0028001  -0.0008560   0.0001048
   44   0.0000941   0.0001225   0.0000054  -0.0011610   0.0014814  -0.0000323
   45   0.0000036  -0.0000228   0.0003335   0.0001374   0.0000165  -0.0079927
            7           8           9          10          11          12
    1  -0.0075512  -0.0520909  -0.0016205  -0.1479069   0.0733342   0.0067234
    2  -0.0565179  -0.0705789  -0.0030752   0.0413332  -0.1286773   0.0000010
    3  -0.0013073  -0.0028133   0.0308754   0.0032333  -0.0011475  -0.0640494
    4  -0.0067059   0.0528424   0.0012418   0.0097940  -0.0095915  -0.0008098
    5   0.0527698  -0.0664476  -0.0022118  -0.0013193  -0.0024937  -0.0001118
    6   0.0012742  -0.0022690   0.0274148   0.0000679  -0.0002669   0.0034752
    7   0.1250989   0.0136117   0.0005324   0.0048597  -0.0059897  -0.0005636
    8   0.0136117   0.8734186   0.0219950   0.0192852  -0.0084104  -0.0001801
    9   0.0005324   0.0219950   0.0394856   0.0004200  -0.0000878  -0.0034553
   10   0.0048597   0.0192852   0.0004200   0.4677659   0.0431159   0.0098113
   11  -0.0059897  -0.0084104  -0.0000878   0.0431159   0.5444124  -0.0267596
   12  -0.0005636  -0.0001801  -0.0034553   0.0098113  -0.0267596   0.5438163
   13   0.0040682  -0.0223383  -0.0004997  -0.0036558   0.0011174   0.0001545
   14   0.0026807  -0.0119912  -0.0002495  -0.0012579   0.0020488   0.0000539
   15   0.0002691  -0.0001544  -0.0001424  -0.0000542  -0.0000665   0.0017952
   16   0.0006996  -0.0018981   0.0000927  -0.1661936  -0.0770386  -0.0087214
   17  -0.0014226   0.0020046   0.0000760  -0.0948097  -0.1711134   0.0109303
   18   0.0001963   0.0001561   0.0005467  -0.0090112   0.0107175  -0.0498702
   19  -0.0007450   0.0061786   0.0001508   0.0013965  -0.0009381  -0.0000790
   20   0.0030692   0.0029403   0.0000201  -0.0001042  -0.0003189  -0.0000006
   21  -0.0000116   0.0001008   0.0001289   0.0000234  -0.0000174   0.0000168
   22  -0.1166837  -0.0138468  -0.0001648  -0.0665392  -0.0096109   0.0006723
   23  -0.0123284  -0.7256589  -0.0165617  -0.0098871   0.0229883   0.0005744
   24  -0.0004156  -0.0166746  -0.0937053   0.0002599   0.0016541  -0.0030852
   25  -0.0001265  -0.0031688   0.0003722  -0.0506517   0.0007971   0.0009246
   26   0.0000822   0.0012083  -0.0001225   0.0082390  -0.1390186   0.1255534
   27   0.0011059  -0.0018837   0.0000993  -0.0100827   0.1257029  -0.2126179
   28  -0.0002166  -0.0031050  -0.0005874  -0.0451004  -0.0061349  -0.0122174
   29   0.0001531   0.0011766   0.0001850   0.0048397  -0.1175573  -0.1140344
   30  -0.0010561   0.0020512   0.0002953   0.0052567  -0.1085867  -0.2217852
   31  -0.0013164   0.0043772   0.0000759  -0.0000886   0.0000941  -0.0000096
   32   0.0039152   0.0016258   0.0000401   0.0002860  -0.0001283  -0.0000083
   33   0.0000645  -0.0000121  -0.0010524   0.0000181  -0.0000006   0.0000124
   34  -0.0002505  -0.0006531   0.0000078  -0.0099955   0.0114398  -0.0031932
   35   0.0000422  -0.0002110   0.0000116  -0.0169795   0.0104982  -0.0040868
   36   0.0000411  -0.0000439  -0.0001256  -0.0006300   0.0019380   0.0009722
   37  -0.0005165   0.0008231  -0.0000339   0.0061842  -0.0204614   0.0073158
   38  -0.0001597   0.0005761  -0.0000275   0.0073115  -0.0123315   0.0080607
   39  -0.0001039  -0.0002475  -0.0000218   0.0006919  -0.0030876   0.0048933
   40  -0.0000990   0.0007678   0.0000244   0.0002071  -0.0001830  -0.0000089
   41  -0.0001246  -0.0003099  -0.0000032  -0.0000403   0.0000942   0.0000048
   42   0.0000204  -0.0000037  -0.0001376  -0.0000008   0.0000164  -0.0003089
   43  -0.0005151  -0.0007850  -0.0000117  -0.0000758   0.0000494   0.0000010
   44   0.0002190   0.0006576   0.0000114  -0.0000124   0.0000075   0.0000031
   45  -0.0000458  -0.0000209  -0.0002056  -0.0000034  -0.0000084   0.0001905
           13          14          15          16          17          18
    1   0.0112069   0.0111964   0.0002052  -0.0474005   0.0180819  -0.0027670
    2   0.0014084  -0.0028135  -0.0000394  -0.0226213   0.0161831  -0.0011431
    3   0.0000643  -0.0001597   0.0019371  -0.0014316   0.0002042   0.0019235
    4  -0.2155317  -0.0851355  -0.0026237  -0.0021395   0.0022355  -0.0002295
    5  -0.0557438  -0.1587959  -0.0016100  -0.0010183   0.0008484  -0.0000267
    6  -0.0019340  -0.0017135  -0.0402226  -0.0000112   0.0000319   0.0001255
    7   0.0040682   0.0026807   0.0002691   0.0006996  -0.0014226   0.0001963
    8  -0.0223383  -0.0119912  -0.0001544  -0.0018981   0.0020046   0.0001561
    9  -0.0004997  -0.0002495  -0.0001424   0.0000927   0.0000760   0.0005467
   10  -0.0036558  -0.0012579  -0.0000542  -0.1661936  -0.0948097  -0.0090112
   11   0.0011174   0.0020488  -0.0000665  -0.0770386  -0.1711134   0.0107175
   12   0.0001545   0.0000539   0.0017952  -0.0087214   0.0109303  -0.0498702
   13   0.7583301  -0.1939836   0.0070759   0.0001295  -0.0004050  -0.0000429
   14  -0.1939836   0.7841373  -0.0022087   0.0004487  -0.0005049   0.0000199
   15   0.0070759  -0.0022087   0.1291433   0.0000429  -0.0000200   0.0000572
   16   0.0001295   0.0004487   0.0000429   0.5934099  -0.0185851   0.1025440
   17  -0.0004050  -0.0005049  -0.0000200  -0.0185851   0.5857867  -0.1348282
   18  -0.0000429   0.0000199   0.0000572   0.1025440  -0.1348282   0.1030353
   19  -0.4116846   0.2293141  -0.0044530  -0.0001963   0.0002588  -0.0000041
   20   0.2343177  -0.2922173   0.0030402  -0.0001005   0.0000937  -0.0000224
   21  -0.0044609   0.0030206  -0.0521098  -0.0000095   0.0000247   0.0000333
   22  -0.0799243   0.0093321   0.0000421  -0.0029952   0.0004261  -0.0005670
   23   0.0195066   0.0339731   0.0005410   0.0052703  -0.0063357   0.0002269
   24   0.0001889   0.0007904  -0.0059935  -0.0000309  -0.0004187  -0.0002027
   25   0.0005815   0.0002462   0.0003325   0.0046382  -0.0164848   0.0155992
   26  -0.0003370  -0.0001156  -0.0001254  -0.0028525  -0.0174612   0.0144906
   27  -0.0000318   0.0000472  -0.0000588   0.0014495  -0.0024918   0.0046033
   28   0.0006376   0.0002779  -0.0003132  -0.0008248  -0.0158301  -0.0155088
   29  -0.0003610  -0.0001345   0.0001444  -0.0082276  -0.0149986  -0.0148015
   30  -0.0000209  -0.0000596  -0.0000224  -0.0051372  -0.0015769   0.0047495
   31  -0.0541317   0.0138974  -0.0003138  -0.0000300   0.0000336  -0.0000032
   32   0.0047249  -0.3492859   0.0003197  -0.0000330   0.0000409  -0.0000036
   33  -0.0001955   0.0002991  -0.0413558   0.0000031  -0.0000081  -0.0000397
   34   0.0003664   0.0002186   0.0000167  -0.3157404   0.0766777  -0.0645193
   35   0.0001325   0.0001587   0.0000075   0.0806841  -0.0801719   0.0299543
   36  -0.0000242  -0.0000215  -0.0000159  -0.0625345   0.0280276  -0.0248490
   37  -0.0000795  -0.0000456  -0.0000158  -0.0633300   0.0497973  -0.0256797
   38   0.0000528   0.0000205   0.0000151   0.0459442  -0.3143391   0.0952506
   39   0.0000405   0.0000126   0.0000289  -0.0262583   0.1000629  -0.0400760
   40  -0.0161931  -0.0160990  -0.0001278  -0.0000416   0.0000379  -0.0000027
   41   0.0170184   0.0105981   0.0001823   0.0000257  -0.0000319   0.0000069
   42  -0.0002461  -0.0001777  -0.0014986  -0.0000047  -0.0000029  -0.0000145
   43   0.0058802   0.0289096  -0.0000828   0.0000147  -0.0000114  -0.0000040
   44  -0.0051099  -0.0150778  -0.0000259   0.0000018  -0.0000008   0.0000027
   45  -0.0000682   0.0003465   0.0084580   0.0000073  -0.0000110  -0.0000223
           19          20          21          22          23          24
    1  -0.0061509  -0.0016112  -0.0000588  -0.2294771  -0.1045750  -0.0027249
    2   0.0008603   0.0012423   0.0000069  -0.0792765  -0.1890575  -0.0038608
    3   0.0000369   0.0000583   0.0002717  -0.0020267  -0.0036520  -0.0721261
    4  -0.0699880  -0.0213304  -0.0009741  -0.1902753   0.0787560   0.0019258
    5   0.0185190   0.0238912   0.0002421   0.0673960  -0.1856072  -0.0025579
    6  -0.0007829  -0.0001441   0.0083084   0.0015131  -0.0022883  -0.0659057
    7  -0.0007450   0.0030692  -0.0000116  -0.1166837  -0.0123284  -0.0004156
    8   0.0061786   0.0029403   0.0001008  -0.0138468  -0.7256589  -0.0166746
    9   0.0001508   0.0000201   0.0001289  -0.0001648  -0.0165617  -0.0937053
   10   0.0013965  -0.0001042   0.0000234  -0.0665392  -0.0098871   0.0002599
   11  -0.0009381  -0.0003189  -0.0000174  -0.0096109   0.0229883   0.0016541
   12  -0.0000790  -0.0000006   0.0000168   0.0006723   0.0005744  -0.0030852
   13  -0.4116846   0.2343177  -0.0044609  -0.0799243   0.0195066   0.0001889
   14   0.2293141  -0.2922173   0.0030206   0.0093321   0.0339731   0.0007904
   15  -0.0044530   0.0030402  -0.0521098   0.0000421   0.0005410  -0.0059935
   16  -0.0001963  -0.0001005  -0.0000095  -0.0029952   0.0052703  -0.0000309
   17   0.0002588   0.0000937   0.0000247   0.0004261  -0.0063357  -0.0004187
   18  -0.0000041  -0.0000224   0.0000333  -0.0005670   0.0002269  -0.0002027
   19   0.8245974  -0.1037012   0.0081783   0.0107024  -0.0150818  -0.0003162
   20  -0.1037012   0.7419517  -0.0023164  -0.0030203  -0.0081292  -0.0002355
   21   0.0081783  -0.0023164   0.0980569   0.0001552  -0.0002334   0.0003196
   22   0.0107024  -0.0030203   0.0001552   0.6605045   0.0321075   0.0006076
   23  -0.0150818  -0.0081292  -0.0002334   0.0321075   1.0638161   0.0218370
   24  -0.0003162  -0.0002355   0.0003196   0.0006076   0.0218370   0.2360631
   25  -0.0002400  -0.0000283  -0.0000174   0.0049296   0.0087124  -0.0023912
   26   0.0001220   0.0000034  -0.0000042  -0.0033877  -0.0018415  -0.0000402
   27  -0.0000029  -0.0000366   0.0000124   0.0009770   0.0037646   0.0010638
   28  -0.0002616  -0.0000275   0.0000067   0.0051954   0.0085626   0.0031457
   29   0.0001366   0.0000035   0.0000090  -0.0035804  -0.0018270  -0.0003339
   30   0.0000243   0.0000352   0.0000149  -0.0015299  -0.0043067   0.0006580
   31   0.0055898   0.0246949  -0.0000518   0.0032609  -0.0104343  -0.0001802
   32  -0.0022942  -0.0067123  -0.0000293   0.0032238  -0.0040004  -0.0001468
   33  -0.0000950   0.0004226   0.0075481   0.0000900  -0.0000362   0.0007516
   34  -0.0001435  -0.0000140   0.0000040   0.0011854   0.0014991  -0.0000254
   35  -0.0000841  -0.0000332  -0.0000088  -0.0000861   0.0014595   0.0000584
   36   0.0000218   0.0000074  -0.0000238   0.0001123   0.0000111   0.0004852
   37   0.0000315   0.0000050  -0.0000001  -0.0002577  -0.0014871  -0.0000015
   38  -0.0000236   0.0000026  -0.0000103   0.0001193  -0.0004559  -0.0000843
   39  -0.0000143   0.0000057  -0.0000287   0.0002014   0.0000944  -0.0000872
   40  -0.2939650  -0.1134704  -0.0025432   0.0008094  -0.0020479  -0.0001102
   41  -0.1211055  -0.1163617  -0.0011653  -0.0000180   0.0014494   0.0000366
   42  -0.0024325  -0.0010871  -0.0290883  -0.0001126  -0.0000536   0.0028625
   43  -0.0589428  -0.0186788  -0.0002400  -0.0004351   0.0014271   0.0000682
   44  -0.0121608  -0.3463559   0.0003810   0.0002220  -0.0007731  -0.0000238
   45  -0.0002322   0.0002532  -0.0334604   0.0000300   0.0000825  -0.0010981
           25          26          27          28          29          30
    1  -0.0192102   0.0116700  -0.0036999  -0.0206092   0.0135087   0.0048620
    2   0.0229979  -0.0126016  -0.0036644   0.0233889  -0.0130836   0.0004045
    3  -0.0253572   0.0107720   0.0073657   0.0279231  -0.0140320   0.0046562
    4  -0.0018410   0.0009260   0.0000256  -0.0019906   0.0010623   0.0001507
    5  -0.0004636   0.0000935  -0.0006373  -0.0003137   0.0000404   0.0006745
    6   0.0007167   0.0000030  -0.0004184  -0.0007786   0.0000881  -0.0003657
    7  -0.0001265   0.0000822   0.0011059  -0.0002166   0.0001531  -0.0010561
    8  -0.0031688   0.0012083  -0.0018837  -0.0031050   0.0011766   0.0020512
    9   0.0003722  -0.0001225   0.0000993  -0.0005874   0.0001850   0.0002953
   10  -0.0506517   0.0082390  -0.0100827  -0.0451004   0.0048397   0.0052567
   11   0.0007971  -0.1390186   0.1257029  -0.0061349  -0.1175573  -0.1085867
   12   0.0009246   0.1255534  -0.2126179  -0.0122174  -0.1140344  -0.2217852
   13   0.0005815  -0.0003370  -0.0000318   0.0006376  -0.0003610  -0.0000209
   14   0.0002462  -0.0001156   0.0000472   0.0002779  -0.0001345  -0.0000596
   15   0.0003325  -0.0001254  -0.0000588  -0.0003132   0.0001444  -0.0000224
   16   0.0046382  -0.0028525   0.0014495  -0.0008248  -0.0082276  -0.0051372
   17  -0.0164848  -0.0174612  -0.0024918  -0.0158301  -0.0149986  -0.0015769
   18   0.0155992   0.0144906   0.0046033  -0.0155088  -0.0148015   0.0047495
   19  -0.0002400   0.0001220  -0.0000029  -0.0002616   0.0001366   0.0000243
   20  -0.0000283   0.0000034  -0.0000366  -0.0000275   0.0000035   0.0000352
   21  -0.0000174  -0.0000042   0.0000124   0.0000067   0.0000090   0.0000149
   22   0.0049296  -0.0033877   0.0009770   0.0051954  -0.0035804  -0.0015299
   23   0.0087124  -0.0018415   0.0037646   0.0085626  -0.0018270  -0.0043067
   24  -0.0023912  -0.0000402   0.0010638   0.0031457  -0.0003339   0.0006580
   25   0.0614072  -0.0104084   0.0104598   0.0031498  -0.0008157  -0.0006439
   26  -0.0104084   0.1590587  -0.1365375  -0.0012952   0.0111758  -0.0140489
   27   0.0104598  -0.1365375   0.2236477  -0.0006762   0.0164278  -0.0234691
   28   0.0031498  -0.0012952  -0.0006762   0.0613437  -0.0055627  -0.0016804
   29  -0.0008157   0.0111758   0.0164278  -0.0055627   0.1360881   0.1261320
   30  -0.0006439  -0.0140489  -0.0234691  -0.0016804   0.1261320   0.2364208
   31  -0.0001055   0.0000040  -0.0000280  -0.0000989   0.0000021   0.0000356
   32  -0.0000360   0.0000353  -0.0000128  -0.0000393   0.0000338   0.0000158
   33  -0.0000276   0.0000162  -0.0000056   0.0000205  -0.0000138  -0.0000105
   34   0.0002925  -0.0001406   0.0005067  -0.0003229  -0.0004990  -0.0002828
   35   0.0006374   0.0005561   0.0007009   0.0005370  -0.0005141  -0.0006451
   36  -0.0002372  -0.0009525   0.0004730   0.0008437  -0.0001464   0.0000572
   37  -0.0028165  -0.0026332  -0.0000106  -0.0008899  -0.0006708   0.0000286
   38  -0.0019947  -0.0010828  -0.0013760  -0.0004701  -0.0003905  -0.0000908
   39   0.0002885   0.0009781  -0.0006935  -0.0001988   0.0003979  -0.0011939
   40  -0.0000280   0.0000192  -0.0000022  -0.0000322   0.0000215   0.0000043
   41   0.0000154  -0.0000074   0.0000027   0.0000171  -0.0000090  -0.0000039
   42  -0.0000591   0.0000065   0.0000166   0.0000605  -0.0000123   0.0000121
   43   0.0000207  -0.0000077   0.0000100   0.0000206  -0.0000066  -0.0000109
   44  -0.0000060  -0.0000025  -0.0000059  -0.0000052  -0.0000036   0.0000054
   45   0.0000401   0.0000114  -0.0000184  -0.0000393  -0.0000099  -0.0000172
           31          32          33          34          35          36
    1  -0.0000107  -0.0009817  -0.0000497  -0.0040483  -0.0044708   0.0021371
    2   0.0016336   0.0002391  -0.0000289  -0.0036606  -0.0033238  -0.0005036
    3   0.0000485   0.0000176   0.0001489  -0.0002785  -0.0002956   0.0008009
    4  -0.0140240  -0.0083472  -0.0002982  -0.0010596  -0.0008367   0.0002832
    5  -0.0341208  -0.0117647  -0.0005524  -0.0001352  -0.0001851  -0.0000365
    6  -0.0000640  -0.0000795   0.0046361  -0.0000005  -0.0000144  -0.0000329
    7  -0.0013164   0.0039152   0.0000645  -0.0002505   0.0000422   0.0000411
    8   0.0043772   0.0016258  -0.0000121  -0.0006531  -0.0002110  -0.0000439
    9   0.0000759   0.0000401  -0.0010524   0.0000078   0.0000116  -0.0001256
   10  -0.0000886   0.0002860   0.0000181  -0.0099955  -0.0169795  -0.0006300
   11   0.0000941  -0.0001283  -0.0000006   0.0114398   0.0104982   0.0019380
   12  -0.0000096  -0.0000083   0.0000124  -0.0031932  -0.0040868   0.0009722
   13  -0.0541317   0.0047249  -0.0001955   0.0003664   0.0001325  -0.0000242
   14   0.0138974  -0.3492859   0.0002991   0.0002186   0.0001587  -0.0000215
   15  -0.0003138   0.0003197  -0.0413558   0.0000167   0.0000075  -0.0000159
   16  -0.0000300  -0.0000330   0.0000031  -0.3157404   0.0806841  -0.0625345
   17   0.0000336   0.0000409  -0.0000081   0.0766777  -0.0801719   0.0280276
   18  -0.0000032  -0.0000036  -0.0000397  -0.0645193   0.0299543  -0.0248490
   19   0.0055898  -0.0022942  -0.0000950  -0.0001435  -0.0000841   0.0000218
   20   0.0246949  -0.0067123   0.0004226  -0.0000140  -0.0000332   0.0000074
   21  -0.0000518  -0.0000293   0.0075481   0.0000040  -0.0000088  -0.0000238
   22   0.0032609   0.0032238   0.0000900   0.0011854  -0.0000861   0.0001123
   23  -0.0104343  -0.0040004  -0.0000362   0.0014991   0.0014595   0.0000111
   24  -0.0001802  -0.0001468   0.0007516  -0.0000254   0.0000584   0.0004852
   25  -0.0001055  -0.0000360  -0.0000276   0.0002925   0.0006374  -0.0002372
   26   0.0000040   0.0000353   0.0000162  -0.0001406   0.0005561  -0.0009525
   27  -0.0000280  -0.0000128  -0.0000056   0.0005067   0.0007009   0.0004730
   28  -0.0000989  -0.0000393   0.0000205  -0.0003229   0.0005370   0.0008437
   29   0.0000021   0.0000338  -0.0000138  -0.0004990  -0.0005141  -0.0001464
   30   0.0000356   0.0000158  -0.0000105  -0.0002828  -0.0006451   0.0000572
   31   0.0639966  -0.0021662   0.0005774  -0.0000056  -0.0000050   0.0000013
   32  -0.0021662   0.3690571  -0.0001233  -0.0000210  -0.0000103   0.0000034
   33   0.0005774  -0.0001233   0.0252483  -0.0000039   0.0000017   0.0000094
   34  -0.0000056  -0.0000210  -0.0000039   0.3285103  -0.0827445   0.0671691
   35  -0.0000050  -0.0000103   0.0000017  -0.0827445   0.0723699  -0.0292779
   36   0.0000013   0.0000034   0.0000094   0.0671691  -0.0292779   0.0209053
   37   0.0000267   0.0000156  -0.0000004   0.0012255   0.0231878  -0.0071893
   38   0.0000083   0.0000008   0.0000061  -0.0019793  -0.0006082   0.0010000
   39  -0.0000050  -0.0000037   0.0000112   0.0006044   0.0035874   0.0013285
   40   0.0003696   0.0005488   0.0000738  -0.0000208  -0.0000141   0.0000050
   41  -0.0002355   0.0004587  -0.0000194   0.0000109   0.0000122  -0.0000037
   42   0.0000721   0.0000202  -0.0064916  -0.0000025   0.0000007   0.0000099
   43  -0.0034322   0.0012044  -0.0001773   0.0000072  -0.0000003   0.0000007
   44   0.0022167   0.0004104   0.0000491   0.0000014   0.0000030  -0.0000016
   45  -0.0001551  -0.0000097   0.0105896  -0.0000025   0.0000061   0.0000055
           37          38          39          40          41          42
    1   0.0033253   0.0009308  -0.0005320  -0.0008866   0.0006429  -0.0000042
    2   0.0006786   0.0017127   0.0004592   0.0002672  -0.0001808   0.0000278
    3   0.0002305  -0.0005430  -0.0003090   0.0000225  -0.0000130  -0.0005609
    4   0.0000792  -0.0002317  -0.0000827  -0.0033883   0.0047315  -0.0000788
    5   0.0002860   0.0001154  -0.0000318   0.0044580  -0.0020664   0.0000734
    6  -0.0000139   0.0000190  -0.0000479  -0.0000904   0.0000559   0.0107944
    7  -0.0005165  -0.0001597  -0.0001039  -0.0000990  -0.0001246   0.0000204
    8   0.0008231   0.0005761  -0.0002475   0.0007678  -0.0003099  -0.0000037
    9  -0.0000339  -0.0000275  -0.0000218   0.0000244  -0.0000032  -0.0001376
   10   0.0061842   0.0073115   0.0006919   0.0002071  -0.0000403  -0.0000008
   11  -0.0204614  -0.0123315  -0.0030876  -0.0001830   0.0000942   0.0000164
   12   0.0073158   0.0080607   0.0048933  -0.0000089   0.0000048  -0.0003089
   13  -0.0000795   0.0000528   0.0000405  -0.0161931   0.0170184  -0.0002461
   14  -0.0000456   0.0000205   0.0000126  -0.0160990   0.0105981  -0.0001777
   15  -0.0000158   0.0000151   0.0000289  -0.0001278   0.0001823  -0.0014986
   16  -0.0633300   0.0459442  -0.0262583  -0.0000416   0.0000257  -0.0000047
   17   0.0497973  -0.3143391   0.1000629   0.0000379  -0.0000319  -0.0000029
   18  -0.0256797   0.0952506  -0.0400760  -0.0000027   0.0000069  -0.0000145
   19   0.0000315  -0.0000236  -0.0000143  -0.2939650  -0.1211055  -0.0024325
   20   0.0000050   0.0000026   0.0000057  -0.1134704  -0.1163617  -0.0010871
   21  -0.0000001  -0.0000103  -0.0000287  -0.0025432  -0.0011653  -0.0290883
   22  -0.0002577   0.0001193   0.0002014   0.0008094  -0.0000180  -0.0001126
   23  -0.0014871  -0.0004559   0.0000944  -0.0020479   0.0014494  -0.0000536
   24  -0.0000015  -0.0000843  -0.0000872  -0.0001102   0.0000366   0.0028625
   25  -0.0028165  -0.0019947   0.0002885  -0.0000280   0.0000154  -0.0000591
   26  -0.0026332  -0.0010828   0.0009781   0.0000192  -0.0000074   0.0000065
   27  -0.0000106  -0.0013760  -0.0006935  -0.0000022   0.0000027   0.0000166
   28  -0.0008899  -0.0004701  -0.0001988  -0.0000322   0.0000171   0.0000605
   29  -0.0006708  -0.0003905   0.0003979   0.0000215  -0.0000090  -0.0000123
   30   0.0000286  -0.0000908  -0.0011939   0.0000043  -0.0000039   0.0000121
   31   0.0000267   0.0000083  -0.0000050   0.0003696  -0.0002355   0.0000721
   32   0.0000156   0.0000008  -0.0000037   0.0005488   0.0004587   0.0000202
   33  -0.0000004   0.0000061   0.0000112   0.0000738  -0.0000194  -0.0064916
   34   0.0012255  -0.0019793   0.0006044  -0.0000208   0.0000109  -0.0000025
   35   0.0231878  -0.0006082   0.0035874  -0.0000141   0.0000122   0.0000007
   36  -0.0071893   0.0010000   0.0013285   0.0000050  -0.0000037   0.0000099
   37   0.0570252  -0.0495022   0.0253672   0.0000052   0.0000024   0.0000018
   38  -0.0495022   0.3267737  -0.1022251  -0.0000026   0.0000025  -0.0000005
   39   0.0253672  -0.1022251   0.0361787  -0.0000031  -0.0000015   0.0000029
   40   0.0000052  -0.0000026  -0.0000031   0.3094575   0.1234802   0.0027310
   41   0.0000024   0.0000025  -0.0000015   0.1234802   0.1118275   0.0011628
   42   0.0000018  -0.0000005   0.0000029   0.0027310   0.0011628   0.0230793
   43  -0.0000129  -0.0000028   0.0000042   0.0038059  -0.0244206   0.0000554
   44   0.0000045   0.0000037  -0.0000010   0.0022163  -0.0054752   0.0000301
   45   0.0000014   0.0000060   0.0000146   0.0000273  -0.0002420   0.0013229
           43          44          45
    1   0.0001443   0.0000941   0.0000036
    2  -0.0003010   0.0001225  -0.0000228
    3  -0.0000170   0.0000054   0.0003335
    4   0.0028001  -0.0011610   0.0001374
    5  -0.0008560   0.0014814   0.0000165
    6   0.0001048  -0.0000323  -0.0079927
    7  -0.0005151   0.0002190  -0.0000458
    8  -0.0007850   0.0006576  -0.0000209
    9  -0.0000117   0.0000114  -0.0002056
   10  -0.0000758  -0.0000124  -0.0000034
   11   0.0000494   0.0000075  -0.0000084
   12   0.0000010   0.0000031   0.0001905
   13   0.0058802  -0.0051099  -0.0000682
   14   0.0289096  -0.0150778   0.0003465
   15  -0.0000828  -0.0000259   0.0084580
   16   0.0000147   0.0000018   0.0000073
   17  -0.0000114  -0.0000008  -0.0000110
   18  -0.0000040   0.0000027  -0.0000223
   19  -0.0589428  -0.0121608  -0.0002322
   20  -0.0186788  -0.3463559   0.0002532
   21  -0.0002400   0.0003810  -0.0334604
   22  -0.0004351   0.0002220   0.0000300
   23   0.0014271  -0.0007731   0.0000825
   24   0.0000682  -0.0000238  -0.0010981
   25   0.0000207  -0.0000060   0.0000401
   26  -0.0000077  -0.0000025   0.0000114
   27   0.0000100  -0.0000059  -0.0000184
   28   0.0000206  -0.0000052  -0.0000393
   29  -0.0000066  -0.0000036  -0.0000099
   30  -0.0000109   0.0000054  -0.0000172
   31  -0.0034322   0.0022167  -0.0001551
   32   0.0012044   0.0004104  -0.0000097
   33  -0.0001773   0.0000491   0.0105896
   34   0.0000072   0.0000014  -0.0000025
   35  -0.0000003   0.0000030   0.0000061
   36   0.0000007  -0.0000016   0.0000055
   37  -0.0000129   0.0000045   0.0000014
   38  -0.0000028   0.0000037   0.0000060
   39   0.0000042  -0.0000010   0.0000146
   40   0.0038059   0.0022163   0.0000273
   41  -0.0244206  -0.0054752  -0.0002420
   42   0.0000554   0.0000301   0.0013229
   43   0.0507203   0.0134796   0.0002994
   44   0.0134796   0.3650027  -0.0003976
   45   0.0002994  -0.0003976   0.0219000
 Gradient time:  CPU 4251.47 s  wall 1095.37 s
 **********************************************************************
 **                                                                  **
 **                       VIBRATIONAL ANALYSIS                       **
 **                       --------------------                       **
 **                                                                  **
 **        VIBRATIONAL FREQUENCIES (CM**-1) AND NORMAL MODES         **
 **     FORCE CONSTANTS (mDYN/ANGSTROM) AND REDUCED MASSES (AMU)     **
 **                  INFRARED INTENSITIES (KM/MOL)                   **
 **                                                                  **
 **********************************************************************
 

 Mode:                 1                      2                      3
 Frequency:       -31.45                  63.28                  84.59
 Force Cnst:      0.0008                 0.0092                 0.0068
 Red. Mass:       1.4312                 3.8797                 1.6036
 IR Active:          YES                    YES                    YES
 IR Intens:        0.806                  0.337                  0.943
 Raman Active:       YES                    YES                    YES
               X      Y      Z        X      Y      Z        X      Y      Z
 O          0.003 -0.008 -0.066   -0.002  0.015 -0.200   -0.002  0.013 -0.048
 O          0.004 -0.002 -0.017   -0.004  0.007 -0.224   -0.005  0.007  0.031
 O         -0.003 -0.008  0.078    0.004  0.004  0.081    0.000  0.012 -0.032
 C         -0.001  0.002 -0.113    0.000 -0.001  0.043   -0.001  0.002 -0.083
 C          0.001  0.003  0.038   -0.001 -0.004 -0.053   -0.001 -0.006  0.152
 C         -0.006  0.005  0.092    0.011 -0.015  0.196    0.013 -0.017  0.101
 C          0.005  0.008 -0.026   -0.012 -0.014  0.274   -0.007 -0.019 -0.078
 C          0.000 -0.007  0.006    0.000  0.009 -0.101   -0.001  0.012 -0.020
 H         -0.036 -0.131 -0.213   -0.155  0.033  0.079   -0.040 -0.114 -0.180
 H          0.047  0.129 -0.200    0.142 -0.031  0.066    0.019  0.137 -0.178
 H         -0.005  0.003  0.133    0.011 -0.004 -0.209    0.007 -0.006  0.445
 H          0.050 -0.093 -0.308   -0.058  0.004  0.544   -0.073  0.014  0.547
 H         -0.134  0.212  0.800    0.144 -0.090 -0.113    0.194 -0.136 -0.369
 H          0.003  0.013  0.019   -0.008 -0.024  0.373   -0.003 -0.031  0.045
 H          0.012  0.008 -0.124   -0.025 -0.013  0.437   -0.017 -0.019 -0.389
 TransDip  -0.025  0.013  0.003    0.011 -0.004  0.014    0.030 -0.006 -0.002

 Mode:                 4                      5                      6
 Frequency:       113.50                 139.77                 178.49
 Force Cnst:      0.0153                 0.0409                 0.0941
 Red. Mass:       2.0114                 3.5508                 5.0132
 IR Active:          YES                    YES                    YES
 IR Intens:       10.530                  2.008                  0.445
 Raman Active:       YES                    YES                    YES
               X      Y      Z        X      Y      Z        X      Y      Z
 O          0.003 -0.003 -0.038   -0.021 -0.126 -0.003    0.004 -0.009  0.362
 O          0.004  0.004 -0.076    0.035 -0.106 -0.018    0.002  0.017 -0.350
 O         -0.002  0.002 -0.123   -0.018 -0.150 -0.006   -0.005  0.007  0.014
 C         -0.000 -0.007  0.169    0.057  0.036 -0.009    0.000  0.001 -0.092
 C          0.002  0.001  0.156   -0.028  0.049  0.021    0.003  0.002  0.036
 C         -0.005  0.001 -0.019   -0.121  0.234  0.021    0.005 -0.007 -0.043
 C          0.002 -0.001  0.011    0.092  0.226  0.007   -0.011 -0.017  0.070
 C          0.001  0.001 -0.086   -0.000 -0.151 -0.010    0.000  0.006  0.020
 H         -0.047  0.200  0.346    0.159  0.031 -0.022    0.196 -0.264 -0.325
 H          0.053 -0.238  0.332    0.153  0.067 -0.029   -0.202  0.286 -0.296
 H          0.000  0.001  0.465   -0.181  0.046  0.064    0.015  0.002  0.307
 H          0.055 -0.019 -0.326   -0.091  0.472  0.215    0.006 -0.017 -0.061
 H         -0.131  0.075  0.286   -0.272  0.142 -0.177    0.025 -0.016 -0.088
 H          0.001 -0.003  0.225    0.009  0.397  0.041   -0.004 -0.036  0.381
 H          0.003 -0.002 -0.322    0.287  0.216 -0.038   -0.029 -0.017 -0.224
 TransDip  -0.025 -0.002  0.101    0.015  0.043  0.002    0.009  0.001 -0.020

 Mode:                 7                      8                      9
 Frequency:       277.99                 380.52                 425.17
 Force Cnst:      0.1771                 0.2873                 0.1681
 Red. Mass:       3.8892                 3.3672                 1.5783
 IR Active:          YES                    YES                    YES
 IR Intens:       13.518                  9.667                 49.506
 Raman Active:       YES                    YES                    YES
               X      Y      Z        X      Y      Z        X      Y      Z
 O         -0.085  0.149  0.010    0.020 -0.051 -0.005    0.033 -0.007  0.013
 O         -0.081 -0.176 -0.011   -0.059 -0.036  0.003   -0.028 -0.013 -0.000
 O          0.247 -0.021 -0.002   -0.123 -0.060 -0.000    0.075  0.001 -0.002
 C         -0.111  0.100  0.007    0.167  0.136  0.013    0.049 -0.038 -0.010
 C         -0.120 -0.083  0.005   -0.122  0.035 -0.000   -0.075  0.045  0.001
 C          0.071 -0.109  0.002    0.288  0.064  0.033    0.050 -0.028 -0.120
 C          0.041  0.158  0.001   -0.150  0.015 -0.002   -0.106  0.019 -0.000
 C          0.011 -0.017  0.000   -0.030 -0.062 -0.002    0.015  0.000  0.004
 H         -0.175  0.078 -0.006    0.209  0.119 -0.003    0.082  0.051  0.060
 H         -0.167  0.090  0.012    0.246  0.150  0.004   -0.028 -0.132  0.059
 H         -0.260 -0.088  0.023   -0.166  0.033  0.001   -0.103  0.042  0.002
 H          0.016 -0.402 -0.149    0.274 -0.249 -0.319   -0.053  0.244  0.717
 H          0.330 -0.063 -0.005    0.544  0.061 -0.129   -0.111  0.141  0.503
 H         -0.090  0.430  0.015   -0.123 -0.045 -0.002   -0.077 -0.043  0.002
 H          0.353  0.143 -0.017   -0.228  0.019 -0.004   -0.185  0.023 -0.005
 TransDip  -0.117  0.005 -0.014    0.083 -0.008 -0.054   -0.053  0.053  0.213

 Mode:                10                     11                     12
 Frequency:       446.24                 523.10                 728.51
 Force Cnst:      0.3172                 0.5540                 0.4789
 Red. Mass:       2.7036                 3.4360                 1.5316
 IR Active:          YES                    YES                    YES
 IR Intens:       18.255                  3.421                  7.311
 Raman Active:       YES                    YES                    YES
               X      Y      Z        X      Y      Z        X      Y      Z
 O          0.044 -0.037 -0.013   -0.141  0.015  0.006    0.003  0.006 -0.007
 O          0.015  0.018  0.005    0.137  0.033  0.002    0.003 -0.009  0.074
 O          0.201 -0.020  0.001    0.019 -0.155 -0.005   -0.006  0.001 -0.003
 C          0.017 -0.089  0.002   -0.157  0.166  0.003   -0.001 -0.000 -0.001
 C         -0.065  0.154  0.002    0.145  0.188  0.002    0.003  0.002 -0.196
 C         -0.101  0.017  0.098    0.011 -0.031 -0.049   -0.002 -0.001  0.001
 C         -0.183  0.018 -0.003    0.000 -0.025 -0.001   -0.001  0.001  0.033
 C          0.047 -0.019 -0.002   -0.001 -0.145 -0.000    0.004 -0.000  0.024
 H         -0.015 -0.160 -0.055   -0.121  0.198  0.031   -0.005  0.000 -0.000
 H          0.071  0.003 -0.063   -0.161  0.088  0.054   -0.003 -0.001 -0.001
 H         -0.099  0.149  0.003    0.127  0.186 -0.001   -0.013  0.002  0.289
 H          0.035  0.010 -0.532   -0.130 -0.301  0.224   -0.000  0.004 -0.000
 H         -0.177 -0.157 -0.401    0.319  0.098  0.176   -0.006 -0.003 -0.002
 H         -0.067 -0.231 -0.003    0.175 -0.391 -0.001   -0.004 -0.009  0.812
 H         -0.482  0.032 -0.007   -0.420 -0.006 -0.003   -0.010  0.001 -0.459
 TransDip  -0.040 -0.041 -0.124    0.022  0.030  0.046    0.001  0.000  0.087

 Mode:                13                     14                     15
 Frequency:       768.00                 805.05                 875.16
 Force Cnst:      1.7238                 4.0583                 0.8133
 Red. Mass:       4.9604                10.6279                 1.8022
 IR Active:          YES                    YES                    YES
 IR Intens:        0.037                 21.230                 14.768
 Raman Active:       YES                    YES                    YES
               X      Y      Z        X      Y      Z        X      Y      Z
 O         -0.125 -0.272 -0.001    0.014 -0.001 -0.179   -0.105  0.069 -0.031
 O         -0.119  0.285  0.011    0.003 -0.004 -0.188   -0.038  0.042 -0.005
 O          0.219 -0.004  0.001   -0.005  0.015 -0.250    0.023 -0.055 -0.012
 C          0.006  0.012 -0.014   -0.001 -0.005 -0.066    0.039 -0.043  0.087
 C          0.009 -0.047 -0.017   -0.004 -0.002  0.003    0.035  0.022 -0.000
 C          0.040  0.059 -0.010   -0.021  0.014  0.029    0.135 -0.034 -0.019
 C          0.041 -0.050  0.003   -0.004  0.001  0.020    0.033 -0.009  0.002
 C         -0.172  0.006  0.001    0.008 -0.016  0.831   -0.067 -0.036  0.031
 H          0.190  0.090  0.038   -0.022  0.224  0.122   -0.209 -0.362 -0.167
 H          0.134 -0.076  0.051    0.047 -0.241  0.100    0.005  0.308 -0.154
 H          0.321 -0.042  0.022   -0.010 -0.002  0.002    0.076  0.023  0.002
 H         -0.057 -0.243  0.047   -0.046 -0.090  0.008    0.314  0.533 -0.066
 H          0.367  0.139  0.054    0.094  0.023 -0.009   -0.439 -0.147 -0.053
 H         -0.118  0.295  0.066   -0.004  0.003 -0.108    0.046 -0.031 -0.003
 H          0.464 -0.067 -0.031   -0.002  0.001 -0.068    0.026 -0.009 -0.007
 TransDip   0.000  0.001  0.006    0.002 -0.005  0.147    0.113 -0.040  0.028

 Mode:                16                     17                     18
 Frequency:       910.05                 936.84                 969.35
 Force Cnst:      0.6565                 1.2867                 1.1429
 Red. Mass:       1.3454                 2.4882                 2.0644
 IR Active:          YES                    YES                    YES
 IR Intens:       76.673                 19.565                 24.952
 Raman Active:       YES                    YES                    YES
               X      Y      Z        X      Y      Z        X      Y      Z
 O         -0.001  0.001 -0.002    0.087  0.063 -0.012    0.049 -0.118 -0.050
 O         -0.001 -0.000 -0.007    0.102  0.130  0.003    0.009 -0.048 -0.004
 O          0.000  0.000 -0.004   -0.030 -0.109 -0.006    0.004  0.082 -0.006
 C          0.001 -0.001 -0.001   -0.038  0.070  0.049   -0.052  0.085  0.180
 C          0.000  0.000  0.053   -0.082 -0.045 -0.001   -0.008 -0.012  0.001
 C          0.001  0.000  0.001   -0.043 -0.044 -0.023   -0.047 -0.019 -0.097
 C          0.003  0.000 -0.166   -0.150 -0.063 -0.003    0.013  0.021 -0.000
 C         -0.001 -0.000  0.012    0.103 -0.071  0.007    0.014  0.044  0.023
 H         -0.001  0.003  0.002   -0.094 -0.091 -0.077   -0.043 -0.466 -0.269
 H         -0.000 -0.005  0.002   -0.003  0.215 -0.061    0.238  0.632 -0.212
 H         -0.001  0.000  0.024    0.190 -0.042  0.003   -0.096 -0.014  0.009
 H          0.002  0.003  0.000   -0.051 -0.018  0.022   -0.145 -0.196  0.086
 H         -0.001 -0.000  0.000   -0.105 -0.049  0.005    0.082  0.052  0.065
 H         -0.003 -0.003  0.648   -0.446  0.549  0.006    0.068 -0.098 -0.002
 H         -0.011  0.002  0.741    0.498 -0.085  0.013   -0.128  0.025  0.010
 TransDip   0.001 -0.000  0.280   -0.132 -0.049  0.017   -0.128  0.073  0.063

 Mode:                19                     20                     21
 Frequency:      1001.60                1083.57                1133.96
 Force Cnst:      0.6592                 2.2101                 1.9383
 Red. Mass:       1.1153                 3.1947                 2.5584
 IR Active:          YES                    YES                    YES
 IR Intens:       24.815                 74.590                 32.468
 Raman Active:       YES                    YES                    YES
               X      Y      Z        X      Y      Z        X      Y      Z
 O         -0.000  0.001  0.001    0.004  0.160 -0.009    0.113 -0.069  0.014
 O          0.000  0.001  0.002   -0.138  0.067  0.001   -0.060  0.090  0.001
 O          0.000 -0.001 -0.001   -0.001 -0.112 -0.004    0.009 -0.038  0.000
 C          0.000 -0.001 -0.001    0.248  0.002  0.047   -0.048  0.220 -0.063
 C          0.001  0.000 -0.097    0.022  0.009  0.000   -0.059 -0.091 -0.001
 C          0.000  0.000  0.000   -0.184 -0.079 -0.036    0.001 -0.146  0.041
 C         -0.000 -0.000  0.021    0.071  0.013  0.001    0.075  0.060  0.001
 C         -0.000 -0.000 -0.001   -0.032 -0.053  0.001    0.008 -0.020 -0.001
 H          0.002  0.003  0.002    0.478 -0.065 -0.025   -0.049  0.353  0.047
 H         -0.003 -0.004  0.002    0.349  0.168 -0.072    0.030 -0.007  0.086
 H         -0.013  0.000  0.833    0.011  0.009  0.001   -0.205 -0.095 -0.003
 H          0.001  0.001 -0.000   -0.340 -0.495  0.063    0.118  0.248 -0.018
 H         -0.000 -0.000 -0.000    0.049 -0.022  0.067   -0.546 -0.286 -0.068
 H          0.003  0.000 -0.349    0.164 -0.170  0.002    0.235 -0.277  0.004
 H         -0.003  0.000  0.417   -0.075  0.016 -0.002   -0.291  0.070 -0.005
 TransDip  -0.005 -0.000  0.159    0.249 -0.120  0.008   -0.182 -0.015 -0.007

 Mode:                22                     23                     24
 Frequency:      1154.98                1222.35                1268.91
 Force Cnst:      2.3300                 4.3060                 1.0281
 Red. Mass:       2.9645                 4.8913                 1.0837
 IR Active:          YES                    YES                    YES
 IR Intens:       43.390                 83.951                  4.028
 Raman Active:       YES                    YES                    YES
               X      Y      Z        X      Y      Z        X      Y      Z
 O          0.135  0.067 -0.005   -0.222  0.015 -0.009   -0.013  0.009  0.047
 O         -0.063  0.125  0.002    0.317  0.106  0.002    0.014  0.002 -0.001
 O         -0.004 -0.117 -0.004    0.007  0.043  0.001    0.001  0.000  0.001
 C         -0.142 -0.147  0.040    0.123 -0.047  0.009    0.015 -0.016 -0.042
 C         -0.071 -0.107 -0.001   -0.177 -0.262 -0.002   -0.005 -0.008 -0.001
 C          0.047  0.160 -0.026   -0.019 -0.018  0.002   -0.006  0.006 -0.028
 C          0.080  0.065  0.001   -0.001  0.105 -0.000   -0.001  0.003 -0.000
 C          0.025 -0.039  0.000   -0.015  0.037  0.001   -0.008  0.001  0.002
 H         -0.315 -0.271 -0.041    0.321 -0.035 -0.001   -0.657  0.079  0.072
 H         -0.241 -0.034 -0.040    0.016 -0.001 -0.017    0.736 -0.049 -0.009
 H         -0.214 -0.112 -0.004   -0.424 -0.277 -0.008   -0.006 -0.008  0.002
 H         -0.001 -0.027  0.000   -0.033 -0.072 -0.002   -0.039 -0.061  0.026
 H          0.475  0.271  0.028    0.002 -0.015  0.016    0.008  0.015 -0.005
 H          0.250 -0.292  0.003    0.091 -0.128  0.002   -0.001  0.001  0.001
 H         -0.308  0.076 -0.005   -0.545  0.128 -0.006   -0.017  0.004 -0.001
 TransDip  -0.199 -0.071  0.002   -0.288  0.056  0.000   -0.047 -0.010 -0.043

 Mode:                25                     26                     27
 Frequency:      1330.25                1340.20                1424.75
 Force Cnst:      1.6943                 2.4380                 1.6207
 Red. Mass:       1.6251                 2.3038                 1.3551
 IR Active:          YES                    YES                    YES
 IR Intens:      474.912                885.546                 92.041
 Raman Active:       YES                    YES                    YES
               X      Y      Z        X      Y      Z        X      Y      Z
 O          0.073  0.033  0.000   -0.098 -0.052 -0.001   -0.032  0.015  0.001
 O          0.043 -0.048 -0.000   -0.100  0.009  0.000   -0.037  0.014  0.000
 O          0.014 -0.017 -0.001   -0.027  0.007  0.000   -0.009  0.009  0.000
 C         -0.043 -0.000 -0.000    0.068  0.007  0.001   -0.113 -0.045 -0.004
 C         -0.009 -0.054 -0.001    0.031 -0.068  0.000    0.035 -0.010  0.001
 C          0.003 -0.005  0.002   -0.004  0.009 -0.003   -0.013 -0.050  0.005
 C         -0.026  0.075 -0.000   -0.019  0.087 -0.000    0.006 -0.003  0.000
 C         -0.173  0.012  0.000    0.261  0.005  0.000    0.092 -0.018 -0.001
 H          0.180  0.004 -0.007   -0.313 -0.007  0.009    0.513  0.152  0.100
 H          0.145 -0.004  0.002   -0.273  0.009 -0.001    0.508  0.128 -0.096
 H          0.879 -0.052  0.014    0.699 -0.077  0.012   -0.075 -0.015 -0.001
 H          0.022  0.049 -0.004   -0.041 -0.090  0.008    0.158  0.427 -0.083
 H          0.016 -0.001  0.000   -0.038 -0.000 -0.002    0.314  0.030  0.048
 H         -0.039  0.086 -0.001   -0.058  0.145 -0.002   -0.082  0.172 -0.001
 H         -0.314  0.093 -0.003   -0.417  0.114 -0.004   -0.177  0.009 -0.002
 TransDip  -0.694  0.078  0.001    0.953  0.005  0.003    0.297 -0.080 -0.005

 Mode:                28                     29                     30
 Frequency:      1439.68                1470.15                1502.66
 Force Cnst:      1.4775                 1.7363                 1.4442
 Red. Mass:       1.2099                 1.3635                 1.0856
 IR Active:          YES                    YES                    YES
 IR Intens:       17.944                  8.996                 13.840
 Raman Active:       YES                    YES                    YES
               X      Y      Z        X      Y      Z        X      Y      Z
 O          0.026  0.003 -0.000    0.013 -0.012  0.001    0.018 -0.013 -0.003
 O         -0.011  0.004 -0.000    0.010 -0.005 -0.000    0.009 -0.004 -0.000
 O          0.006 -0.005 -0.000    0.004 -0.003  0.000    0.004 -0.003  0.000
 C          0.015  0.010  0.001    0.094  0.062  0.005    0.034 -0.060  0.001
 C          0.103 -0.018  0.001    0.004  0.001 -0.000   -0.000  0.001 -0.000
 C          0.010  0.016 -0.001   -0.105 -0.078 -0.001   -0.015 -0.010 -0.001
 C          0.029 -0.041  0.000    0.003 -0.005 -0.000    0.001 -0.003 -0.000
 C         -0.056 -0.004 -0.000   -0.042  0.009  0.000   -0.032  0.007  0.000
 H         -0.085 -0.041 -0.029   -0.317 -0.122 -0.109   -0.167  0.504  0.438
 H         -0.091 -0.037  0.027   -0.228 -0.110  0.104   -0.234  0.551 -0.394
 H         -0.335 -0.024 -0.005   -0.022  0.002 -0.000   -0.010  0.001  0.000
 H         -0.042 -0.129  0.028    0.116  0.564 -0.140    0.002  0.028 -0.016
 H         -0.110 -0.012 -0.017    0.630  0.083  0.087    0.057  0.010  0.020
 H         -0.303  0.628 -0.003   -0.019  0.040 -0.000   -0.006  0.012 -0.000
 H         -0.575 -0.003 -0.006   -0.030 -0.003 -0.000   -0.007 -0.002 -0.000
 TransDip  -0.135  0.016  0.001   -0.043  0.086 -0.005   -0.028  0.116  0.006

 Mode:                31                     32                     33
 Frequency:      1746.38                1848.38                3007.37
 Force Cnst:      8.6203                24.2245                 5.6817
 Red. Mass:       4.7973                12.0343                 1.0662
 IR Active:          YES                    YES                    YES
 IR Intens:       98.628                409.731                 18.933
 Raman Active:       YES                    YES                    YES
               X      Y      Z        X      Y      Z        X      Y      Z
 O          0.018  0.007  0.000   -0.050 -0.073 -0.002    0.002 -0.000 -0.000
 O         -0.030  0.020 -0.000    0.018 -0.070 -0.002    0.000  0.000 -0.000
 O          0.005  0.012  0.000   -0.011 -0.485 -0.013   -0.000  0.001  0.000
 C          0.001  0.001  0.000   -0.028  0.014 -0.001    0.003 -0.055 -0.047
 C          0.388 -0.196  0.005    0.062  0.013  0.001   -0.000  0.000 -0.000
 C         -0.001  0.000 -0.000    0.010 -0.010  0.001   -0.002  0.000 -0.001
 C         -0.319  0.216 -0.004   -0.042  0.003 -0.001    0.000  0.000  0.000
 C         -0.054 -0.035 -0.001    0.045  0.809  0.021   -0.001 -0.003  0.000
 H         -0.010 -0.002  0.001    0.140  0.032 -0.036   -0.019  0.152 -0.230
 H         -0.010 -0.001 -0.001    0.140  0.019  0.036   -0.013  0.530  0.798
 H         -0.389 -0.280 -0.005   -0.182  0.030 -0.001    0.000 -0.001 -0.000
 H         -0.002 -0.001 -0.000    0.021  0.030 -0.001    0.002 -0.006  0.000
 H          0.003  0.001  0.000   -0.033 -0.019  0.001    0.002 -0.005  0.001
 H         -0.070 -0.443 -0.001   -0.048 -0.002 -0.000    0.000 -0.000  0.000
 H          0.400  0.255  0.004    0.069  0.007  0.001   -0.000  0.000 -0.000
 TransDip   0.285 -0.142  0.002    0.027  0.648  0.014    0.063 -0.103 -0.069

 Mode:                34                     35                     36
 Frequency:      3067.85                3174.71                3178.76
 Force Cnst:      6.0663                 6.2463                 6.3137
 Red. Mass:       1.0940                 1.0519                 1.0605
 IR Active:          YES                    YES                    YES
 IR Intens:       15.917                  4.887                  0.284
 Raman Active:       YES                    YES                    YES
               X      Y      Z        X      Y      Z        X      Y      Z
 O         -0.001 -0.000  0.000    0.000 -0.000 -0.000   -0.000  0.000  0.000
 O         -0.000 -0.000 -0.000   -0.000 -0.000  0.000   -0.000 -0.000 -0.000
 O          0.000 -0.001  0.000   -0.000 -0.000 -0.000    0.000  0.000  0.000
 C         -0.003  0.037 -0.080    0.003  0.003  0.000   -0.000 -0.000  0.000
 C          0.000 -0.000 -0.000    0.000 -0.000  0.000   -0.008 -0.006 -0.000
 C          0.002 -0.002  0.000   -0.048 -0.040  0.005    0.000  0.000 -0.000
 C         -0.000 -0.000  0.000    0.000 -0.000  0.000    0.054 -0.043  0.001
 C          0.001  0.001  0.000    0.000  0.000  0.000    0.000 -0.000 -0.000
 H          0.047 -0.598  0.752   -0.002 -0.002  0.000   -0.000  0.000 -0.000
 H          0.001  0.160  0.201    0.000  0.001  0.002   -0.000  0.000  0.000
 H         -0.000  0.001 -0.000   -0.000  0.002 -0.000    0.002  0.130 -0.000
 H         -0.016  0.008 -0.002    0.668 -0.206  0.148   -0.001  0.000 -0.000
 H         -0.003  0.011 -0.010   -0.127  0.652 -0.210    0.000 -0.001  0.000
 H         -0.000  0.000  0.000   -0.001 -0.001 -0.000   -0.584 -0.288 -0.006
 H          0.000  0.000 -0.000    0.000  0.001 -0.000    0.037  0.743 -0.001
 TransDip  -0.037  0.062 -0.105   -0.067 -0.022 -0.001   -0.013 -0.011  0.000

 Mode:                37                     38                     39
 Frequency:      3238.53                3278.20                3289.78
 Force Cnst:      6.7890                 7.0743                 7.1445
 Red. Mass:       1.0987                 1.1173                 1.1204
 IR Active:          YES                    YES                    YES
 IR Intens:        7.652                  4.288                  4.187
 Raman Active:       YES                    YES                    YES
               X      Y      Z        X      Y      Z        X      Y      Z
 O         -0.000  0.000  0.000   -0.000  0.000  0.000   -0.000  0.000 -0.000
 O         -0.000  0.000  0.000    0.001  0.000  0.000    0.000  0.000  0.000
 O          0.001  0.001  0.000    0.000  0.000  0.000    0.000  0.000 -0.000
 C          0.000 -0.000  0.000    0.000 -0.000  0.000    0.001 -0.002  0.002
 C          0.007 -0.087  0.000    0.001 -0.018  0.000   -0.000 -0.000 -0.000
 C         -0.000  0.000 -0.000   -0.000  0.000 -0.000    0.064 -0.072  0.030
 C         -0.001  0.026 -0.000   -0.060 -0.077 -0.001   -0.000 -0.000 -0.000
 C          0.000 -0.002 -0.000    0.000 -0.000 -0.000   -0.000 -0.000 -0.000
 H         -0.000  0.001 -0.001   -0.000  0.000 -0.000    0.001  0.016 -0.018
 H         -0.000  0.001  0.001   -0.000  0.000  0.000    0.002  0.001  0.002
 H         -0.010  0.970 -0.000   -0.004  0.193 -0.000   -0.000  0.001  0.000
 H         -0.001  0.000 -0.000    0.001 -0.000  0.000   -0.651  0.194 -0.140
 H          0.000 -0.001  0.000    0.000 -0.001  0.000   -0.119  0.669 -0.216
 H         -0.058 -0.031 -0.001    0.679  0.323  0.006    0.001  0.000  0.000
 H         -0.012 -0.215  0.000    0.022  0.622 -0.001    0.000  0.001  0.000
 TransDip  -0.087  0.017  0.001   -0.053 -0.040 -0.000    0.050 -0.038  0.019

 STANDARD THERMODYNAMIC QUANTITIES AT   298.15 K  AND     1.00 ATM

   This Molecule has  1 Imaginary Frequencies
   Zero point vibrational energy:       71.234 kcal/mol

   Atom    1 Element O  Has Mass   15.99491
   Atom    2 Element O  Has Mass   15.99491
   Atom    3 Element O  Has Mass   15.99491
   Atom    4 Element C  Has Mass   12.00000
   Atom    5 Element C  Has Mass   12.00000
   Atom    6 Element C  Has Mass   12.00000
   Atom    7 Element C  Has Mass   12.00000
   Atom    8 Element C  Has Mass   12.00000
   Atom    9 Element H  Has Mass    1.00783
   Atom   10 Element H  Has Mass    1.00783
   Atom   11 Element H  Has Mass    1.00783
   Atom   12 Element H  Has Mass    1.00783
   Atom   13 Element H  Has Mass    1.00783
   Atom   14 Element H  Has Mass    1.00783
   Atom   15 Element H  Has Mass    1.00783
   Molecular Mass:   115.039540 amu
   Principal axes and moments of inertia in amu*Bohr^2:
                             1           2           3
    Eigenvalues --      247.50202  1874.64600  2109.66183
          X               1.00000    -0.00091    -0.00019
          Y               0.00090     0.99997    -0.00745
          Z               0.00020     0.00745     0.99997
   Rotational Symmetry Number is   1
   The Molecule is an Asymmetric Top
   Translational Enthalpy:        0.889 kcal/mol
   Rotational Enthalpy:           0.889 kcal/mol
   Vibrational Enthalpy:         74.823 kcal/mol
   gas constant (RT):             0.592 kcal/mol
   Translational Entropy:        40.136  cal/mol.K
   Rotational Entropy:           28.372  cal/mol.K
   Vibrational Entropy:          23.030  cal/mol.K

   Total Enthalpy:               77.193 kcal/mol
   Total Entropy:                91.537  cal/mol.K
Archival summary:
1\1\nid03485\FREQ\ProcedureUnspecified\BasisUnspecified\357(2)\sblau\TueNov1314:48:062018TueNov1314:48:062018\0\\#,FREQ,ProcedureUnspecified,BasisUnspecified,\\0,2\O\C,1,1.32388\O,2,1.20009,1,126.461\O,2,1.34191,1,107.406,3,-179.964,0\C,4,1.3791,2,117.59,1,-179.794,0\H,5,1.08283,4,114.742,2,1.46562,0\C,5,1.32126,4,119.858,2,-178.548,0\H,7,1.08199,5,119.371,4,-179.82,0\H,7,1.08376,5,121.851,4,0.101576,0\C,1,1.43658,2,115.532,3,1.13002,0\H,10,1.09532,1,109.374,2,-58.5246,0\H,10,1.09947,1,108.288,2,57.1765,0\C,10,1.47623,1,108.187,2,179.175,0\H,13,1.08203,10,120.418,1,-22.977,0\H,13,1.08231,10,119.501,1,165.104,0\\\@

 Total job time:  1122.15s(wall), 4996.82s(cpu) 
 Tue Nov 13 14:48:06 2018

        *************************************************************
        *                                                           *
        *  Thank you very much for using Q-Chem.  Have a nice day.  *
        *                                                           *
        *************************************************************


