
Running Job 1 of 1 mol.qin
qchem mol.qin_36657.0 /tmp/qchem36657/ 1
/global/common/edison/software/qchem/5.1/exe/qcprog.exe mol.qin_36657.0 /tmp/qchem36657/
Check license passed

                  Welcome to Q-Chem
     A Quantum Leap Into The Future Of Chemistry


 Q-Chem 5.1, Q-Chem, Inc., Pleasanton, CA (2018)

 Yihan Shao,  Zhengting Gan,  E. Epifanovsky,  A. T. B. Gilbert,  M. Wormit,  
 J. Kussmann,  A. W. Lange,  A. Behn,  Jia Deng,  Xintian Feng,  D. Ghosh,  
 M. Goldey,  P. R. Horn,  L. D. Jacobson,  I. Kaliman,  T. Kus,  A. Landau,  
 Jie Liu,  E. I. Proynov,  R. M. Richard,  R. P. Steele,  E. J. Sundstrom,  
 H. L. Woodcock III,  P. M. Zimmerman,  D. Zuev,  B. Albrecht,  E. Alguire,  
 S. A. Baeppler,  D. Barton,  Z. Benda,  Y. A. Bernard,  E. J. Berquist,  
 K. B. Bravaya,  H. Burton,  D. Casanova,  Chun-Min Chang,  Yunqing Chen,  
 A. Chien,  K. D. Closser,  M. P. Coons,  S. Coriani,  S. Dasgupta,  
 A. L. Dempwolff,  M. Diedenhofen,  Hainam Do,  R. G. Edgar,  Po-Tung Fang,  
 S. Faraji,  S. Fatehi,  Qingguo Feng,  K. D. Fenk,  J. Fosso-Tande,  
 Qinghui Ge,  A. Ghysels,  G. Gidofalvi,  J. Gomes,  J. Gonthier,  A. Gunina,  
 D. Hait,  M. W. D. Hanson-Heine,  P. H. P. Harbach,  A. W. Hauser,  
 J. E. Herr,  E. G. Hohenstein,  Z. C. Holden,  Kerwin Hui,  B. C. Huynh,  
 T.-C. Jagau,  Hyunjun Ji,  B. Kaduk,  K. Khistyaev,  Jaehoon Kim,  
 P. Klunzinger,  K. Koh,  D. Kosenkov,  L. Koulias,  T. Kowalczyk,  
 C. M. Krauter,  A. Kunitsa,  Ka Un Lao,  A. Laurent,  K. V. Lawler,  
 Joonho Lee,  D. Lefrancois,  S. Lehtola,  D. S. Levine,  Yi-Pei Li,  
 You-Sheng Lin,  Fenglai Liu,  E. Livshits,  A. Luenser,  P. Manohar,  
 E. Mansoor,  S. F. Manzer,  Shan-Ping Mao,  Yuezhi Mao,  N. Mardirossian,  
 A. V. Marenich,  T. Markovich,  L. A. Martinez-Martinez,  S. A. Maurer,  
 N. J. Mayhall,  S. C. McKenzie,  J.-M. Mewes,  A. F. Morrison,  
 J. W. Mullinax,  K. Nanda,  T. S. Nguyen-Beck,  R. Olivares-Amaya,  
 J. A. Parkhill,  T. M. Perrine,  F. Plasser,  P. Pokhilko,  S. Prager,  
 A. Prociuk,  E. Ramos,  D. R. Rehn,  F. Rob,  M. Schneider,  N. Sergueev,  
 S. M. Sharada,  S. Sharma,  D. W. Small,  T. Stauch,  T. Stein,  
 Yu-Chuan Su,  A. J. W. Thom,  A. Tkatchenko,  T. Tsuchimochi,  N. M. Tubman,  
 L. Vogt,  M. L. Vidal,  O. Vydrov,  M. A. Watson,  J. Wenzel,  
 M. de Wergifosse,  T. A. Wesolowski,  A. White,  J. Witte,  A. Yamada,  
 Jun Yang,  K. Yao,  S. Yeganeh,  S. R. Yost,  Zhi-Qiang You,  A. Zech,  
 Igor Ying Zhang,  Xing Zhang,  Yan Zhao,  Ying Zhu,  B. R. Brooks,  
 G. K. L. Chan,  C. J. Cramer,  M. S. Gordon,  W. J. Hehre,  A. Klamt,  
 M. W. Schmidt,  C. D. Sherrill,  D. G. Truhlar,  A. Aspuru-Guzik,  R. Baer,  
 A. T. Bell,  N. A. Besley,  Jeng-Da Chai,  R. A. DiStasio Jr.,  A. Dreuw,  
 B. D. Dunietz,  T. R. Furlani,  Chao-Ping Hsu,  Yousung Jung,  Jing Kong,  
 D. S. Lambrecht,  WanZhen Liang,  C. Ochsenfeld,  V. A. Rassolov,  
 L. V. Slipchenko,  J. E. Subotnik,  T. Van Voorhis,  J. M. Herbert,  
 A. I. Krylov,  P. M. W. Gill,  M. Head-Gordon

 Contributors to earlier versions of Q-Chem not listed above: 
 R. D. Adamson,  B. Austin,  J. Baker,  G. J. O. Beran,  K. Brandhorst,  
 S. T. Brown,  E. F. C. Byrd,  A. K. Chakraborty,  C.-L. Cheng,  
 Siu Hung Chien,  D. M. Chipman,  D. L. Crittenden,  H. Dachsel,  
 R. J. Doerksen,  A. D. Dutoi,  L. Fusti-Molnar,  W. A. Goddard III,  
 A. Golubeva-Zadorozhnaya,  S. R. Gwaltney,  G. Hawkins,  A. Heyden,  
 S. Hirata,  G. Kedziora,  F. J. Keil,  C. Kelley,  Jihan Kim,  R. A. King,  
 R. Z. Khaliullin,  P. P. Korambath,  W. Kurlancheek,  A. M. Lee,  M. S. Lee,  
 S. V. Levchenko,  Ching Yeh Lin,  D. Liotard,  R. C. Lochan,  I. Lotan,  
 P. E. Maslen,  N. Nair,  D. P. O'Neill,  D. Neuhauser,  E. Neuscamman,  
 C. M. Oana,  R. Olson,  B. Peters,  R. Peverati,  P. A. Pieniazek,  
 Y. M. Rhee,  J. Ritchie,  M. A. Rohrdanz,  E. Rosta,  N. J. Russ,  
 H. F. Schaefer III,  N. E. Schultz,  N. Shenvi,  A. C. Simmonett,  A. Sodt,  
 D. Stuck,  K. S. Thanthiriwatte,  V. Vanovschi,  Tao Wang,  A. Warshel,  
 C. F. Williams,  Q. Wu,  X. Xu,  W. Zhang

 Please cite Q-Chem as follows:
 Y. Shao et al., Mol. Phys. 113, 184-215 (2015)
 DOI: 10.1080/00268976.2014.952696

 Q-Chem 5.1.0 for Intel X86 EM64T Linux

 Parts of Q-Chem use Armadillo 8.300.2 (Tropical Shenanigans).
 http://arma.sourceforge.net/

 Q-Chem begins on Tue Nov 13 15:15:25 2018  

Host: edison03
0

     Scratch files written to /tmp/qchem36657//
 Jun2518 |scratch|qcdevops|jenkins|workspace|build_RNUM -1
Processing $rem in /global/common/edison/software/qchem/5.1/config/preferences.
 MEM_TOTAL  48000 

Checking the input file for inconsistencies... 	...done.

--------------------------------------------------------------
User input:
--------------------------------------------------------------
$molecule
0 2
O      1.0369634842      0.4382480106      0.0168171675
O     -1.1121644231      0.4736826026      0.0014366156
O     -0.0567434884     -1.5325792342      0.0038137142
C      2.2941666314     -0.2590964448      0.0159661059
C     -2.3567927281     -0.1204242270     -0.0070485815
C      3.3788033604      0.7409631417     -0.0287682244
C     -3.4442827702      0.6299624323     -0.0072714225
C     -0.0394811148     -0.3325083862      0.0068567423
H      2.3545706829     -0.8932583191      0.9063957897
H      2.3128376776     -0.9324242900     -0.8529789978
H     -2.3419117527     -1.2031182674     -0.0132323320
H      4.3835996433      0.4494235487      0.2485384414
H      3.2115107716      1.7115524409     -0.4772667395
H     -4.4164246836      0.1549970127     -0.0141382027
H     -3.3927180739      1.7124471229     -0.0003047962
$end

$rem
job_type = freq
basis = 6-311++g*
max_scf_cycles = 200
gen_scfman = true
scf_algorithm = gdm
method = wb97xd
geom_opt_max_cycles = 200
$end
--------------------------------------------------------------
 ----------------------------------------------------------------
             Standard Nuclear Orientation (Angstroms)
    I     Atom           X                Y                Z
 ----------------------------------------------------------------
    1      O       1.0359005129     0.4383723151     0.0304545102
    2      O      -1.1132358029     0.4730953783     0.0146324204
    3      O      -0.0567862196    -1.5321117092    -0.0308029403
    4      C       2.2934619231    -0.2581206411     0.0135243995
    5      C      -2.3575535648    -0.1212543773    -0.0089518261
    6      C       3.3776112525     0.7432688323    -0.0063885351
    7      C      -3.4454285265     0.6283759450     0.0082884586
    8      C      -0.0401419948    -0.3324558964     0.0012312660
    9      H       2.3536631908    -0.9135714019     0.8884158565
   10      H       2.3129944840    -0.9102574864    -0.8714166168
   11      H      -2.3421128694    -1.2034757392    -0.0412717284
   12      H       4.3823923775     0.4456187844     0.2644051710
   13      H       3.2100864151     1.7243227710    -0.4314178449
   14      H      -4.4173221303     0.1532297492    -0.0106355379
   15      H      -3.3944239278     1.7104022747     0.0414261999
 ----------------------------------------------------------------
 Molecular Point Group                 C1    NOp =  1
 Largest Abelian Subgroup              C1    NOp =  1
 Nuclear Repulsion Energy =   363.1415114379 hartrees
 There are       31 alpha and       30 beta electrons
 Requested basis set is 6-311++G(d)
 There are 76 shells and 204 basis functions

 Total QAlloc Memory Limit  48000 MB
 Mega-Array Size       188 MB
 MEM_STATIC part       192 MB

                       Distance Matrix (Angstroms)
             O (  1)   O (  2)   O (  3)   C (  4)   C (  5)   C (  6)
   O (  2)  2.149475
   O (  3)  2.254002  2.266937
   C (  4)  1.437654  3.484289  2.673702
   C (  5)  3.439515  1.379179  2.698986  4.653083
   C (  6)  2.361764  4.499016  4.119835  1.475994  5.799959
   C (  7)  4.485410  2.337365  4.018971  5.806959  1.321255  6.824023
   C (  8)  1.323970  1.341873  1.200199  2.334820  2.327038  3.583054
   H (  9)  2.073728  3.834805  2.652889  1.094840  4.860926  2.143423
   H ( 10)  2.064738  3.799711  2.590211  1.099447  4.814602  2.148449
   H ( 11)  3.756565  2.079460  2.308859  4.731306  1.082814  6.042042
   H ( 12)  3.354667  5.501370  4.868765  2.218518  6.769264  1.082363
   H ( 13)  2.567894  4.522792  4.630045  2.228958  5.880752  1.082211
   H ( 14)  5.460827  3.319629  4.674939  6.723423  2.077978  7.817234
   H ( 15)  4.609333  2.595278  4.653917  6.018962  2.105375  6.840913
             C (  7)   C (  8)   H (  9)   H ( 10)   H ( 11)   H ( 12)
   C (  8)  3.538252
   H (  9)  6.064791  2.618224
   H ( 10)  6.025007  2.575387  1.760305
   H ( 11)  2.139028  2.461616  4.795694  4.737630
   H ( 12)  7.834142  4.498163  2.520422  2.722297  6.930507
   H ( 13)  6.759462  3.870595  3.071467  2.817692  6.288969  1.869105
   H ( 14)  1.081989  4.404059  6.913219  6.867977  2.479533  8.808866
   H ( 15)  1.083735  3.927606  6.375197  6.346319  3.099175  7.882149
             H ( 13)   H ( 14)
   H ( 14)  7.798894
   H ( 15)  6.621430  1.863818
 
 A cutoff of  1.0D-12 yielded   2591 shell pairs
 There are     19269 function pairs (     20772 Cartesian)
 
 -------------------------------------------------------
 OpenMP Integral Computing Module                       
 Release: version 1.0, May 2013, Q-Chem Inc. Pittsburgh 
 -------------------------------------------------------
 Integral Job Info:
 Integral job number is                      11
 Integral operator is                         1
 short-range coefficients              22203600
 long-range coefficients              100000000
 Omega coefficients                         200
 if combine SR and LR in K                    1
 Integral screening is                        0
 Integral computing path is                   2
 max size of driver memory is            800000
 size of driver memory is                593474
 size of scratch memory is              2428936
 max col of scratch BK array               1296
 max len of scratch array in speh3          155
 max len of scratch index in speh4           18
 max int batch size is                      520
 min int batch size is                       52
 fixed nKL is                                52
 max L of basis functions is                  2
 order of int derivative is                   0
 number of shells is                         76
 number of basis is                         212
 number of cartesian basis is               212
 number of contracted shell pairs          2591
 number of primitive shell pairs           6855
 maxK2 (contraction) of shell pair           36
 max number of K2 of shell pair               1
 max number of CS2 of shell pair            516
 max number of PS2 of shell pair           1068
 mem total for path MDJ                  544178
 -------------------------------------------------------
 Smallest overlap matrix eigenvalue = 1.78E-05
 Guess from superposition of atomic densities
 Warning:  Energy on first SCF cycle will be non-variational
 SAD guess density has 61.000000 electrons

 -----------------------------------------------------------------------
  General SCF calculation program by
  Eric Jon Sundstrom, Paul Horn, Yuezhi Mao, Dmitri Zuev, Alec White,
  David Stuck, Shaama M.S., Shane Yost, Joonho Lee, David Small,
  Daniel Levine, Susi Lehtola, Hugh Burton, Evgeny Epifanovsky
 -----------------------------------------------------------------------
 Exchange:     0.2220 Hartree-Fock + 1.0000 wB97X-D + LR-HF
 Correlation:  1.0000 wB97X-D
 Using SG-2 standard quadrature grid
 Dispersion:   Grimme D
 using 32 threads for integral computing
 -------------------------------------------------------
 OpenMP Integral computing Module                
 Release: version 1.0, May 2013, Q-Chem Inc. Pittsburgh 
 -------------------------------------------------------
 using 32 threads for integral computing
 -------------------------------------------------------
 OpenMP Integral computing Module                
 Release: version 1.0, May 2013, Q-Chem Inc. Pittsburgh 
 -------------------------------------------------------
 -------------------------------------------------------
 OpenMP BLAS3 based DFT computing Module                
 Release: version 1.0, May 2013, Q-Chem Inc. Pittsburgh 
 -------------------------------------------------------
 A unrestricted SCF calculation will be
 performed using Roothaan-Hall, GDM
 SCF converges when RMS gradient is below 1.0e-08
 ---------------------------------------
  Cycle       Energy         DIIS error
 ---------------------------------------
    1    -422.1042001108      2.32e-02  Roothaan Step
 ---------------------------------------
  Cycle       Energy        RMS Gradient
 ---------------------------------------
    1    -420.1288750154      1.88e-01   Descent step
    2    -420.2840272182      2.52e-02   Normal BFGS step
    3    -420.2948705517      2.77e-02   Normal BFGS step
    4    -420.2990438937      9.42e-03   Normal BFGS step
    5    -420.2997682798      2.78e-03   Normal BFGS step
    6    -420.2998563928      1.01e-03   Normal BFGS step
    7    -420.2998727591      3.94e-04   Normal BFGS step
    8    -420.2998744236      2.32e-04   Normal BFGS step
    9    -420.2998750082      6.27e-05   Normal BFGS step
   10    -420.2998750736      3.57e-05   Normal BFGS step
   11    -420.2998750851      1.60e-05   Normal BFGS step
   12    -420.2998750861      5.22e-06   Normal BFGS step
   13    -420.2998750864      1.61e-06   Normal BFGS step
   14    -420.2998750864      6.37e-07   Normal BFGS step
   15    -420.2998750864      3.69e-07   Normal BFGS step
   16    -420.2998750864      2.81e-07   Normal BFGS step
   17    -420.2998750864      1.43e-07   Normal BFGS step
   18    -420.2998750864      5.27e-08   Normal BFGS step
   19    -420.2998750864      3.81e-08   Normal BFGS step
   20    -420.2998750864      1.47e-08   Normal BFGS step
   21    -420.2998750864      1.22e-08   Normal BFGS step
   22    -420.2998750864      5.72e-09  Convergence criterion met
 ---------------------------------------
 SCF time:   CPU 747.98s  wall 27.00s 
<S^2> =          0.754404263
 SCF   energy in the final basis set =     -420.2998750864
 Total energy in the final basis set =     -420.2998750864
 
 --------------------------------------------------------------
 
                    Orbital Energies (a.u.)
 --------------------------------------------------------------
 
 Alpha MOs
 -- Occupied --
-19.320 -19.312 -19.249 -10.476 -10.362 -10.355 -10.308 -10.286
 -1.276  -1.190  -1.147  -0.913  -0.876  -0.774  -0.714  -0.672
 -0.669  -0.619  -0.595  -0.560  -0.551  -0.540  -0.514  -0.511
 -0.473  -0.467  -0.462  -0.414  -0.397  -0.342  -0.309
 -- Virtual --
  0.042   0.053   0.060   0.061   0.068   0.069   0.074   0.088
  0.108   0.111   0.117   0.126   0.141   0.144   0.152   0.162
  0.169   0.170   0.185   0.188   0.192   0.194   0.197   0.204
  0.212   0.221   0.226   0.229   0.234   0.251   0.256   0.258
  0.283   0.300   0.307   0.315   0.322   0.332   0.334   0.347
  0.353   0.359   0.372   0.383   0.391   0.399   0.418   0.431
  0.434   0.461   0.468   0.492   0.506   0.548   0.559   0.573
  0.580   0.596   0.607   0.618   0.624   0.637   0.652   0.667
  0.706   0.729   0.741   0.753   0.764   0.778   0.803   0.818
  0.824   0.843   0.864   0.901   0.927   0.958   0.984   1.003
  1.075   1.113   1.129   1.132   1.187   1.197   1.232   1.242
  1.249   1.258   1.273   1.282   1.350   1.366   1.372   1.424
  1.465   1.534   1.583   1.608   1.619   1.641   1.667   1.700
  1.714   1.749   1.813   1.822   1.875   1.886   1.911   1.941
  1.947   2.018   2.027   2.066   2.153   2.196   2.322   2.504
  2.524   2.533   2.567   2.613   2.636   2.661   2.756   2.818
  2.826   2.887   2.924   2.951   2.952   2.998   3.020   3.102
  3.133   3.145   3.229   3.232   3.257   3.276   3.322   3.359
  3.385   3.424   3.497   3.502   3.678   3.708   3.750   3.905
  4.070   4.122   4.206   4.246   5.056   5.105   5.131   5.298
  5.328   5.496   5.710   5.951   6.001  23.544  23.631  23.845
 23.949  24.351  49.995  50.054  50.146
 
 Beta MOs
 -- Occupied --
-19.320 -19.312 -19.249 -10.476 -10.363 -10.355 -10.297 -10.286
 -1.276  -1.189  -1.147  -0.908  -0.866  -0.762  -0.698  -0.671
 -0.668  -0.617  -0.595  -0.553  -0.549  -0.536  -0.509  -0.504
 -0.469  -0.464  -0.461  -0.411  -0.397  -0.342
 -- Virtual --
 -0.005   0.047   0.054   0.060   0.063   0.070   0.072   0.079
  0.089   0.110   0.111   0.118   0.127   0.146   0.153   0.162
  0.166   0.170   0.171   0.186   0.189   0.194   0.195   0.198
  0.207   0.215   0.223   0.227   0.234   0.239   0.253   0.260
  0.265   0.284   0.301   0.308   0.318   0.324   0.336   0.338
  0.347   0.354   0.360   0.374   0.385   0.394   0.401   0.418
  0.432   0.436   0.462   0.470   0.492   0.509   0.557   0.565
  0.574   0.583   0.598   0.615   0.626   0.634   0.641   0.664
  0.683   0.709   0.733   0.744   0.754   0.769   0.783   0.806
  0.818   0.826   0.846   0.865   0.905   0.932   0.959   0.987
  1.005   1.075   1.114   1.132   1.143   1.188   1.198   1.235
  1.243   1.249   1.260   1.274   1.291   1.351   1.368   1.419
  1.425   1.469   1.541   1.602   1.608   1.620   1.645   1.670
  1.703   1.726   1.761   1.828   1.834   1.885   1.903   1.915
  1.942   1.947   2.021   2.027   2.067   2.153   2.210   2.322
  2.508   2.524   2.538   2.567   2.616   2.641   2.667   2.756
  2.822   2.874   2.905   2.930   2.952   2.954   2.999   3.022
  3.102   3.139   3.147   3.231   3.235   3.257   3.278   3.323
  3.371   3.388   3.426   3.497   3.503   3.678   3.710   3.750
  3.912   4.073   4.123   4.206   4.247   5.056   5.105   5.131
  5.298   5.328   5.496   5.711   5.951   6.001  23.548  23.639
 23.854  23.949  24.351  49.995  50.054  50.146
 --------------------------------------------------------------
 
          Ground-State Mulliken Net Atomic Charges

     Atom                 Charge (a.u.)    Spin (a.u.)
  --------------------------------------------------------
      1 O                    -0.046577      -0.001821
      2 O                    -0.064790      -0.001806
      3 O                    -0.281828       0.000892
      4 C                    -0.382853      -0.094887
      5 C                     0.016510      -0.000694
      6 C                    -0.476587       1.117956
      7 C                    -0.518274       0.000044
      8 C                    -0.075578      -0.000406
      9 H                     0.289648       0.024664
     10 H                     0.290077       0.054049
     11 H                     0.288916      -0.000030
     12 H                     0.246162      -0.048089
     13 H                     0.243377      -0.049906
     14 H                     0.218417       0.000028
     15 H                     0.253379       0.000007
  --------------------------------------------------------
  Sum of atomic charges =    -0.000000
  Sum of spin   charges =     1.000000

 -----------------------------------------------------------------
                    Cartesian Multipole Moments
 -----------------------------------------------------------------
    Charge (ESU x 10^10)
                -0.0000
    Dipole Moment (Debye)
         X       0.8633      Y       0.2864      Z      -0.1224
       Tot       0.9178
    Quadrupole Moments (Debye-Ang)
        XX     -35.0665     XY      -0.7651     YY     -50.6514
        XZ      -0.0319     YZ      -0.7730     ZZ     -48.4311
    Octopole Moments (Debye-Ang^2)
       XXX       1.2222    XXY      -3.9295    XYY      -2.7510
       YYY       8.4481    XXZ       1.3156    XYZ      -2.4795
       YYZ      -1.1951    XZZ       4.7393    YZZ      -3.2255
       ZZZ      -0.0463
    Hexadecapole Moments (Debye-Ang^3)
      XXXX   -1325.3719   XXXY      -6.7318   XXYY    -268.1425
      XYYY      -2.9709   YYYY    -219.1039   XXXZ      12.5185
      XXYZ      -5.1679   XYYZ      -4.6881   YYYZ      -3.0172
      XXZZ    -292.0943   XYZZ      -2.9506   YYZZ     -46.2519
      XZZZ      -0.0381   YZZZ      -0.5659   ZZZZ     -57.7014
 -----------------------------------------------------------------
 Calculating MO derivatives via CPSCF
 D1JvT checksum  = 1031580 31579.4859014675
 D1KAT checksum  = 2249280 2793.8795976595
 D1JvT checksum  = 1031580 20144.5468960769
 D1KAT checksum  = 2249280 1215.5805936263
   1         3          45      0.229126    0.028182
   2         3          45      0.041942    0.007096
   3         3          45      0.006007    0.001086
   4         3          45      0.000900    0.000184
   5        14          34      0.000111    0.000022
   6        45           3      0.000006    0.000003
   7        48           0      0.000000    0.000000    Roots Converged
 Time for AOints: 151.9 s (CPU) 9.7 s (wall)
 ------------------------------------------------------------------------------
                     AOints        : Timing summary (seconds)
 ------------------------------------------------------------------------------
     job step          cpu (% of tot)      sys (% of tot)     wall (% of tot)
 ------------------------------------------------------------------------------
  cpscf_lag         0.1619E+04 (45.6)   0.1101E-01 (71.2)   0.3704E+03 (51.3)
  iterzp            0.1781E+04 (50.1)   0.3515E-02 (22.7)   0.3417E+03 (47.3)
  make_fx           0.0000E+00 ( 0.0)   0.0000E+00 ( 0.0)   0.0000E+00 ( 0.0)
  AOints            0.1519E+03 ( 4.3)   0.9400E-03 ( 6.1)   0.9652E+01 ( 1.3)
 ------------------------------------------------------------------------------
   Grand Totals     0.3553E+04          0.1547E-01          0.7221E+03
 ------------------------------------------------------------------------------
 Calculating analytic Hessian of the SCF energy
 Polarizability Matrix (a.u.)
            1           2           3
    1 -97.6414869   5.5968083  -0.3088719
    2   5.5968083 -66.0576606   0.0133177
    3  -0.3088719   0.0133177 -47.6262205
atom: 0 element: 8
atom: 1 element: 8
atom: 2 element: 8
atom: 3 element: 6
atom: 4 element: 6
atom: 5 element: 6
atom: 6 element: 6
atom: 7 element: 6
atom: 8 element: 1
atom: 9 element: 1
atom: 10 element: 1
atom: 11 element: 1
atom: 12 element: 1
atom: 13 element: 1
atom: 14 element: 1
 
 Direct stationary perturbation theory relativistic correction:
 
 rels  =       0.135433447539
 relv  =      -0.624393058409
 rel2e =       0.000000000000
 E_rel =      -0.488959610870
 
 Hessian of the SCF Energy
            1           2           3           4           5           6
    1   0.5771599   0.0502258   0.0036561  -0.1119676  -0.0160813  -0.0014488
    2   0.0502258   0.3791795   0.0096977   0.0195197   0.0217527   0.0002662
    3   0.0036561   0.0096977   0.0769586  -0.0000860   0.0001895   0.0118060
    4  -0.1119676   0.0195197  -0.0000860   0.6059981  -0.0332675   0.0027234
    5  -0.0160813   0.0217527   0.0001895  -0.0332675   0.3792076   0.0085988
    6  -0.0014488   0.0002662   0.0118060   0.0027234   0.0085988   0.0485744
    7  -0.0075213  -0.0563514  -0.0016194  -0.0068632   0.0528611   0.0012212
    8  -0.0521784  -0.0706613  -0.0030489   0.0529625  -0.0663561  -0.0020527
    9  -0.0017698  -0.0033161   0.0308946   0.0011847  -0.0021125   0.0274340
   10  -0.1454980   0.0404914   0.0015994   0.0098613  -0.0012879   0.0000383
   11   0.0735815  -0.1283280   0.0006613  -0.0095936  -0.0025067  -0.0003022
   12   0.0047574   0.0014526  -0.0640441  -0.0005703  -0.0000479   0.0034854
   13   0.0111966   0.0014128   0.0000621  -0.2150306  -0.0557575  -0.0026094
   14   0.0112300  -0.0028158  -0.0000742  -0.0851826  -0.1590185  -0.0038575
   15   0.0003133  -0.0001109   0.0019374  -0.0033089  -0.0036590  -0.0403515
   16  -0.0470226  -0.0222134  -0.0011451  -0.0021344  -0.0010220  -0.0000350
   17   0.0172660   0.0162562  -0.0001129   0.0021350   0.0008549   0.0000740
   18  -0.0039844  -0.0018995   0.0020135  -0.0003804  -0.0000432   0.0000982
   19  -0.0061486   0.0008607  -0.0000015  -0.0699352   0.0182817   0.0001493
   20  -0.0016238   0.0012482   0.0000099  -0.0215517   0.0238749   0.0003225
   21  -0.0000809   0.0000341   0.0002750  -0.0010403   0.0005294   0.0083194
   22  -0.2289384  -0.0791944  -0.0032693  -0.1905902   0.0674214   0.0010662
   23  -0.1042518  -0.1890911  -0.0041132   0.0787926  -0.1854405  -0.0024912
   24  -0.0036846  -0.0039386  -0.0723160   0.0013684  -0.0027294  -0.0659343
   25  -0.0192097   0.0221805  -0.0261440  -0.0018878  -0.0004289   0.0007291
   26   0.0116684  -0.0123212   0.0114704   0.0009285   0.0000732  -0.0000170
   27  -0.0041178  -0.0030205   0.0071102  -0.0000248  -0.0006274  -0.0004325
   28  -0.0205418   0.0242994   0.0269200  -0.0019031  -0.0003650  -0.0007606
   29   0.0138240  -0.0138189  -0.0137118   0.0010768   0.0000583   0.0000768
   30   0.0043267   0.0008369   0.0049714   0.0000876   0.0006911  -0.0003553
   31  -0.0000009   0.0016414   0.0000547  -0.0139456  -0.0341027  -0.0011414
   32  -0.0009838   0.0002391  -0.0000016  -0.0083504  -0.0118564  -0.0005354
   33  -0.0000203   0.0000172   0.0001508  -0.0003080  -0.0006229   0.0046188
   34  -0.0041200  -0.0036135  -0.0002540  -0.0010741  -0.0001313  -0.0000080
   35  -0.0041638  -0.0033350  -0.0002668  -0.0007931  -0.0001892  -0.0000235
   36   0.0025750  -0.0004450   0.0007599   0.0003430  -0.0000382  -0.0000261
   37   0.0033582   0.0007735   0.0002304   0.0000775   0.0002790  -0.0000151
   38   0.0007527   0.0017548  -0.0007066  -0.0002504   0.0001092   0.0000214
   39  -0.0005450   0.0004218  -0.0002888  -0.0000608  -0.0000447  -0.0000402
   40  -0.0008895   0.0002690   0.0000079  -0.0034129   0.0044589   0.0000545
   41   0.0006399  -0.0001812   0.0000133   0.0047298  -0.0020317  -0.0003562
   42   0.0000239   0.0000101  -0.0005634   0.0000580  -0.0003646   0.0107859
   43   0.0001436  -0.0003016  -0.0000113   0.0028076  -0.0008581   0.0000365
   44   0.0000947   0.0001221  -0.0000061  -0.0011556   0.0014682   0.0002760
   45  -0.0000008  -0.0000059   0.0003348   0.0000145   0.0002808  -0.0079824
            7           8           9          10          11          12
    1  -0.0075213  -0.0521784  -0.0017698  -0.1454980   0.0735815   0.0047574
    2  -0.0563514  -0.0706613  -0.0033161   0.0404914  -0.1283280   0.0014526
    3  -0.0016194  -0.0030489   0.0308946   0.0015994   0.0006613  -0.0640441
    4  -0.0068632   0.0529625   0.0011847   0.0098613  -0.0095936  -0.0005703
    5   0.0528611  -0.0663561  -0.0021125  -0.0012879  -0.0025067  -0.0000479
    6   0.0012212  -0.0020527   0.0274340   0.0000383  -0.0003022   0.0034854
    7   0.1252605   0.0128258   0.0008551   0.0047165  -0.0061357  -0.0001887
    8   0.0128258   0.8728245   0.0224228   0.0193322  -0.0084097  -0.0000053
    9   0.0008551   0.0224228   0.0395535   0.0005950  -0.0001440  -0.0034781
   10   0.0047165   0.0193322   0.0005950   0.4653147   0.0459219   0.0084786
   11  -0.0061357  -0.0084097  -0.0001440   0.0459219   0.5418614  -0.0295924
   12  -0.0001887  -0.0000053  -0.0034781   0.0084786  -0.0295924   0.5497893
   13   0.0039888  -0.0223113  -0.0005870  -0.0036600   0.0011137   0.0001419
   14   0.0027454  -0.0120394  -0.0003051  -0.0012724   0.0020450   0.0000368
   15   0.0000875  -0.0004696  -0.0001412  -0.0000675  -0.0000455   0.0018169
   16   0.0006785  -0.0018792   0.0001137  -0.1661818  -0.0792418  -0.0069235
   17  -0.0014144   0.0020010   0.0000517  -0.0949364  -0.1689902   0.0163872
   18   0.0001643   0.0001505   0.0005707  -0.0064814   0.0163697  -0.0532480
   19  -0.0007548   0.0061676   0.0001640   0.0014021  -0.0009366  -0.0000656
   20   0.0030807   0.0029590   0.0000990  -0.0000995  -0.0003183  -0.0000023
   21   0.0000837   0.0001113   0.0001306   0.0000014  -0.0000203   0.0000071
   22  -0.1166613  -0.0131606  -0.0004023  -0.0667554  -0.0095007   0.0003046
   23  -0.0116745  -0.7250029  -0.0169803  -0.0099819   0.0229712   0.0005935
   24  -0.0005532  -0.0169996  -0.0937950  -0.0002943   0.0015213  -0.0030884
   25  -0.0000715  -0.0031368   0.0003665  -0.0512435   0.0003972   0.0013116
   26   0.0002026   0.0011577  -0.0000815   0.0068176  -0.1319725   0.1232288
   27   0.0010611  -0.0019064   0.0001729  -0.0091472   0.1239309  -0.2224971
   28  -0.0002000  -0.0031341  -0.0005847  -0.0439407  -0.0069789  -0.0122738
   29   0.0000139   0.0012350   0.0002613   0.0047891  -0.1245388  -0.1169323
   30  -0.0011309   0.0020296   0.0002016   0.0050383  -0.1113505  -0.2147784
   31  -0.0011974   0.0043417   0.0001085  -0.0000900   0.0000954   0.0000006
   32   0.0038826   0.0016436   0.0001128   0.0002882  -0.0001280  -0.0000040
   33   0.0000647   0.0000959  -0.0010475   0.0000047   0.0000044   0.0000120
   34  -0.0002574  -0.0006345   0.0000104  -0.0099071   0.0110999  -0.0043128
   35   0.0000369  -0.0002194   0.0000152  -0.0169808   0.0103322  -0.0051114
   36   0.0000484  -0.0000551  -0.0001196  -0.0000528   0.0018976   0.0013835
   37  -0.0004997   0.0008237  -0.0000495   0.0058489  -0.0196887   0.0093453
   38  -0.0001671   0.0005208  -0.0000439   0.0069717  -0.0121181   0.0099908
   39  -0.0000985  -0.0002976  -0.0000339   0.0002905  -0.0029427   0.0047582
   40  -0.0000990   0.0007688   0.0000201   0.0002089  -0.0001829  -0.0000076
   41  -0.0001251  -0.0003083  -0.0000049  -0.0000403   0.0000925   0.0000129
   42  -0.0000072   0.0000014  -0.0001355   0.0000062   0.0000211  -0.0003086
   43  -0.0005187  -0.0007874  -0.0000248  -0.0000760   0.0000492   0.0000025
   44   0.0002192   0.0006555   0.0000257  -0.0000127   0.0000082  -0.0000068
   45   0.0000118   0.0000238  -0.0002072  -0.0000089  -0.0000088   0.0001902
           13          14          15          16          17          18
    1   0.0111966   0.0112300   0.0003133  -0.0470226   0.0172660  -0.0039844
    2   0.0014128  -0.0028158  -0.0001109  -0.0222134   0.0162562  -0.0018995
    3   0.0000621  -0.0000742   0.0019374  -0.0011451  -0.0001129   0.0020135
    4  -0.2150306  -0.0851826  -0.0033089  -0.0021344   0.0021350  -0.0003804
    5  -0.0557575  -0.1590185  -0.0036590  -0.0010220   0.0008549  -0.0000432
    6  -0.0026094  -0.0038575  -0.0403515  -0.0000350   0.0000740   0.0000982
    7   0.0039888   0.0027454   0.0000875   0.0006785  -0.0014144   0.0001643
    8  -0.0223113  -0.0120394  -0.0004696  -0.0018792   0.0020010   0.0001505
    9  -0.0005870  -0.0003051  -0.0001412   0.0001137   0.0000517   0.0005707
   10  -0.0036600  -0.0012724  -0.0000675  -0.1661818  -0.0949364  -0.0064814
   11   0.0011137   0.0020450  -0.0000455  -0.0792418  -0.1689902   0.0163697
   12   0.0001419   0.0000368   0.0018169  -0.0069235   0.0163872  -0.0532480
   13   0.7593792  -0.1941604  -0.0026100   0.0001243  -0.0003947  -0.0000255
   14  -0.1941604   0.7826059   0.0185592   0.0004465  -0.0004953   0.0000455
   15  -0.0026100   0.0185592   0.1297317   0.0000403  -0.0000118   0.0000387
   16   0.0001243   0.0004465   0.0000403   0.5854870  -0.0042743   0.1178831
   17  -0.0003947  -0.0004953  -0.0000118  -0.0042743   0.5605625  -0.1703454
   18  -0.0000255   0.0000455   0.0000387   0.1178831  -0.1703454   0.1380612
   19  -0.4130023   0.2289817   0.0051128  -0.0001949   0.0002505  -0.0000200
   20   0.2339441  -0.2908084  -0.0060293  -0.0000999   0.0000894  -0.0000295
   21   0.0052860  -0.0060640  -0.0522189  -0.0000122   0.0000268   0.0000320
   22  -0.0800505   0.0091434  -0.0002464  -0.0030447   0.0004787  -0.0007117
   23   0.0193606   0.0340478   0.0011692   0.0052380  -0.0062335   0.0003576
   24  -0.0000294   0.0010388  -0.0059918   0.0000298  -0.0004442  -0.0001056
   25   0.0005998   0.0002605   0.0003367   0.0046392  -0.0159664   0.0167819
   26  -0.0003346  -0.0001137  -0.0001328  -0.0023809  -0.0167888   0.0154852
   27  -0.0000164   0.0000527  -0.0000541   0.0012773  -0.0020171   0.0040042
   28   0.0006045   0.0002602  -0.0003101  -0.0012934  -0.0163516  -0.0153623
   29  -0.0003674  -0.0001382   0.0001400  -0.0086134  -0.0150834  -0.0142350
   30  -0.0000041  -0.0000514  -0.0000245  -0.0049913  -0.0011195   0.0051555
   31  -0.0540411   0.0145955   0.0003628  -0.0000301   0.0000334  -0.0000025
   32   0.0054141  -0.3490685  -0.0091566  -0.0000326   0.0000403  -0.0000041
   33   0.0000748  -0.0090755  -0.0417207   0.0000033  -0.0000115  -0.0000366
   34   0.0003665   0.0002197   0.0000183  -0.3104867   0.0719998  -0.0787218
   35   0.0001281   0.0001546   0.0000079   0.0762581  -0.0763544   0.0360898
   36  -0.0000290  -0.0000288  -0.0000162  -0.0766239   0.0338323  -0.0341322
   37  -0.0000762  -0.0000451  -0.0000183  -0.0605137   0.0411504  -0.0291289
   38   0.0000607   0.0000250   0.0000243   0.0377883  -0.2958290   0.1180436
   39   0.0000359   0.0000101   0.0000385  -0.0296213   0.1237094  -0.0624199
   40  -0.0162119  -0.0161725  -0.0005642  -0.0000419   0.0000365  -0.0000052
   41   0.0169406   0.0105904   0.0004543   0.0000252  -0.0000298   0.0000102
   42   0.0004577   0.0002784  -0.0014858  -0.0000014  -0.0000072  -0.0000118
   43   0.0058128   0.0289501   0.0008536   0.0000152  -0.0000124  -0.0000052
   44  -0.0050487  -0.0149709  -0.0007393   0.0000015   0.0000002   0.0000046
   45  -0.0001476  -0.0005649   0.0084415   0.0000061  -0.0000117  -0.0000200
           19          20          21          22          23          24
    1  -0.0061486  -0.0016238  -0.0000809  -0.2289384  -0.1042518  -0.0036846
    2   0.0008607   0.0012482   0.0000341  -0.0791944  -0.1890911  -0.0039386
    3  -0.0000015   0.0000099   0.0002750  -0.0032693  -0.0041132  -0.0723160
    4  -0.0699352  -0.0215517  -0.0010403  -0.1905902   0.0787926   0.0013684
    5   0.0182817   0.0238749   0.0005294   0.0674214  -0.1854405  -0.0027294
    6   0.0001493   0.0003225   0.0083194   0.0010662  -0.0024912  -0.0659343
    7  -0.0007548   0.0030807   0.0000837  -0.1166613  -0.0116745  -0.0005532
    8   0.0061676   0.0029590   0.0001113  -0.0131606  -0.7250029  -0.0169996
    9   0.0001640   0.0000990   0.0001306  -0.0004023  -0.0169803  -0.0937950
   10   0.0014021  -0.0000995   0.0000014  -0.0667554  -0.0099819  -0.0002943
   11  -0.0009366  -0.0003183  -0.0000203  -0.0095007   0.0229712   0.0015213
   12  -0.0000656  -0.0000023   0.0000071   0.0003046   0.0005935  -0.0030884
   13  -0.4130023   0.2339441   0.0052860  -0.0800505   0.0193606  -0.0000294
   14   0.2289817  -0.2908084  -0.0060640   0.0091434   0.0340478   0.0010388
   15   0.0051128  -0.0060293  -0.0522189  -0.0002464   0.0011692  -0.0059918
   16  -0.0001949  -0.0000999  -0.0000122  -0.0030447   0.0052380   0.0000298
   17   0.0002505   0.0000894   0.0000268   0.0004787  -0.0062335  -0.0004442
   18  -0.0000200  -0.0000295   0.0000320  -0.0007117   0.0003576  -0.0001056
   19   0.8250573  -0.1036715   0.0000997   0.0107303  -0.0150533  -0.0002921
   20  -0.1036715   0.7409701   0.0189516  -0.0029842  -0.0081852  -0.0002125
   21   0.0000997   0.0189516   0.0986201  -0.0000375  -0.0003023   0.0003296
   22   0.0107303  -0.0029842  -0.0000375   0.6607495   0.0313213   0.0032141
   23  -0.0150533  -0.0081852  -0.0003023   0.0313213   1.0629776   0.0223627
   24  -0.0002921  -0.0002125   0.0003296   0.0032141   0.0223627   0.2362839
   25  -0.0002466  -0.0000295  -0.0000141   0.0049128   0.0086615  -0.0025183
   26   0.0001225   0.0000026  -0.0000037  -0.0033607  -0.0017623  -0.0000475
   27  -0.0000086  -0.0000370   0.0000133   0.0010685   0.0038025   0.0010158
   28  -0.0002498  -0.0000281   0.0000127   0.0050741   0.0086734   0.0030645
   29   0.0001376   0.0000046   0.0000097  -0.0036660  -0.0019464  -0.0003780
   30   0.0000177   0.0000350   0.0000130  -0.0014446  -0.0042697   0.0007262
   31   0.0055112   0.0247111   0.0007384   0.0032863  -0.0104548  -0.0002755
   32  -0.0022543  -0.0066296  -0.0004387   0.0032176  -0.0040150  -0.0001015
   33  -0.0000641  -0.0003215   0.0075421   0.0000947  -0.0002104   0.0007503
   34  -0.0001445  -0.0000148   0.0000046   0.0011604   0.0014698  -0.0000034
   35  -0.0000807  -0.0000315  -0.0000112  -0.0000754   0.0014379   0.0000728
   36   0.0000268   0.0000102  -0.0000205   0.0001481  -0.0000016   0.0004495
   37   0.0000304   0.0000049  -0.0000012  -0.0002466  -0.0014774  -0.0000121
   38  -0.0000267   0.0000034  -0.0000144   0.0001553  -0.0004329  -0.0001084
   39  -0.0000129   0.0000080  -0.0000291   0.0002068   0.0001286  -0.0000867
   40  -0.2932772  -0.1139062  -0.0044683   0.0008105  -0.0020541  -0.0000526
   41  -0.1215453  -0.1169737  -0.0032870  -0.0000177   0.0014471  -0.0000517
   42  -0.0047151  -0.0032359  -0.0291884   0.0000013  -0.0000510   0.0028614
   43  -0.0587774  -0.0177315  -0.0005719  -0.0004369   0.0014305   0.0000387
   44  -0.0112341  -0.3462056  -0.0095211   0.0002220  -0.0007719   0.0000158
   45  -0.0003905  -0.0095681  -0.0338252   0.0000074   0.0000055  -0.0010991
           25          26          27          28          29          30
    1  -0.0192097   0.0116684  -0.0041178  -0.0205418   0.0138240   0.0043267
    2   0.0221805  -0.0123212  -0.0030205   0.0242994  -0.0138189   0.0008369
    3  -0.0261440   0.0114704   0.0071102   0.0269200  -0.0137118   0.0049714
    4  -0.0018878   0.0009285  -0.0000248  -0.0019031   0.0010768   0.0000876
    5  -0.0004289   0.0000732  -0.0006274  -0.0003650   0.0000583   0.0006911
    6   0.0007291  -0.0000170  -0.0004325  -0.0007606   0.0000768  -0.0003553
    7  -0.0000715   0.0002026   0.0010611  -0.0002000   0.0000139  -0.0011309
    8  -0.0031368   0.0011577  -0.0019064  -0.0031341   0.0012350   0.0020296
    9   0.0003665  -0.0000815   0.0001729  -0.0005847   0.0002613   0.0002016
   10  -0.0512435   0.0068176  -0.0091472  -0.0439407   0.0047891   0.0050383
   11   0.0003972  -0.1319725   0.1239309  -0.0069789  -0.1245388  -0.1113505
   12   0.0013116   0.1232288  -0.2224971  -0.0122738  -0.1169323  -0.2147784
   13   0.0005998  -0.0003346  -0.0000164   0.0006045  -0.0003674  -0.0000041
   14   0.0002605  -0.0001137   0.0000527   0.0002602  -0.0001382  -0.0000514
   15   0.0003367  -0.0001328  -0.0000541  -0.0003101   0.0001400  -0.0000245
   16   0.0046392  -0.0023809   0.0012773  -0.0012934  -0.0086134  -0.0049913
   17  -0.0159664  -0.0167888  -0.0020171  -0.0163516  -0.0150834  -0.0011195
   18   0.0167819   0.0154852   0.0040042  -0.0153623  -0.0142350   0.0051555
   19  -0.0002466   0.0001225  -0.0000086  -0.0002498   0.0001376   0.0000177
   20  -0.0000295   0.0000026  -0.0000370  -0.0000281   0.0000046   0.0000350
   21  -0.0000141  -0.0000037   0.0000133   0.0000127   0.0000097   0.0000130
   22   0.0049128  -0.0033607   0.0010685   0.0050741  -0.0036660  -0.0014446
   23   0.0086615  -0.0017623   0.0038025   0.0086734  -0.0019464  -0.0042697
   24  -0.0025183  -0.0000475   0.0010158   0.0030645  -0.0003780   0.0007262
   25   0.0622223  -0.0095427   0.0098910   0.0029959  -0.0008523  -0.0006702
   26  -0.0095427   0.1509163  -0.1347519  -0.0012787   0.0112754  -0.0151328
   27   0.0098910  -0.1347519   0.2338394  -0.0005424   0.0153070  -0.0231926
   28   0.0029959  -0.0012787  -0.0005424   0.0606991  -0.0052997  -0.0010488
   29  -0.0008523   0.0112754   0.0153070  -0.0052997   0.1438126   0.1291767
   30  -0.0006702  -0.0151328  -0.0231926  -0.0010488   0.1291767   0.2283221
   31  -0.0001005   0.0000018  -0.0000300  -0.0001048   0.0000041   0.0000345
   32  -0.0000371   0.0000324  -0.0000133  -0.0000375   0.0000371   0.0000154
   33  -0.0000267   0.0000151  -0.0000075   0.0000216  -0.0000148  -0.0000084
   34   0.0003141  -0.0000656   0.0005235  -0.0004055  -0.0005144  -0.0002237
   35   0.0006176   0.0005701   0.0006858   0.0005276  -0.0006958  -0.0006227
   36  -0.0001946  -0.0010051   0.0004886   0.0008330  -0.0002072   0.0000324
   37  -0.0029160  -0.0027904   0.0000587  -0.0007246  -0.0005465   0.0000165
   38  -0.0021341  -0.0010580  -0.0014029  -0.0002974  -0.0001902  -0.0002405
   39   0.0001708   0.0009554  -0.0004573   0.0000108   0.0005301  -0.0010597
   40  -0.0000289   0.0000192  -0.0000030  -0.0000308   0.0000217   0.0000034
   41   0.0000176  -0.0000077   0.0000025   0.0000144  -0.0000085  -0.0000039
   42  -0.0000599   0.0000077   0.0000166   0.0000590  -0.0000118   0.0000121
   43   0.0000205  -0.0000067   0.0000099   0.0000208  -0.0000074  -0.0000111
   44  -0.0000072  -0.0000034  -0.0000050  -0.0000041  -0.0000028   0.0000062
   45   0.0000402   0.0000099  -0.0000201  -0.0000391  -0.0000106  -0.0000154
           31          32          33          34          35          36
    1  -0.0000009  -0.0009838  -0.0000203  -0.0041200  -0.0041638   0.0025750
    2   0.0016414   0.0002391   0.0000172  -0.0036135  -0.0033350  -0.0004450
    3   0.0000547  -0.0000016   0.0001508  -0.0002540  -0.0002668   0.0007599
    4  -0.0139456  -0.0083504  -0.0003080  -0.0010741  -0.0007931   0.0003430
    5  -0.0341027  -0.0118564  -0.0006229  -0.0001313  -0.0001892  -0.0000382
    6  -0.0011414  -0.0005354   0.0046188  -0.0000080  -0.0000235  -0.0000261
    7  -0.0011974   0.0038826   0.0000647  -0.0002574   0.0000369   0.0000484
    8   0.0043417   0.0016436   0.0000959  -0.0006345  -0.0002194  -0.0000551
    9   0.0001085   0.0001128  -0.0010475   0.0000104   0.0000152  -0.0001196
   10  -0.0000900   0.0002882   0.0000047  -0.0099071  -0.0169808  -0.0000528
   11   0.0000954  -0.0001280   0.0000044   0.0110999   0.0103322   0.0018976
   12   0.0000006  -0.0000040   0.0000120  -0.0043128  -0.0051114   0.0013835
   13  -0.0540411   0.0054141   0.0000748   0.0003665   0.0001281  -0.0000290
   14   0.0145955  -0.3490685  -0.0090755   0.0002197   0.0001546  -0.0000288
   15   0.0003628  -0.0091566  -0.0417207   0.0000183   0.0000079  -0.0000162
   16  -0.0000301  -0.0000326   0.0000033  -0.3104867   0.0762581  -0.0766239
   17   0.0000334   0.0000403  -0.0000115   0.0719998  -0.0763544   0.0338323
   18  -0.0000025  -0.0000041  -0.0000366  -0.0787218   0.0360898  -0.0341322
   19   0.0055112  -0.0022543  -0.0000641  -0.0001445  -0.0000807   0.0000268
   20   0.0247111  -0.0066296  -0.0003215  -0.0000148  -0.0000315   0.0000102
   21   0.0007384  -0.0004387   0.0075421   0.0000046  -0.0000112  -0.0000205
   22   0.0032863   0.0032176   0.0000947   0.0011604  -0.0000754   0.0001481
   23  -0.0104548  -0.0040150  -0.0002104   0.0014698   0.0014379  -0.0000016
   24  -0.0002755  -0.0001015   0.0007503  -0.0000034   0.0000728   0.0004495
   25  -0.0001005  -0.0000371  -0.0000267   0.0003141   0.0006176  -0.0001946
   26   0.0000018   0.0000324   0.0000151  -0.0000656   0.0005701  -0.0010051
   27  -0.0000300  -0.0000133  -0.0000075   0.0005235   0.0006858   0.0004886
   28  -0.0001048  -0.0000375   0.0000216  -0.0004055   0.0005276   0.0008330
   29   0.0000041   0.0000371  -0.0000148  -0.0005144  -0.0006958  -0.0002072
   30   0.0000345   0.0000154  -0.0000084  -0.0002237  -0.0006227   0.0000324
   31   0.0637625  -0.0028412   0.0001397  -0.0000051  -0.0000050   0.0000008
   32  -0.0028412   0.3688305   0.0102139  -0.0000211  -0.0000102   0.0000039
   33   0.0001397   0.0102139   0.0256291  -0.0000038   0.0000026   0.0000085
   34  -0.0000051  -0.0000211  -0.0000038   0.3229736  -0.0778480   0.0821463
   35  -0.0000050  -0.0000102   0.0000026  -0.0778480   0.0687662  -0.0352313
   36   0.0000008   0.0000039   0.0000085   0.0821463  -0.0352313   0.0304309
   37   0.0000255   0.0000148   0.0000005   0.0015999   0.0223917  -0.0092285
   38   0.0000078  -0.0000005   0.0000075  -0.0019587  -0.0004394   0.0012753
   39  -0.0000054  -0.0000047   0.0000093   0.0008295   0.0043835   0.0007474
   40   0.0003681   0.0005485   0.0000516  -0.0000212  -0.0000135   0.0000060
   41  -0.0002324   0.0004534   0.0001996   0.0000112   0.0000115  -0.0000048
   42   0.0000214   0.0002076  -0.0064898  -0.0000020   0.0000018   0.0000089
   43  -0.0034382   0.0011922  -0.0000328   0.0000070   0.0000001   0.0000011
   44   0.0022039   0.0004316  -0.0002996   0.0000017   0.0000025  -0.0000022
   45  -0.0000066  -0.0002937   0.0105897  -0.0000030   0.0000073   0.0000049
           37          38          39          40          41          42
    1   0.0033582   0.0007527  -0.0005450  -0.0008895   0.0006399   0.0000239
    2   0.0007735   0.0017548   0.0004218   0.0002690  -0.0001812   0.0000101
    3   0.0002304  -0.0007066  -0.0002888   0.0000079   0.0000133  -0.0005634
    4   0.0000775  -0.0002504  -0.0000608  -0.0034129   0.0047298   0.0000580
    5   0.0002790   0.0001092  -0.0000447   0.0044589  -0.0020317  -0.0003646
    6  -0.0000151   0.0000214  -0.0000402   0.0000545  -0.0003562   0.0107859
    7  -0.0004997  -0.0001671  -0.0000985  -0.0000990  -0.0001251  -0.0000072
    8   0.0008237   0.0005208  -0.0002976   0.0007688  -0.0003083   0.0000014
    9  -0.0000495  -0.0000439  -0.0000339   0.0000201  -0.0000049  -0.0001355
   10   0.0058489   0.0069717   0.0002905   0.0002089  -0.0000403   0.0000062
   11  -0.0196887  -0.0121181  -0.0029427  -0.0001829   0.0000925   0.0000211
   12   0.0093453   0.0099908   0.0047582  -0.0000076   0.0000129  -0.0003086
   13  -0.0000762   0.0000607   0.0000359  -0.0162119   0.0169406   0.0004577
   14  -0.0000451   0.0000250   0.0000101  -0.0161725   0.0105904   0.0002784
   15  -0.0000183   0.0000243   0.0000385  -0.0005642   0.0004543  -0.0014858
   16  -0.0605137   0.0377883  -0.0296213  -0.0000419   0.0000252  -0.0000014
   17   0.0411504  -0.2958290   0.1237094   0.0000365  -0.0000298  -0.0000072
   18  -0.0291289   0.1180436  -0.0624199  -0.0000052   0.0000102  -0.0000118
   19   0.0000304  -0.0000267  -0.0000129  -0.2932772  -0.1215453  -0.0047151
   20   0.0000049   0.0000034   0.0000080  -0.1139062  -0.1169737  -0.0032359
   21  -0.0000012  -0.0000144  -0.0000291  -0.0044683  -0.0032870  -0.0291884
   22  -0.0002466   0.0001553   0.0002068   0.0008105  -0.0000177   0.0000013
   23  -0.0014774  -0.0004329   0.0001286  -0.0020541   0.0014471  -0.0000510
   24  -0.0000121  -0.0001084  -0.0000867  -0.0000526  -0.0000517   0.0028614
   25  -0.0029160  -0.0021341   0.0001708  -0.0000289   0.0000176  -0.0000599
   26  -0.0027904  -0.0010580   0.0009554   0.0000192  -0.0000077   0.0000077
   27   0.0000587  -0.0014029  -0.0004573  -0.0000030   0.0000025   0.0000166
   28  -0.0007246  -0.0002974   0.0000108  -0.0000308   0.0000144   0.0000590
   29  -0.0005465  -0.0001902   0.0005301   0.0000217  -0.0000085  -0.0000118
   30   0.0000165  -0.0002405  -0.0010597   0.0000034  -0.0000039   0.0000121
   31   0.0000255   0.0000078  -0.0000054   0.0003681  -0.0002324   0.0000214
   32   0.0000148  -0.0000005  -0.0000047   0.0005485   0.0004534   0.0002076
   33   0.0000005   0.0000075   0.0000093   0.0000516   0.0001996  -0.0064898
   34   0.0015999  -0.0019587   0.0008295  -0.0000212   0.0000112  -0.0000020
   35   0.0223917  -0.0004394   0.0043835  -0.0000135   0.0000115   0.0000018
   36  -0.0092285   0.0012753   0.0007474   0.0000060  -0.0000048   0.0000089
   37   0.0540437  -0.0408967   0.0287975   0.0000051   0.0000023   0.0000019
   38  -0.0408967   0.3076493  -0.1268532  -0.0000033   0.0000024  -0.0000007
   39   0.0287975  -0.1268532   0.0588472  -0.0000030  -0.0000023   0.0000022
   40   0.0000051  -0.0000033  -0.0000030   0.3087483   0.1239666   0.0048837
   41   0.0000023   0.0000024  -0.0000023   0.1239666   0.1124834   0.0033435
   42   0.0000019  -0.0000007   0.0000022   0.0048837   0.0033435   0.0231792
   43  -0.0000124  -0.0000022   0.0000052   0.0038723  -0.0243867  -0.0007275
   44   0.0000044   0.0000031  -0.0000018   0.0022432  -0.0055396  -0.0002004
   45   0.0000028   0.0000077   0.0000127   0.0000766  -0.0003253   0.0013169
           43          44          45
    1   0.0001436   0.0000947  -0.0000008
    2  -0.0003016   0.0001221  -0.0000059
    3  -0.0000113  -0.0000061   0.0003348
    4   0.0028076  -0.0011556   0.0000145
    5  -0.0008581   0.0014682   0.0002808
    6   0.0000365   0.0002760  -0.0079824
    7  -0.0005187   0.0002192   0.0000118
    8  -0.0007874   0.0006555   0.0000238
    9  -0.0000248   0.0000257  -0.0002072
   10  -0.0000760  -0.0000127  -0.0000089
   11   0.0000492   0.0000082  -0.0000088
   12   0.0000025  -0.0000068   0.0001902
   13   0.0058128  -0.0050487  -0.0001476
   14   0.0289501  -0.0149709  -0.0005649
   15   0.0008536  -0.0007393   0.0084415
   16   0.0000152   0.0000015   0.0000061
   17  -0.0000124   0.0000002  -0.0000117
   18  -0.0000052   0.0000046  -0.0000200
   19  -0.0587774  -0.0112341  -0.0003905
   20  -0.0177315  -0.3462056  -0.0095681
   21  -0.0005719  -0.0095211  -0.0338252
   22  -0.0004369   0.0002220   0.0000074
   23   0.0014305  -0.0007719   0.0000055
   24   0.0000387   0.0000158  -0.0010991
   25   0.0000205  -0.0000072   0.0000402
   26  -0.0000067  -0.0000034   0.0000099
   27   0.0000099  -0.0000050  -0.0000201
   28   0.0000208  -0.0000041  -0.0000391
   29  -0.0000074  -0.0000028  -0.0000106
   30  -0.0000111   0.0000062  -0.0000154
   31  -0.0034382   0.0022039  -0.0000066
   32   0.0011922   0.0004316  -0.0002937
   33  -0.0000328  -0.0002996   0.0105897
   34   0.0000070   0.0000017  -0.0000030
   35   0.0000001   0.0000025   0.0000073
   36   0.0000011  -0.0000022   0.0000049
   37  -0.0000124   0.0000044   0.0000028
   38  -0.0000022   0.0000031   0.0000077
   39   0.0000052  -0.0000018   0.0000127
   40   0.0038723   0.0022432   0.0000766
   41  -0.0243867  -0.0055396  -0.0003253
   42  -0.0007275  -0.0002004   0.0013169
   43   0.0505597   0.0124719   0.0004370
   44   0.0124719   0.3648027   0.0104542
   45   0.0004370   0.0104542   0.0222786
 Gradient time:  CPU 4229.38 s  wall 1086.11 s
 **********************************************************************
 **                                                                  **
 **                       VIBRATIONAL ANALYSIS                       **
 **                       --------------------                       **
 **                                                                  **
 **        VIBRATIONAL FREQUENCIES (CM**-1) AND NORMAL MODES         **
 **     FORCE CONSTANTS (mDYN/ANGSTROM) AND REDUCED MASSES (AMU)     **
 **                  INFRARED INTENSITIES (KM/MOL)                   **
 **                                                                  **
 **********************************************************************
 

 Mode:                 1                      2                      3
 Frequency:        54.27                  68.07                 103.87
 Force Cnst:      0.0053                 0.0071                 0.0120
 Red. Mass:       3.0719                 2.5839                 1.8919
 IR Active:          YES                    YES                    YES
 IR Intens:        0.045                  0.517                  4.689
 Raman Active:       YES                    YES                    YES
               X      Y      Z        X      Y      Z        X      Y      Z
 O          0.001  0.002 -0.190   -0.001  0.013 -0.074   -0.001  0.028 -0.052
 O          0.000  0.002 -0.107   -0.003  0.009 -0.163   -0.010  0.014 -0.024
 O         -0.002 -0.005  0.123    0.002  0.008  0.016    0.007  0.028 -0.120
 C         -0.002 -0.000 -0.163   -0.004  0.000  0.150   -0.008 -0.001  0.085
 C         -0.001 -0.002  0.073    0.000 -0.001 -0.121   -0.000 -0.016  0.184
 C          0.005  0.001  0.252    0.010 -0.017  0.022    0.026 -0.042  0.039
 C         -0.001 -0.001  0.070   -0.006 -0.019  0.237   -0.017 -0.035 -0.022
 C         -0.001 -0.001 -0.044   -0.000  0.010 -0.067   -0.000  0.027 -0.075
 H         -0.130 -0.217 -0.317   -0.075  0.181  0.290   -0.076  0.095  0.159
 H          0.126  0.216 -0.321    0.053 -0.181  0.285    0.020 -0.093  0.153
 H         -0.004 -0.006  0.209    0.009  0.008 -0.402    0.021 -0.025  0.527
 H         -0.023 -0.092  0.253   -0.023  0.030  0.197   -0.053  0.007  0.386
 H          0.046  0.142  0.564    0.079 -0.127 -0.258    0.193 -0.200 -0.395
 H         -0.001 -0.004  0.206   -0.003 -0.026  0.233   -0.006 -0.066  0.177
 H          0.001  0.004 -0.071   -0.015 -0.028  0.531   -0.044 -0.023 -0.390
 TransDip   0.002  0.006 -0.003    0.002 -0.008  0.022    0.014 -0.017  0.066

 Mode:                 4                      5                      6
 Frequency:       125.51                 152.09                 180.89
 Force Cnst:      0.0174                 0.0242                 0.0889
 Red. Mass:       1.8752                 1.7775                 4.6112
 IR Active:          YES                    YES                    YES
 IR Intens:        4.788                  2.976                  0.570
 Raman Active:       YES                    YES                    YES
               X      Y      Z        X      Y      Z        X      Y      Z
 O          0.004  0.064  0.013   -0.018 -0.059 -0.016   -0.002 -0.010  0.347
 O         -0.022  0.043  0.074    0.013 -0.064  0.040    0.001  0.010 -0.326
 O          0.010  0.068  0.052   -0.004 -0.081  0.008   -0.001  0.000  0.013
 C         -0.023 -0.010 -0.099    0.031  0.026 -0.044    0.005 -0.002 -0.099
 C          0.008 -0.024 -0.074   -0.021  0.023 -0.016   -0.000 -0.001  0.034
 C          0.064 -0.107  0.012   -0.054  0.123  0.028   -0.003  0.006 -0.040
 C         -0.045 -0.103 -0.020    0.046  0.123 -0.001   -0.001 -0.002  0.064
 C         -0.002  0.069  0.048   -0.001 -0.081  0.009   -0.000  0.000  0.022
 H         -0.047 -0.134 -0.198    0.079 -0.020 -0.088    0.196 -0.274 -0.324
 H         -0.099  0.122 -0.200    0.080  0.100 -0.099   -0.186  0.285 -0.317
 H          0.078 -0.017 -0.238   -0.106  0.022 -0.072   -0.002 -0.008  0.288
 H         -0.063 -0.119  0.470   -0.139  0.340  0.579   -0.031  0.048  0.108
 H          0.348 -0.259 -0.456    0.057 -0.105 -0.548    0.054 -0.058 -0.214
 H         -0.008 -0.174 -0.151   -0.001  0.223 -0.049   -0.002 -0.013  0.354
 H         -0.130 -0.105  0.156    0.158  0.116  0.060   -0.001  0.006 -0.211
 TransDip   0.027 -0.027 -0.059    0.039  0.031 -0.023    0.015  0.003 -0.019

 Mode:                 7                      8                      9
 Frequency:       278.71                 381.16                 436.31
 Force Cnst:      0.1778                 0.3060                 0.3084
 Red. Mass:       3.8841                 3.5753                 2.7492
 IR Active:          YES                    YES                    YES
 IR Intens:       14.176                  7.597                 17.665
 Raman Active:       YES                    YES                    YES
               X      Y      Z        X      Y      Z        X      Y      Z
 O         -0.084  0.150  0.012    0.021 -0.052  0.003    0.063 -0.026  0.003
 O         -0.080 -0.174 -0.009   -0.064 -0.039 -0.003   -0.022 -0.003 -0.001
 O          0.247 -0.019  0.001   -0.122 -0.061 -0.001    0.197 -0.004 -0.000
 C         -0.111  0.099  0.004    0.176  0.139  0.011    0.060 -0.101 -0.007
 C         -0.119 -0.083 -0.004   -0.131  0.037 -0.000   -0.116  0.129  0.002
 C          0.071 -0.113 -0.002    0.303  0.062  0.016   -0.011 -0.029 -0.076
 C          0.040  0.155  0.003   -0.161  0.017 -0.001   -0.211  0.030  0.001
 C          0.011 -0.014  0.002   -0.030 -0.063 -0.000    0.044 -0.004  0.001
 H         -0.172  0.077 -0.007    0.224  0.135  0.005    0.074 -0.037  0.040
 H         -0.175  0.086  0.012    0.246  0.138  0.012    0.001 -0.157  0.039
 H         -0.258 -0.089 -0.003   -0.179  0.035 -0.000   -0.165  0.123  0.001
 H          0.029 -0.419 -0.178    0.287 -0.253 -0.246   -0.060  0.322  0.471
 H          0.303 -0.049  0.055    0.548  0.075 -0.053   -0.265  0.107  0.347
 H         -0.091  0.425  0.011   -0.133 -0.047 -0.002   -0.120 -0.167 -0.003
 H          0.350  0.141  0.004   -0.243  0.021 -0.002   -0.453  0.041 -0.000
 TransDip  -0.120  0.003 -0.014    0.081 -0.007 -0.035   -0.073  0.031  0.109

 Mode:                10                     11                     12
 Frequency:       459.12                 524.36                 729.02
 Force Cnst:      0.1915                 0.5380                 0.4780
 Red. Mass:       1.5416                 3.3213                 1.5264
 IR Active:          YES                    YES                    YES
 IR Intens:       49.418                  5.491                  7.370
 Raman Active:       YES                    YES                    YES
               X      Y      Z        X      Y      Z        X      Y      Z
 O         -0.005  0.021  0.012   -0.138  0.016  0.010    0.000  0.000 -0.007
 O         -0.028 -0.018 -0.002    0.131  0.030  0.000   -0.001 -0.003  0.074
 O         -0.085  0.022 -0.002    0.016 -0.150 -0.005   -0.000  0.000 -0.003
 C          0.017  0.022 -0.007   -0.152  0.163 -0.003    0.000 -0.000 -0.001
 C         -0.000 -0.083 -0.002    0.140  0.181  0.005    0.001  0.005 -0.195
 C          0.083 -0.035 -0.122    0.019 -0.039 -0.063    0.000  0.000  0.001
 C          0.065 -0.000  0.001    0.002 -0.024 -0.001    0.001 -0.000  0.032
 C         -0.021  0.021  0.004   -0.002 -0.140  0.000   -0.000 -0.000  0.024
 H          0.051  0.123  0.069   -0.110  0.210  0.035   -0.000  0.001 -0.000
 H         -0.066 -0.091  0.080   -0.171  0.069  0.063    0.001 -0.002 -0.000
 H          0.009 -0.081 -0.001    0.121  0.179  0.006   -0.003 -0.009  0.288
 H         -0.068  0.187  0.661   -0.140 -0.256  0.287    0.000  0.000  0.000
 H         -0.014  0.232  0.549    0.288  0.142  0.258    0.000 -0.000 -0.001
 H         -0.002  0.141  0.005    0.171 -0.375 -0.005   -0.002 -0.026  0.813
 H          0.233 -0.008 -0.000   -0.402 -0.007 -0.006    0.003  0.014 -0.458
 TransDip  -0.007  0.078  0.211    0.017  0.040  0.061   -0.000 -0.003  0.087

 Mode:                13                     14                     15
 Frequency:       767.19                 805.35                 868.82
 Force Cnst:      1.6802                 4.0111                 0.7877
 Red. Mass:       4.8453                10.4964                 1.7712
 IR Active:          YES                    YES                    YES
 IR Intens:        0.047                 21.106                 13.316
 Raman Active:       YES                    YES                    YES
               X      Y      Z        X      Y      Z        X      Y      Z
 O         -0.122 -0.269 -0.002    0.029  0.013 -0.177   -0.101  0.062 -0.036
 O         -0.117  0.280  0.001    0.014 -0.024 -0.187   -0.036  0.046 -0.006
 O          0.216 -0.002 -0.005   -0.017  0.019 -0.247    0.024 -0.054 -0.014
 C          0.006  0.010 -0.022   -0.004 -0.005 -0.066    0.037 -0.033  0.091
 C          0.008 -0.046 -0.002   -0.007 -0.001  0.002    0.032  0.020  0.001
 C          0.038  0.059 -0.011   -0.032  0.013  0.029    0.130 -0.038 -0.016
 C          0.041 -0.049 -0.001   -0.008  0.005  0.020    0.030 -0.010  0.002
 C         -0.169  0.006  0.022    0.018 -0.014  0.824   -0.065 -0.036  0.038
 H          0.184  0.121  0.053   -0.025  0.233  0.117   -0.203 -0.372 -0.162
 H          0.134 -0.111  0.072    0.036 -0.242  0.110    0.020  0.326 -0.173
 H          0.317 -0.041  0.003   -0.039 -0.001  0.002    0.080  0.021  0.003
 H         -0.063 -0.249  0.053   -0.060 -0.105  0.011    0.307  0.517 -0.079
 H          0.373  0.146  0.062    0.096  0.019 -0.008   -0.439 -0.148 -0.059
 H         -0.117  0.290  0.007    0.003 -0.015 -0.105    0.037 -0.019 -0.011
 H          0.457 -0.064 -0.004   -0.039  0.009 -0.068    0.037 -0.010 -0.007
 TransDip   0.000  0.001  0.007   -0.005 -0.004  0.147    0.106 -0.036  0.033

 Mode:                16                     17                     18
 Frequency:       910.71                 935.95                 974.75
 Force Cnst:      0.6581                 1.2929                 1.2315
 Red. Mass:       1.3467                 2.5050                 2.1998
 IR Active:          YES                    YES                    YES
 IR Intens:       76.451                 21.602                 30.454
 Raman Active:       YES                    YES                    YES
               X      Y      Z        X      Y      Z        X      Y      Z
 O         -0.002  0.000 -0.002    0.092  0.056 -0.011    0.055 -0.135 -0.047
 O         -0.001 -0.001 -0.007    0.103  0.130  0.003    0.010 -0.050 -0.004
 O          0.000  0.001 -0.004   -0.030 -0.106 -0.006    0.006  0.089 -0.005
 C          0.001 -0.001 -0.001   -0.042  0.076  0.045   -0.062  0.104  0.175
 C          0.001 -0.001  0.054   -0.084 -0.046 -0.002   -0.010 -0.015  0.000
 C          0.001  0.000  0.001   -0.047 -0.045 -0.022   -0.046 -0.028 -0.097
 C          0.002  0.006 -0.166   -0.151 -0.063 -0.005    0.014  0.022  0.000
 C         -0.002  0.000  0.012    0.105 -0.069  0.006    0.014  0.048  0.021
 H         -0.001  0.002  0.001   -0.083 -0.083 -0.071   -0.042 -0.450 -0.247
 H          0.000 -0.004  0.001   -0.003  0.212 -0.065    0.249  0.627 -0.226
 H         -0.001 -0.000  0.021    0.189 -0.043  0.010   -0.105 -0.016  0.003
 H          0.003  0.004 -0.000   -0.062 -0.031  0.029   -0.154 -0.194  0.101
 H         -0.002 -0.000  0.000   -0.096 -0.043  0.009    0.070  0.059  0.072
 H          0.003 -0.027  0.648   -0.450  0.549  0.027    0.074 -0.105 -0.004
 H         -0.006 -0.022  0.740    0.499 -0.083  0.016   -0.138  0.027  0.006
 TransDip   0.002 -0.008  0.280   -0.140 -0.045  0.020   -0.146  0.082  0.057

 Mode:                19                     20                     21
 Frequency:      1002.69                1083.86                1134.17
 Force Cnst:      0.6605                 2.1504                 1.9299
 Red. Mass:       1.1151                 3.1069                 2.5465
 IR Active:          YES                    YES                    YES
 IR Intens:       25.185                 73.573                 33.842
 Raman Active:       YES                    YES                    YES
               X      Y      Z        X      Y      Z        X      Y      Z
 O         -0.001  0.000  0.001    0.005  0.152 -0.012    0.118 -0.062  0.019
 O         -0.000 -0.001  0.002   -0.135  0.065  0.001   -0.064  0.094  0.002
 O         -0.000  0.000 -0.001   -0.001 -0.107 -0.004    0.008 -0.044  0.000
 C          0.000 -0.001 -0.001    0.244  0.009  0.052   -0.052  0.206 -0.079
 C          0.001  0.004 -0.096    0.021  0.008  0.001   -0.060 -0.093 -0.004
 C          0.000  0.000  0.000   -0.183 -0.082 -0.038    0.003 -0.135  0.052
 C          0.000 -0.001  0.021    0.070  0.014  0.001    0.078  0.061  0.003
 C         -0.000  0.000 -0.001   -0.029 -0.051  0.001    0.007 -0.022 -0.003
 H          0.002  0.001  0.001    0.472 -0.074 -0.027   -0.063  0.366  0.044
 H         -0.002 -0.002  0.001    0.346  0.186 -0.084    0.024 -0.037  0.092
 H         -0.005 -0.024  0.833    0.008  0.008  0.001   -0.208 -0.097 -0.002
 H          0.000  0.000 -0.000   -0.347 -0.493  0.086    0.124  0.251 -0.027
 H          0.001  0.000  0.000    0.047 -0.013  0.077   -0.523 -0.280 -0.073
 H          0.003  0.009 -0.346    0.162 -0.167 -0.006    0.243 -0.284 -0.009
 H         -0.004 -0.013  0.418   -0.076  0.016  0.001   -0.297  0.070  0.002
 TransDip   0.001 -0.005  0.161    0.249 -0.116  0.009   -0.185 -0.020 -0.010

 Mode:                22                     23                     24
 Frequency:      1154.61                1221.22                1271.48
 Force Cnst:      2.3028                 4.3120                 1.0310
 Red. Mass:       2.9317                 4.9072                 1.0825
 IR Active:          YES                    YES                    YES
 IR Intens:       42.884                 81.279                  6.618
 Raman Active:       YES                    YES                    YES
               X      Y      Z        X      Y      Z        X      Y      Z
 O          0.131  0.069 -0.008   -0.221  0.013 -0.010   -0.009  0.015  0.046
 O         -0.062  0.120  0.003    0.316  0.109  0.005    0.013  0.002 -0.001
 O         -0.003 -0.115 -0.004    0.007  0.042  0.001    0.000 -0.002  0.001
 C         -0.141 -0.150  0.055    0.123 -0.045  0.010    0.006 -0.021 -0.040
 C         -0.067 -0.102 -0.003   -0.178 -0.265 -0.009   -0.005 -0.007 -0.001
 C          0.048  0.162 -0.037   -0.020 -0.018  0.001   -0.004  0.007 -0.030
 C          0.077  0.061  0.002   -0.000  0.107  0.003   -0.001  0.003  0.000
 C          0.022 -0.038  0.000   -0.011  0.037  0.001   -0.010  0.000  0.002
 H         -0.289 -0.302 -0.042    0.289 -0.033  0.003   -0.628  0.079  0.067
 H         -0.259 -0.017 -0.045    0.026  0.002 -0.019    0.762 -0.054 -0.006
 H         -0.203 -0.106 -0.003   -0.432 -0.281 -0.010   -0.003 -0.007  0.002
 H         -0.005 -0.038 -0.000   -0.035 -0.073  0.001   -0.038 -0.055  0.028
 H          0.490  0.280  0.031    0.001 -0.013  0.017    0.013  0.021 -0.000
 H          0.239 -0.277 -0.010    0.094 -0.132 -0.005   -0.001  0.001  0.001
 H         -0.292  0.070  0.002   -0.551  0.127  0.003   -0.014  0.003 -0.001
 TransDip  -0.197 -0.072  0.002   -0.283  0.055  0.002   -0.069 -0.018 -0.042

 Mode:                25                     26                     27
 Frequency:      1328.77                1339.50                1424.33
 Force Cnst:      1.5723                 2.7072                 1.6156
 Red. Mass:       1.5114                 2.5609                 1.3516
 IR Active:          YES                    YES                    YES
 IR Intens:      383.445                973.449                 92.850
 Raman Active:       YES                    YES                    YES
               X      Y      Z        X      Y      Z        X      Y      Z
 O          0.063  0.028 -0.001   -0.108 -0.058  0.001   -0.032  0.015 -0.001
 O          0.037 -0.045 -0.001   -0.110  0.014 -0.000   -0.037  0.014  0.000
 O          0.012 -0.016 -0.000   -0.030  0.009  0.000   -0.009  0.009  0.000
 C         -0.036  0.001  0.000    0.074  0.007 -0.000   -0.111 -0.044 -0.002
 C         -0.008 -0.056 -0.002    0.033 -0.066 -0.002    0.035 -0.010 -0.000
 C          0.002 -0.004  0.003   -0.005  0.010 -0.005   -0.015 -0.050  0.008
 C         -0.026  0.077  0.002   -0.018  0.084  0.002    0.006 -0.003 -0.000
 C         -0.151  0.011 -0.001    0.290  0.005  0.002    0.091 -0.018 -0.000
 H          0.171  0.001 -0.008   -0.377 -0.003  0.012    0.536  0.149  0.092
 H          0.107 -0.004  0.003   -0.270  0.011 -0.003    0.478  0.120 -0.097
 H          0.888 -0.052  0.004    0.658 -0.074  0.002   -0.073 -0.015 -0.001
 H          0.019  0.042 -0.005   -0.046 -0.099  0.014    0.165  0.426 -0.110
 H          0.013 -0.002  0.000   -0.040  0.001 -0.004    0.320  0.034  0.059
 H         -0.039  0.087  0.002   -0.056  0.142  0.004   -0.082  0.171  0.005
 H         -0.325  0.095  0.002   -0.407  0.110  0.002   -0.176  0.008  0.000
 TransDip  -0.622  0.079  0.001    0.999 -0.001  0.003    0.299 -0.078 -0.003

 Mode:                28                     29                     30
 Frequency:      1439.34                1470.01                1501.59
 Force Cnst:      1.4760                 1.7438                 1.4402
 Red. Mass:       1.2093                 1.3697                 1.0841
 IR Active:          YES                    YES                    YES
 IR Intens:       17.607                  9.624                 13.589
 Raman Active:       YES                    YES                    YES
               X      Y      Z        X      Y      Z        X      Y      Z
 O          0.026  0.003  0.000    0.014 -0.013  0.002    0.018 -0.013 -0.001
 O         -0.011  0.004  0.000    0.010 -0.005 -0.000    0.009 -0.004 -0.000
 O          0.006 -0.005 -0.000    0.004 -0.003  0.000    0.004 -0.003  0.000
 C          0.014  0.010  0.000    0.096  0.062  0.003    0.031 -0.062  0.002
 C          0.103 -0.018  0.000    0.004  0.001  0.000   -0.000  0.001  0.000
 C          0.010  0.016 -0.002   -0.106 -0.078 -0.000   -0.012 -0.008 -0.001
 C          0.029 -0.041 -0.001    0.003 -0.005 -0.000    0.001 -0.003 -0.000
 C         -0.055 -0.004 -0.000   -0.044  0.009  0.000   -0.031  0.007 -0.000
 H         -0.086 -0.041 -0.027   -0.345 -0.114 -0.097   -0.170  0.525  0.426
 H         -0.085 -0.036  0.027   -0.220 -0.093  0.099   -0.217  0.536 -0.412
 H         -0.329 -0.025 -0.003   -0.023  0.002  0.000   -0.010  0.001  0.000
 H         -0.044 -0.129  0.036    0.123  0.548 -0.177    0.001  0.017 -0.016
 H         -0.112 -0.013 -0.021    0.624  0.087  0.104    0.047  0.011  0.021
 H         -0.306  0.628  0.020   -0.020  0.041  0.001   -0.006  0.012  0.000
 H         -0.576 -0.005 -0.002   -0.032 -0.004 -0.000   -0.007 -0.002 -0.000
 TransDip  -0.133  0.016  0.002   -0.048  0.087 -0.006   -0.030  0.114  0.003

 Mode:                31                     32                     33
 Frequency:      1746.28                1847.60                3007.11
 Force Cnst:      8.6366                24.2034                 5.6837
 Red. Mass:       4.8069                12.0340                 1.0668
 IR Active:          YES                    YES                    YES
 IR Intens:       98.619                409.073                 17.915
 Raman Active:       YES                    YES                    YES
               X      Y      Z        X      Y      Z        X      Y      Z
 O          0.018  0.007  0.000   -0.049 -0.073 -0.002    0.002 -0.000 -0.000
 O         -0.030  0.020  0.000    0.018 -0.070 -0.002    0.000  0.000 -0.000
 O          0.005  0.013  0.000   -0.010 -0.485 -0.013   -0.000  0.001  0.000
 C          0.001  0.001  0.000   -0.028  0.014 -0.001    0.002 -0.056 -0.047
 C          0.389 -0.195 -0.004    0.062  0.013  0.001   -0.000  0.000 -0.000
 C         -0.001  0.000 -0.000    0.010 -0.010  0.002   -0.002  0.000 -0.001
 C         -0.320  0.216  0.005   -0.043  0.003 -0.000    0.000  0.000  0.000
 C         -0.054 -0.035 -0.001    0.044  0.809  0.022   -0.001 -0.003  0.000
 H         -0.010 -0.002  0.001    0.143  0.029 -0.036   -0.017  0.134 -0.221
 H         -0.010 -0.001 -0.001    0.139  0.021  0.034   -0.011  0.558  0.785
 H         -0.386 -0.281 -0.011   -0.182  0.029 -0.000    0.000 -0.001 -0.000
 H         -0.002 -0.000 -0.000    0.021  0.029 -0.002    0.002 -0.006 -0.000
 H          0.003  0.001  0.000   -0.033 -0.018  0.001    0.001 -0.004  0.001
 H         -0.068 -0.444 -0.015   -0.048 -0.002 -0.000    0.000 -0.000  0.000
 H          0.399  0.256  0.009    0.069  0.007  0.000   -0.000  0.000 -0.000
 TransDip   0.285 -0.141 -0.003    0.026  0.647  0.017    0.064 -0.100 -0.065

 Mode:                34                     35                     36
 Frequency:      3075.49                3174.52                3178.89
 Force Cnst:      6.0945                 6.2457                 6.3143
 Red. Mass:       1.0936                 1.0519                 1.0605
 IR Active:          YES                    YES                    YES
 IR Intens:       16.158                  4.911                  0.278
 Raman Active:       YES                    YES                    YES
               X      Y      Z        X      Y      Z        X      Y      Z
 O         -0.001 -0.000  0.000    0.000 -0.000 -0.000   -0.000  0.000  0.000
 O         -0.000 -0.000 -0.000   -0.000 -0.000  0.000   -0.000 -0.000 -0.000
 O          0.000 -0.001  0.000   -0.000 -0.000 -0.000    0.000  0.000  0.000
 C         -0.003  0.036 -0.081    0.003  0.003  0.000   -0.000 -0.000  0.000
 C          0.000 -0.000 -0.000    0.000 -0.000 -0.000   -0.008 -0.006 -0.000
 C          0.002 -0.003  0.001   -0.049 -0.040  0.007    0.000  0.000 -0.000
 C         -0.000 -0.000  0.000    0.000 -0.000 -0.000    0.054 -0.043 -0.001
 C          0.001  0.001  0.000    0.000  0.000  0.000    0.000 -0.000 -0.000
 H          0.044 -0.575  0.776   -0.002 -0.002  0.001   -0.000  0.000 -0.000
 H          0.001  0.155  0.181    0.000  0.001  0.002   -0.000  0.000  0.000
 H         -0.000  0.001 -0.000   -0.000  0.001  0.000    0.002  0.129  0.004
 H         -0.019  0.009 -0.004    0.657 -0.197  0.183   -0.001  0.000 -0.000
 H         -0.003  0.012 -0.012   -0.114  0.637 -0.271    0.000 -0.001  0.001
 H         -0.000  0.000  0.000   -0.001 -0.001 -0.000   -0.584 -0.290 -0.011
 H          0.000 -0.000 -0.000    0.000  0.001  0.000    0.035  0.743  0.023
 TransDip  -0.036  0.063 -0.106   -0.066 -0.025  0.000   -0.013 -0.011 -0.000

 Mode:                37                     38                     39
 Frequency:      3238.90                3278.25                3288.91
 Force Cnst:      6.7906                 7.0744                 7.1399
 Red. Mass:       1.0987                 1.1173                 1.1203
 IR Active:          YES                    YES                    YES
 IR Intens:        7.719                  4.314                  4.586
 Raman Active:       YES                    YES                    YES
               X      Y      Z        X      Y      Z        X      Y      Z
 O         -0.000  0.000  0.000   -0.000  0.000 -0.000    0.000 -0.000  0.000
 O         -0.000  0.000  0.000    0.001  0.000  0.000   -0.000 -0.000 -0.000
 O          0.001  0.001  0.000    0.000  0.000  0.000   -0.000 -0.000  0.000
 C          0.000 -0.000  0.000    0.000 -0.000 -0.000   -0.001  0.002 -0.002
 C          0.008 -0.087 -0.003    0.001 -0.018 -0.001    0.000  0.000  0.000
 C         -0.000  0.000 -0.000   -0.000  0.000 -0.000   -0.063  0.070 -0.038
 C         -0.001  0.026  0.001   -0.060 -0.077 -0.003    0.000  0.000  0.000
 C          0.000 -0.002 -0.000    0.000 -0.000 -0.000    0.000  0.000  0.000
 H         -0.000  0.001 -0.001   -0.000  0.000 -0.000   -0.001 -0.018  0.021
 H         -0.000  0.001  0.001   -0.000  0.000  0.000   -0.002  0.000 -0.000
 H         -0.013  0.969  0.029   -0.005  0.195  0.006    0.000 -0.001 -0.000
 H         -0.000  0.000 -0.000    0.001 -0.000  0.000    0.650 -0.187  0.175
 H          0.000 -0.001  0.001    0.000 -0.001  0.001    0.104 -0.644  0.275
 H         -0.059 -0.032 -0.001    0.678  0.324  0.013   -0.001 -0.001 -0.000
 H         -0.011 -0.215 -0.007    0.020  0.622  0.019   -0.000 -0.001 -0.000
 TransDip  -0.087  0.017 -0.000   -0.053 -0.040 -0.002   -0.051  0.039 -0.025

 STANDARD THERMODYNAMIC QUANTITIES AT   298.15 K  AND     1.00 ATM

   This Molecule has  0 Imaginary Frequencies
   Zero point vibrational energy:       71.427 kcal/mol

   Atom    1 Element O  Has Mass   15.99491
   Atom    2 Element O  Has Mass   15.99491
   Atom    3 Element O  Has Mass   15.99491
   Atom    4 Element C  Has Mass   12.00000
   Atom    5 Element C  Has Mass   12.00000
   Atom    6 Element C  Has Mass   12.00000
   Atom    7 Element C  Has Mass   12.00000
   Atom    8 Element C  Has Mass   12.00000
   Atom    9 Element H  Has Mass    1.00783
   Atom   10 Element H  Has Mass    1.00783
   Atom   11 Element H  Has Mass    1.00783
   Atom   12 Element H  Has Mass    1.00783
   Atom   13 Element H  Has Mass    1.00783
   Atom   14 Element H  Has Mass    1.00783
   Atom   15 Element H  Has Mass    1.00783
   Molecular Mass:   115.039540 amu
   Principal axes and moments of inertia in amu*Bohr^2:
                             1           2           3
    Eigenvalues --      246.49366  1876.82708  2110.06599
          X               1.00000    -0.00090    -0.00028
          Y               0.00090     0.99997    -0.00800
          Z               0.00029     0.00800     0.99997
   Rotational Symmetry Number is   1
   The Molecule is an Asymmetric Top
   Translational Enthalpy:        0.889 kcal/mol
   Rotational Enthalpy:           0.889 kcal/mol
   Vibrational Enthalpy:         75.461 kcal/mol
   gas constant (RT):             0.592 kcal/mol
   Translational Entropy:        40.136  cal/mol.K
   Rotational Entropy:           28.369  cal/mol.K
   Vibrational Entropy:          26.677  cal/mol.K

   Total Enthalpy:               77.831 kcal/mol
   Total Entropy:                95.182  cal/mol.K
Archival summary:
1\1\nid03485\FREQ\ProcedureUnspecified\BasisUnspecified\357(2)\sblau\TueNov1315:33:592018TueNov1315:33:592018\0\\#,FREQ,ProcedureUnspecified,BasisUnspecified,\\0,2\O\C,1,1.32397\O,2,1.2002,1,126.428\O,2,1.34187,1,107.47,3,179.969,0\C,4,1.37918,2,117.557,1,-179.898,0\H,5,1.08281,4,114.731,2,-0.274989,0\C,5,1.32126,4,119.876,2,179.732,0\H,7,1.08199,5,119.354,4,179.989,0\H,7,1.08373,5,121.878,4,-0.0387689,0\C,1,1.43765,2,115.379,3,0.379603,0\H,10,1.09484,1,109.191,2,-59.9629,0\H,10,1.09945,1,108.203,2,55.7896,0\C,10,1.47599,1,108.299,2,177.689,0\H,13,1.08221,10,120.44,1,-27.0476,0\H,13,1.08236,10,119.467,1,162.387,0\\\@

 Total job time:  1114.03s(wall), 4987.71s(cpu) 
 Tue Nov 13 15:33:59 2018

        *************************************************************
        *                                                           *
        *  Thank you very much for using Q-Chem.  Have a nice day.  *
        *                                                           *
        *************************************************************


