    2    2  200    2
  0.2044415E+02  0.3866975E-09  0.3866975E-09  0.3866975E-09  0.5000000E-15
   1.0000000000000000E-004
  CAR 
 RubyVaspy :: Si                         
    8   60    9

  0.6250000E-01  0.6250000E-01  0.6250000E-01  0.3906250E-02
   1       -6.148765     -6.148770
   2        5.084709      5.084703
   3        5.533356      5.533350
   4        5.533356      5.533351
   5        8.212373      8.212367
   6        8.293981      8.293975
   7        8.293981      8.293975
   8        9.155638      9.155628
   9       13.163030     13.163029

  0.1875000E+00  0.6250000E-01  0.6250000E-01  0.1171875E-01
   1       -5.882447     -5.882452
   2        3.585148      3.585142
   3        4.732567      4.732561
   4        5.416587      5.416582
   5        8.265026      8.265020
   6        8.537072      8.537066
   7        8.826173      8.826167
   8       10.624270     10.624262
   9       12.349329     12.349330

  0.3125000E+00  0.6250000E-01  0.6250000E-01  0.1171875E-01
   1       -5.239846     -5.239852
   2        1.372942      1.372936
   3        4.247753      4.247747
   4        4.957896      4.957890
   5        7.818534      7.818529
   6        9.026295      9.026289
   7        9.310315      9.310311
   8       12.159396     12.159391
   9       12.391208     12.391209

  0.4375000E+00  0.6250000E-01  0.6250000E-01  0.1171875E-01
   1       -4.343983     -4.343988
   2       -0.501309     -0.501315
   3        4.032642      4.032636
   4        4.553857      4.553850
   5        7.504408      7.504403
   6        9.087492      9.087488
   7        9.101094      9.101091
   8       13.401992     13.401990
   9       13.873895     13.873894

 -0.4375000E+00  0.6250000E-01  0.6250000E-01  0.1171875E-01
   1       -3.899439     -3.899445
   2       -1.196464     -1.196469
   3        4.081916      4.081910
   4        4.337159      4.337153
   5        7.424362      7.424357
   6        8.894776      8.894773
   7        9.163668      9.163665
   8       13.473810     13.473809
   9       14.950634     14.950634

 -0.3125000E+00  0.6250000E-01  0.6250000E-01  0.1171875E-01
   1       -4.650687     -4.650692
   2        0.052812      0.052807
   3        4.357617      4.357611
   4        4.366633      4.366627
   5        7.590594      7.590589
   6        8.902266      8.902263
   7        9.421068      9.421064
   8       12.519416     12.519414
   9       14.126825     14.126825

 -0.1875000E+00  0.6250000E-01  0.6250000E-01  0.1171875E-01
   1       -5.491756     -5.491761
   2        2.098369      2.098363
   3        4.631723      4.631717
   4        4.827985      4.827979
   5        7.945307      7.945302
   6        8.766085      8.766080
   7        9.479015      9.479009
   8       11.338118     11.338115
   9       12.833262     12.833258

 -0.6250000E-01  0.6250000E-01  0.6250000E-01  0.1171875E-01
   1       -6.014920     -6.014925
   2        4.335184      4.335178
   3        5.110047      5.110041
   4        5.267713      5.267707
   5        8.009153      8.009147
   6        8.579517      8.579510
   7        8.870051      8.870045
   8        9.892426      9.892418
   9       12.457176     12.457177

  0.1875000E+00  0.1875000E+00  0.6250000E-01  0.1171875E-01
   1       -5.748442     -5.748447
   2        3.443238      3.443232
   3        4.556284      4.556279
   4        4.638939      4.638933
   5        7.590406      7.590402
   6        9.334795      9.334788
   7        9.723546      9.723540
   8       10.236886     10.236882
   9       12.190484     12.190482

  0.3125000E+00  0.1875000E+00  0.6250000E-01  0.2343750E-01
   1       -5.227388     -5.227393
   2        1.949727      1.949720
   3        3.592675      3.592669
   4        4.382146      4.382141
   5        7.758022      7.758018
   6        9.445154      9.445148
   7       10.058409     10.058408
   8       10.515407     10.515402
   9       13.238921     13.238918

  0.4375000E+00  0.1875000E+00  0.6250000E-01  0.2343750E-01
   1       -4.388242     -4.388248
   2        0.103903      0.103897
   3        3.099907      3.099902
   4        3.974673      3.974667
   5        7.950802      7.950799
   6        9.370842      9.370838
   7       10.543638     10.543633
   8       10.807600     10.807598
   9       14.695614     14.695612

 -0.4375000E+00  0.1875000E+00  0.6250000E-01  0.2343750E-01
   1       -3.632516     -3.632522
   2       -1.096592     -1.096597
   3        2.812587      2.812582
   4        3.882297      3.882291
   5        8.020115      8.020112
   6        9.065289      9.065286
   7       10.389081     10.389077
   8       12.822538     12.822535
   9       14.164138     14.164135

 -0.3125000E+00  0.1875000E+00  0.6250000E-01  0.2343750E-01
   1       -4.086745     -4.086751
   2       -0.411775     -0.411780
   3        2.740032      2.740026
   4        4.165120      4.165114
   5        8.299593      8.299589
   6        8.978044      8.978042
   7       10.335264     10.335259
   8       12.075040     12.075037
   9       14.047011     14.047009

 -0.1875000E+00  0.1875000E+00  0.6250000E-01  0.2343750E-01
   1       -4.981111     -4.981117
   2        1.304066      1.304060
   3        3.040481      3.040477
   4        4.669332      4.669326
   5        8.610974      8.610969
   6        8.914919      8.914914
   7       10.213857     10.213852
   8       10.684391     10.684389
   9       12.580118     12.580117

 -0.6250000E-01  0.1875000E+00  0.6250000E-01  0.2343750E-01
   1       -5.618934     -5.618939
   2        2.772108      2.772102
   3        4.159436      4.159430
   4        5.039955      5.039950
   5        8.151844      8.151839
   6        8.816010      8.816003
   7        9.536577      9.536572
   8       10.760931     10.760927
   9       12.338087     12.338085

  0.3125000E+00  0.3125000E+00  0.6250000E-01  0.1171875E-01
   1       -4.829411     -4.829417
   2        1.446952      1.446946
   3        3.452269      3.452264
   4        3.573334      3.573328
   5        6.783681      6.783678
   6        8.434652      8.434651
   7       11.575625     11.575619
   8       11.717848     11.717843
   9       14.382349     14.382343

  0.4375000E+00  0.3125000E+00  0.6250000E-01  0.2343750E-01
   1       -4.082648     -4.082654
   2        0.217305      0.217298
   3        2.670511      2.670506
   4        3.228802      3.228797
   5        7.095962      7.095960
   6        8.273823      8.273822
   7       11.537175     11.537171
   8       12.705437     12.705433
   9       15.483231     15.483227

 -0.4375000E+00  0.3125000E+00  0.6250000E-01  0.2343750E-01
   1       -3.191107     -3.191113
   2       -0.971878     -0.971884
   3        1.835697      1.835693
   4        3.197536      3.197530
   5        7.329635      7.329633
   6        9.926653      9.926651
   7       11.113687     11.113683
   8       12.619049     12.619044
   9       14.465267     14.465265

 -0.3125000E+00  0.3125000E+00  0.6250000E-01  0.2343750E-01
   1       -3.262090     -3.262096
   2       -0.878504     -0.878510
   3        1.485209      1.485205
   4        3.539539      3.539534
   5        7.730308      7.730306
   6       10.655721     10.655717
   7       11.956953     11.956948
   8       12.240205     12.240205
   9       12.673653     12.673647

 -0.1875000E+00  0.3125000E+00  0.6250000E-01  0.2343750E-01
   1       -4.152111     -4.152117
   2        0.068803      0.068797
   3        2.085174      2.085170
   4        4.121013      4.121007
   5        8.359005      8.359001
   6        9.557037      9.557033
   7       10.982917     10.982912
   8       11.252239     11.252237
   9       13.089941     13.089939

 -0.6250000E-01  0.3125000E+00  0.6250000E-01  0.2343750E-01
   1       -4.868678     -4.868684
   2        0.703589      0.703584
   3        3.707562      3.707556
   4        4.570829      4.570823
   5        8.077054      8.077050
   6        8.929113      8.929108
   7        9.780162      9.780158
   8       11.456574     11.456572
   9       13.410583     13.410581

  0.4375000E+00  0.4375000E+00  0.6250000E-01  0.1171875E-01
   1       -3.433297     -3.433303
   2       -0.640508     -0.640515
   3        2.768336      2.768331
   4        2.984155      2.984150
   5        6.390921      6.390920
   6        7.097527      7.097526
   7       13.861859     13.861854
   8       13.868884     13.868879
   9       16.703067     16.703063

 -0.4375000E+00  0.4375000E+00  0.6250000E-01  0.2343750E-01
   1       -2.529270     -2.529276
   2       -1.623820     -1.623827
   3        2.214086      2.214081
   4        2.742103      2.742097
   5        6.820098      6.820096
   6        7.545774      7.545772
   7       13.610752     13.610748
   8       14.628837     14.628829
   9       15.280332     15.280332

 -0.3125000E+00  0.4375000E+00  0.6250000E-01  0.2343750E-01
   1       -2.626115     -2.626122
   2       -1.458872     -1.458878
   3        1.489409      1.489405
   4        3.055027      3.055022
   5        7.183008      7.183006
   6        9.771736      9.771734
   7       12.091640     12.091636
   8       13.234868     13.234863
   9       13.806230     13.806228

 -0.1875000E+00  0.4375000E+00  0.6250000E-01  0.2343750E-01
   1       -3.378232     -3.378238
   2       -1.052152     -1.052157
   3        2.037503      2.037498
   4        3.652274      3.652268
   5        7.850114      7.850111
   6        9.807450      9.807447
   7       11.341588     11.341584
   8       12.575326     12.575323
   9       13.148664     13.148661

 -0.6250000E-01  0.4375000E+00  0.6250000E-01  0.2343750E-01
   1       -3.983161     -3.983167
   2       -0.901892     -0.901897
   3        3.533919      3.533914
   4        4.237287      4.237281
   5        7.876874      7.876869
   6        8.827887      8.827885
   7        9.601087      9.601083
   8       13.141501     13.141498
   9       14.382983     14.382984

 -0.4375000E+00 -0.4375000E+00  0.6250000E-01  0.1171875E-01
   1       -2.580232     -2.580238
   2       -1.641217     -1.641224
   3        2.631483      2.631477
   4        2.863784      2.863778
   5        6.386722      6.386721
   6        6.744868      6.744867
   7       14.934698     14.934692
   8       15.007023     15.007016
   9       16.409628     16.407248

 -0.3125000E+00 -0.4375000E+00  0.6250000E-01  0.2343750E-01
   1       -3.348359     -3.348365
   2       -0.703873     -0.703880
   3        2.370423      2.370419
   4        2.900643      2.900637
   5        6.907622      6.907620
   6        7.795223      7.795222
   7       12.545702     12.545697
   8       13.861986     13.861981
   9       16.008672     16.008670

 -0.1875000E+00 -0.4375000E+00  0.6250000E-01  0.2343750E-01
   1       -3.816683     -3.816689
   2       -0.442982     -0.442988
   3        2.430647      2.430642
   4        3.495862      3.495856
   5        7.605923      7.605921
   6       10.110617     10.110615
   7       10.336014     10.336009
   8       11.552319     11.552315
   9       15.458363     15.458362

 -0.3125000E+00 -0.3125000E+00  0.6250000E-01  0.1171875E-01
   1       -4.187027     -4.187033
   2        0.398835      0.398828
   3        3.042090      3.042084
   4        3.222520      3.222514
   5        6.521719      6.521717
   6        7.672089      7.672088
   7       12.702029     12.702024
   8       12.778476     12.778471
   9       15.709410     15.709233

 -0.1875000E+00 -0.3125000E+00  0.6250000E-01  0.2343750E-01
   1       -4.712777     -4.712782
   2        1.104298      1.104292
   3        3.087547      3.087542
   4        3.734970      3.734964
   5        7.386170      7.386167
   6        8.948334      8.948332
   7       10.597149     10.597144
   8       11.579963     11.579958
   9       14.327719     14.327716

 -0.1875000E+00 -0.1875000E+00  0.6250000E-01  0.1171875E-01
   1       -5.351899     -5.351904
   2        2.471869      2.471862
   3        3.993969      3.993964
   4        4.025576      4.025570
   5        7.154288      7.154284
   6        9.296173      9.296170
   7       10.530331     10.530326
   8       10.692844     10.692839
   9       13.110066     13.110062

  0.1875000E+00  0.1875000E+00  0.1875000E+00  0.3906250E-02
   1       -5.751641     -5.751646
   2        2.865109      2.865103
   3        5.095378      5.095373
   4        5.095379      5.095373
   5        7.818501      7.818495
   6        8.907433      8.907427
   7        8.907433      8.907427
   8       11.270100     11.270092
   9       12.667533     12.667533

  0.3125000E+00  0.1875000E+00  0.1875000E+00  0.1171875E-01
   1       -5.361802     -5.361808
   2        2.028858      2.028852
   3        3.590220      3.590215
   4        5.114111      5.114105
   5        8.471428      8.471422
   6        9.029498      9.029492
   7        9.319820      9.319817
   8       11.320435     11.320430
   9       11.845369     11.845370

  0.4375000E+00  0.1875000E+00  0.1875000E+00  0.1171875E-01
   1       -4.619126     -4.619132
   2        0.666831      0.666824
   3        2.515183      2.515178
   4        4.612124      4.612118
   5        8.317471      8.317467
   6        9.781988      9.781982
   7        9.985628      9.985626
   8       11.604394     11.604389
   9       11.951566     11.951568

 -0.4375000E+00  0.1875000E+00  0.1875000E+00  0.1171875E-01
   1       -3.730314     -3.730320
   2       -0.813150     -0.813156
   3        2.363638      2.363633
   4        4.083961      4.083955
   5        7.818829      7.818826
   6        9.961008      9.961005
   7       10.167527     10.167523
   8       13.451175     13.451171
   9       13.567886     13.567886

 -0.3125000E+00  0.1875000E+00  0.1875000E+00  0.1171875E-01
   1       -3.714843     -3.714849
   2       -0.841220     -0.841225
   3        2.661448      2.661443
   4        3.767682      3.767676
   5        7.541544      7.541541
   6       10.034056     10.034052
   7       10.510785     10.510782
   8       11.496968     11.496965
   9       15.182862     15.182860

 -0.1875000E+00  0.1875000E+00  0.1875000E+00  0.1171875E-01
   1       -4.602340     -4.602346
   2        0.663262      0.663256
   3        3.270676      3.270671
   4        3.743652      3.743646
   5        7.474054      7.474051
   6        9.659530      9.659527
   7       10.308418     10.308415
   8       10.884364     10.884360
   9       15.254074     15.254542

  0.3125000E+00  0.3125000E+00  0.1875000E+00  0.1171875E-01
   1       -5.106522     -5.106527
   2        1.366635      1.366629
   3        4.094039      4.094033
   4        4.159566      4.159561
   5        7.867564      7.867560
   6        9.240221      9.240215
   7       10.145700     10.145695
   8       10.508481     10.508481
   9       14.052360     14.052347

  0.4375000E+00  0.3125000E+00  0.1875000E+00  0.2343750E-01
   1       -4.483794     -4.483799
   2        0.600744      0.600738
   3        2.571717      2.571713
   4        3.965228      3.965222
   5        8.356353      8.356349
   6        9.400104      9.400099
   7        9.877984      9.877982
   8       11.400120     11.400115
   9       13.746192     13.746190

 -0.4375000E+00  0.3125000E+00  0.1875000E+00  0.2343750E-01
   1       -3.597908     -3.597914
   2       -0.495172     -0.495178
   3        1.786380      1.786375
   4        3.400072      3.400066
   5        8.807947      8.807944
   6        9.291196      9.291193
   7       10.567384     10.567381
   8       12.489115     12.489111
   9       13.979588     13.979584

 -0.3125000E+00  0.3125000E+00  0.1875000E+00  0.2343750E-01
   1       -3.113373     -3.113379
   2       -1.105315     -1.105321
   3        1.790057      1.790053
   4        3.088962      3.088957
   5        8.338077      8.338074
   6        9.619341      9.619338
   7       11.345240     11.345237
   8       12.638669     12.638663
   9       12.898972     12.898970

 -0.1875000E+00  0.3125000E+00  0.1875000E+00  0.2343750E-01
   1       -3.880950     -3.880956
   2       -0.105770     -0.105777
   3        2.210057      2.210052
   4        3.267162      3.267157
   5        8.070160      8.070157
   6        9.277319      9.277318
   7       10.152970     10.152965
   8       12.618538     12.618534
   9       15.044933     15.044932

  0.4375000E+00  0.4375000E+00  0.1875000E+00  0.1171875E-01
   1       -3.989755     -3.989761
   2       -0.049133     -0.049139
   3        2.542611      2.542606
   4        3.414972      3.414966
   5        7.093517      7.093515
   6        9.114474      9.114472
   7       11.388474     11.388469
   8       11.702478     11.702475
   9       16.469976     16.481822

 -0.4375000E+00  0.4375000E+00  0.1875000E+00  0.2343750E-01
   1       -3.190545     -3.190551
   2       -0.843174     -0.843181
   3        1.967794      1.967790
   4        2.733140      2.733135
   5        7.865679      7.865677
   6        8.873953      8.873951
   7       11.039259     11.039255
   8       13.838524     13.838518
   9       14.369767     14.369765

 -0.3125000E+00  0.4375000E+00  0.1875000E+00  0.2343750E-01
   1       -2.387150     -2.387157
   2       -1.594337     -1.594343
   3        1.650766      1.650762
   4        2.234094      2.234090
   5        8.982289      8.982287
   6        9.903769      9.903767
   7       10.595571     10.595567
   8       11.592621     11.592617
   9       15.118202     15.118198

 -0.1875000E+00  0.4375000E+00  0.1875000E+00  0.2343750E-01
   1       -2.986695     -2.986702
   2       -1.049131     -1.049138
   3        1.643222      1.643218
   4        2.707330      2.707326
   5        9.078428      9.078426
   6        9.504544      9.504542
   7       10.272513     10.272509
   8       12.748025     12.748022
   9       13.836551     13.836547

 -0.4375000E+00 -0.4375000E+00  0.1875000E+00  0.1171875E-01
   1       -2.549743     -2.549750
   2       -1.573815     -1.573821
   3        1.754992      1.754987
   4        3.074723      3.074717
   5        6.661528      6.661527
   6        8.557980      8.557978
   7       13.523454     13.523449
   8       13.734764     13.734759
   9       14.927872     14.927929

 -0.3125000E+00 -0.4375000E+00  0.1875000E+00  0.2343750E-01
   1       -2.449929     -2.449936
   2       -1.603685     -1.603691
   3        1.848336      1.848332
   4        2.448476      2.448471
   5        7.760597      7.760595
   6        8.672504      8.672502
   7       12.036804     12.036800
   8       13.145133     13.145128
   9       15.126261     15.126258

 -0.3125000E+00 -0.3125000E+00  0.1875000E+00  0.1171875E-01
   1       -3.287451     -3.287457
   2       -0.805755     -0.805762
   3        2.020147      2.020143
   4        3.189297      3.189291
   5        6.810558      6.810557
   6        8.741444      8.741442
   7       12.546661     12.546657
   8       12.603804     12.603800
   9       16.020537     16.019476

  0.3125000E+00  0.3125000E+00  0.3125000E+00  0.3906250E-02
   1       -4.999788     -4.999794
   2        0.673030      0.673024
   3        4.684719      4.684713
   4        4.684720      4.684714
   5        7.366938      7.366933
   6        9.135982      9.135978
   7        9.135983      9.135978
   8       13.252049     13.252059
   9       13.322633     13.322633

  0.4375000E+00  0.3125000E+00  0.3125000E+00  0.1171875E-01
   1       -4.522904     -4.522910
   2        0.098431      0.098426
   3        3.226204      3.226199
   4        4.597799      4.597793
   5        8.082554      8.082550
   6        9.359286      9.359283
   7        9.405250      9.405245
   8       12.613055     12.613050
   9       12.734468     12.734469

 -0.4375000E+00  0.3125000E+00  0.3125000E+00  0.1171875E-01
   1       -3.735116     -3.735122
   2       -0.431091     -0.431097
   3        1.706716      1.706712
   4        4.020104      4.020098
   5        7.742372      7.742370
   6       10.799121     10.799116
   7       10.971131     10.971128
   8       12.372868     12.372862
   9       12.612802     12.612803

 -0.3125000E+00  0.3125000E+00  0.3125000E+00  0.1171875E-01
   1       -2.918398     -2.918404
   2       -1.208668     -1.208674
   3        1.370223      1.370219
   4        3.476468      3.476462
   5        7.127250      7.127249
   6       11.001896     11.001895
   7       12.065278     12.065273
   8       12.343415     12.343410
   9       13.551886     13.551879

  0.4375000E+00  0.4375000E+00  0.3125000E+00  0.1171875E-01
   1       -4.210458     -4.210464
   2       -0.456666     -0.456671
   3        3.560948      3.560943
   4        4.037329      4.037323
   5        7.792800      7.792797
   6        9.141011      9.141007
   7        9.884717      9.884713
   8       11.919249     11.919247
   9       14.745857     14.745858

 -0.4375000E+00  0.4375000E+00  0.3125000E+00  0.2343750E-01
   1       -3.594106     -3.594112
   2       -0.814181     -0.814187
   3        2.258277      2.258272
   4        3.564000      3.563995
   5        8.560483      8.560480
   6        8.904941      8.904939
   7       11.442553     11.442547
   8       11.658375     11.658374
   9       14.046908     14.046904

 -0.3125000E+00  0.4375000E+00  0.3125000E+00  0.2343750E-01
   1       -2.780983     -2.780989
   2       -1.273622     -1.273628
   3        1.461717      1.461713
   4        2.854290      2.854285
   5        8.209722      8.209720
   6       10.446887     10.446885
   7       11.237688     11.237684
   8       11.766507     11.766503
   9       13.793713     13.793709

 -0.4375000E+00 -0.4375000E+00  0.3125000E+00  0.1171875E-01
   1       -3.237520     -3.237526
   2       -1.092040     -1.092046
   3        1.867172      1.867167
   4        3.575738      3.575732
   5        7.275252      7.275250
   6       10.962763     10.962763
   7       11.272448     11.272444
   8       11.379195     11.379188
   9       14.636067     14.636062

  0.4375000E+00  0.4375000E+00  0.4375000E+00  0.3906250E-02
   1       -4.115643     -4.115649
   2       -0.962482     -0.962486
   3        4.465163      4.465156
   4        4.465163      4.465156
   5        7.114848      7.114844
   6        8.995228      8.995225
   7        8.995228      8.995225
   8       13.363590     13.363590
   9       15.196436     15.196436

 -0.4375000E+00  0.4375000E+00  0.4375000E+00  0.1171875E-01
   1       -3.766826     -3.766832
   2       -1.137073     -1.137078
   3        3.245870      3.245865
   4        4.198443      4.198437
   5        7.824468      7.824464
   6        9.130842      9.130839
   7        9.572304      9.572301
   8       13.753314     13.753311
   9       14.419296     14.419306
