 vasp.5.4.1 24Jun15 (build Feb 01 2016 23:38:11) complex                        
  
 executed on           IFC91_impi date 2016.08.25  07:58:15
 running on   16 total cores
 distrk:  each k-point on   16 cores,    1 groups
 distr:  one band on NCORES_PER_BAND=   1 cores,   16 groups


--------------------------------------------------------------------------------------------------------


 INCAR:
 POTCAR:   PAW_PBE Si 05Jan2001                   

 ----------------------------------------------------------------------------- 
|                                                                             |
|           W    W    AA    RRRRR   N    N  II  N    N   GGGG   !!!           |
|           W    W   A  A   R    R  NN   N  II  NN   N  G    G  !!!           |
|           W    W  A    A  R    R  N N  N  II  N N  N  G       !!!           |
|           W WW W  AAAAAA  RRRRR   N  N N  II  N  N N  G  GGG   !            |
|           WW  WW  A    A  R   R   N   NN  II  N   NN  G    G                |
|           W    W  A    A  R    R  N    N  II  N    N   GGGG   !!!           |
|                                                                             |
|      For optimal performance we recommend to set                            |
|        NCORE= 4 - approx SQRT( number of cores)                             |
|      NCORE specifies how many cores store one orbital (NPAR=cpu/NCORE).     |
|      This setting can  greatly improve the performance of VASP for DFT.     |
|      The default, NPAR=number of cores might be grossly inefficient         |
|      on modern multi-core architectures or massively parallel machines.     |
|      Do your own testing !!!!                                               |
|      Unfortunately you need to use the default for GW and RPA calculations. |
|      (for HF NCORE is supported but not extensively tested yet)             |
|                                                                             |
 ----------------------------------------------------------------------------- 

 POTCAR:   PAW_PBE Si 05Jan2001                   
   VRHFIN =Si: s2p2                                                             
   LEXCH  = PE                                                                  
   EATOM  =   103.0669 eV,    7.5752 Ry                                         
                                                                                
   TITEL  = PAW_PBE Si 05Jan2001                                                
   LULTRA =        F    use ultrasoft PP ?                                      
   IUNSCR =        1    unscreen: 0-lin 1-nonlin 2-no                           
   RPACOR =    1.500    partial core radius                                     
   POMASS =   28.085; ZVAL   =    4.000    mass and valenz                      
   RCORE  =    1.900    outmost cutoff radius                                   
   RWIGS  =    2.480; RWIGS  =    1.312    wigner-seitz radius (au A)           
   ENMAX  =  245.345; ENMIN  =  184.009 eV                                      
   ICORE  =        2    local potential                                         
   LCOR   =        T    correct aug charges                                     
   LPAW   =        T    paw PP                                                  
   EAUG   =  322.069                                                            
   DEXC   =    -.007                                                            
   RMAX   =    2.944    core radius for proj-oper                               
   RAUG   =    1.300    factor for augmentation sphere                          
   RDEP   =    1.993    radius for radial grids                                 
   QCUT   =   -4.246; QGAM   =    8.493    optimization parameters              
                                                                                
   Description                                                                  
     l     E      TYP  RCUT    TYP  RCUT                                        
     0   .000     23  1.900                                                     
     0   .000     23  1.900                                                     
     1   .000     23  1.900                                                     
     1   .000     23  1.900                                                     
     2   .000      7  1.900                                                     
  local pseudopotential read in
  partial core-charges read in
  atomic valenz-charges read in
  non local Contribution for L=           0  read in
    real space projection operators read in
  non local Contribution for L=           0  read in
    real space projection operators read in
  non local Contribution for L=           1  read in
    real space projection operators read in
  non local Contribution for L=           1  read in
    real space projection operators read in
    PAW grid and wavefunctions read in
 
   number of l-projection  operators is LMAX  =           4
   number of lm-projection operators is LMMAX =           8
 

 ----------------------------------------------------------------------------- 
|                                                                             |
|  ADVICE TO THIS USER RUNNING 'VASP/VAMP'   (HEAR YOUR MASTER'S VOICE ...):  |
|                                                                             |
|      You have a (more or less) 'small supercell' and for smaller cells      |
|      it is recommended  to use the reciprocal-space projection scheme!      |
|      The real space optimization is not  efficient for small cells and it   |
|      is also less accurate ...                                              |
|      Therefore set LREAL=.FALSE. in the  INCAR file                         |
|                                                                             |
 ----------------------------------------------------------------------------- 

 Optimization of the real space projectors (new method)

 maximal supplied QI-value         = 19.84
 optimisation between [QCUT,QGAM] = [ 12.50, 25.00] = [ 43.76,175.03] Ry 
 Optimized for a Real-space Cutoff    1.16 Angstroem

   l    n(q)    QCUT    max X(q) W(low)/X(q) W(high)/X(q)  e(spline) 
   0      9    12.501     8.708    0.14E-04    0.64E-05    0.48E-08
   0      9    12.501   106.241    0.99E-04    0.81E-04    0.70E-07
   1      8    12.501     5.901    0.24E-04    0.20E-04    0.18E-07
   1      8    12.501    73.241    0.20E-03    0.24E-03    0.75E-07
 PAW_PBE Si 05Jan2001                   :
 energy of atom  1       EATOM= -103.0669
 kinetic energy error for atom=    0.0003 (will be added to EATOM!!)
 
 
 POSCAR: Si2                                     
  positions in direct lattice
  No initial velocities read in
 exchange correlation table for  LEXCH =        8
   RHO(1)=    0.500       N(1)  =     2000
   RHO(2)=  100.500       N(2)  =     4000
 


--------------------------------------------------------------------------------------------------------


 ion  position               nearest neighbor table
   1  0.001  0.000  0.000-   2 2.36   2 2.37   2 2.37   2 2.38
   2  0.749  0.500  0.750-   1 2.36   1 2.37   1 2.37   1 2.38
 
  LATTYP: Found a face centered cubic cell.
 ALAT       =     5.4694110002
  
  Lattice vectors:
  
 A1 = (   1.9337280000,   3.3493170000,   0.0000000000)
 A2 = (   0.0000000000,   2.2328760000,  -3.1577660000)
 A3 = (  -1.9337290000,   3.3493170000,   0.0000000000)


Analysis of symmetry for initial positions (statically):
=====================================================================
 Subroutine PRICEL returns:
 Original cell was already a primitive cell.
 

 Routine SETGRP: Setting up the symmetry group for a 
 face centered cubic supercell.


 Subroutine GETGRP returns: Found  2 space group operations
 (whereof  1 operations were pure point group operations)
 out of a pool of 48 trial point group operations.


The static configuration has the point symmetry C_1 .
 The point group associated with its full space group is S_2 .


Analysis of symmetry for dynamics (positions and initial velocities):
=====================================================================
 Subroutine PRICEL returns:
 Original cell was already a primitive cell.
 

 Routine SETGRP: Setting up the symmetry group for a 
 face centered cubic supercell.


 Subroutine GETGRP returns: Found  2 space group operations
 (whereof  1 operations were pure point group operations)
 out of a pool of 48 trial point group operations.


The dynamic configuration has the point symmetry C_1 .
 The point group associated with its full space group is S_2 .


Analysis of structural, dynamic, and magnetic symmetry:
=====================================================================
 Subroutine PRICEL returns:
 Original cell was already a primitive cell.
 

 Routine SETGRP: Setting up the symmetry group for a 
 face centered cubic supercell.


 Subroutine GETGRP returns: Found  2 space group operations
 (whereof  1 operations were pure point group operations)
 out of a pool of 48 trial point group operations.


The magnetic configuration has the point symmetry C_1 .
 The point group associated with its full space group is S_2 .


 Subroutine INISYM returns: Found  2 space group operations
 (whereof  1 operations are pure point group operations),
 and found     1 'primitive' translations

 
 
 KPOINTS: pymatgen generated KPOINTS with grid den

Automatic generation of k-mesh.
Space group operators:
 irot       det(A)        alpha          n_x          n_y          n_z        tau_x        tau_y        tau_z
    1     1.000000     0.000000     1.000000     0.000000     0.000000     0.000000     0.000000     0.000000
    2    -1.000000     0.000000     1.000000     0.000000     0.000000    -0.250000     0.500000    -0.250000
 
 Subroutine IBZKPT returns following result:
 ===========================================
 
 Found    666 irreducible k-points:
 
 Following reciprocal coordinates:
            Coordinates               Weight
  0.000000  0.000000  0.000000      1.000000
  0.090909  0.000000 -0.000000      2.000000
  0.181818  0.000000 -0.000000      2.000000
  0.272727  0.000000  0.000000      2.000000
  0.363636  0.000000 -0.000000      2.000000
  0.454545  0.000000  0.000000      2.000000
  0.000000  0.090909 -0.000000      2.000000
  0.090909  0.090909 -0.000000      2.000000
  0.181818  0.090909 -0.000000      2.000000
  0.272727  0.090909 -0.000000      2.000000
  0.363636  0.090909 -0.000000      2.000000
  0.454545  0.090909  0.000000      2.000000
 -0.454545  0.090909  0.000000      2.000000
 -0.363636  0.090909  0.000000      2.000000
 -0.272727  0.090909  0.000000      2.000000
 -0.181818  0.090909 -0.000000      2.000000
 -0.090909  0.090909 -0.000000      2.000000
  0.000000  0.181818 -0.000000      2.000000
  0.090909  0.181818 -0.000000      2.000000
  0.181818  0.181818 -0.000000      2.000000
  0.272727  0.181818 -0.000000      2.000000
  0.363636  0.181818 -0.000000      2.000000
  0.454545  0.181818  0.000000      2.000000
 -0.454545  0.181818 -0.000000      2.000000
 -0.363636  0.181818 -0.000000      2.000000
 -0.272727  0.181818 -0.000000      2.000000
 -0.181818  0.181818 -0.000000      2.000000
 -0.090909  0.181818  0.000000      2.000000
  0.000000  0.272727 -0.000000      2.000000
  0.090909  0.272727 -0.000000      2.000000
  0.181818  0.272727 -0.000000      2.000000
  0.272727  0.272727 -0.000000      2.000000
  0.363636  0.272727 -0.000000      2.000000
  0.454545  0.272727  0.000000      2.000000
 -0.454545  0.272727 -0.000000      2.000000
 -0.363636  0.272727 -0.000000      2.000000
 -0.272727  0.272727 -0.000000      2.000000
 -0.181818  0.272727 -0.000000      2.000000
 -0.090909  0.272727 -0.000000      2.000000
  0.000000  0.363636 -0.000000      2.000000
  0.090909  0.363636 -0.000000      2.000000
  0.181818  0.363636 -0.000000      2.000000
  0.272727  0.363636 -0.000000      2.000000
  0.363636  0.363636 -0.000000      2.000000
  0.454545  0.363636  0.000000      2.000000
 -0.454545  0.363636 -0.000000      2.000000
 -0.363636  0.363636 -0.000000      2.000000
 -0.272727  0.363636  0.000000      2.000000
 -0.181818  0.363636  0.000000      2.000000
 -0.090909  0.363636 -0.000000      2.000000
  0.000000  0.454545 -0.000000      2.000000
  0.090909  0.454545 -0.000000      2.000000
  0.181818  0.454545 -0.000000      2.000000
  0.272727  0.454545 -0.000000      2.000000
  0.363636  0.454545 -0.000000      2.000000
  0.454545  0.454545 -0.000000      2.000000
 -0.454545  0.454545 -0.000000      2.000000
 -0.363636  0.454545 -0.000000      2.000000
 -0.272727  0.454545  0.000000      2.000000
 -0.181818  0.454545 -0.000000      2.000000
 -0.090909  0.454545 -0.000000      2.000000
  0.000000  0.000000  0.090909      2.000000
  0.090909  0.000000  0.090909      2.000000
  0.181818  0.000000  0.090909      2.000000
  0.272727  0.000000  0.090909      2.000000
  0.363636  0.000000  0.090909      2.000000
  0.454545  0.000000  0.090909      2.000000
 -0.454545 -0.000000  0.090909      2.000000
 -0.363636  0.000000  0.090909      2.000000
 -0.272727 -0.000000  0.090909      2.000000
 -0.181818  0.000000  0.090909      2.000000
 -0.090909  0.000000  0.090909      2.000000
  0.000000  0.090909  0.090909      2.000000
  0.090909  0.090909  0.090909      2.000000
  0.181818  0.090909  0.090909      2.000000
  0.272727  0.090909  0.090909      2.000000
  0.363636  0.090909  0.090909      2.000000
  0.454545  0.090909  0.090909      2.000000
 -0.454545  0.090909  0.090909      2.000000
 -0.363636  0.090909  0.090909      2.000000
 -0.272727  0.090909  0.090909      2.000000
 -0.181818  0.090909  0.090909      2.000000
 -0.090909  0.090909  0.090909      2.000000
  0.000000  0.181818  0.090909      2.000000
  0.090909  0.181818  0.090909      2.000000
  0.181818  0.181818  0.090909      2.000000
  0.272727  0.181818  0.090909      2.000000
  0.363636  0.181818  0.090909      2.000000
  0.454545  0.181818  0.090909      2.000000
 -0.454545  0.181818  0.090909      2.000000
 -0.363636  0.181818  0.090909      2.000000
 -0.272727  0.181818  0.090909      2.000000
 -0.181818  0.181818  0.090909      2.000000
 -0.090909  0.181818  0.090909      2.000000
  0.000000  0.272727  0.090909      2.000000
  0.090909  0.272727  0.090909      2.000000
  0.181818  0.272727  0.090909      2.000000
  0.272727  0.272727  0.090909      2.000000
  0.363636  0.272727  0.090909      2.000000
  0.454545  0.272727  0.090909      2.000000
 -0.454545  0.272727  0.090909      2.000000
 -0.363636  0.272727  0.090909      2.000000
 -0.272727  0.272727  0.090909      2.000000
 -0.181818  0.272727  0.090909      2.000000
 -0.090909  0.272727  0.090909      2.000000
  0.000000  0.363636  0.090909      2.000000
  0.090909  0.363636  0.090909      2.000000
  0.181818  0.363636  0.090909      2.000000
  0.272727  0.363636  0.090909      2.000000
  0.363636  0.363636  0.090909      2.000000
  0.454545  0.363636  0.090909      2.000000
 -0.454545  0.363636  0.090909      2.000000
 -0.363636  0.363636  0.090909      2.000000
 -0.272727  0.363636  0.090909      2.000000
 -0.181818  0.363636  0.090909      2.000000
 -0.090909  0.363636  0.090909      2.000000
  0.000000  0.454545  0.090909      2.000000
  0.090909  0.454545  0.090909      2.000000
  0.181818  0.454545  0.090909      2.000000
  0.272727  0.454545  0.090909      2.000000
  0.363636  0.454545  0.090909      2.000000
  0.454545  0.454545  0.090909      2.000000
 -0.454545  0.454545  0.090909      2.000000
 -0.363636  0.454545  0.090909      2.000000
 -0.272727  0.454545  0.090909      2.000000
 -0.181818  0.454545  0.090909      2.000000
 -0.090909  0.454545  0.090909      2.000000
  0.000000 -0.454545  0.090909      2.000000
  0.090909 -0.454545  0.090909      2.000000
  0.181818 -0.454545  0.090909      2.000000
  0.272727 -0.454545  0.090909      2.000000
  0.363636 -0.454545  0.090909      2.000000
  0.454545 -0.454545  0.090909      2.000000
 -0.454545 -0.454545  0.090909      2.000000
 -0.363636 -0.454545  0.090909      2.000000
 -0.272727 -0.454545  0.090909      2.000000
 -0.181818 -0.454545  0.090909      2.000000
 -0.090909 -0.454545  0.090909      2.000000
  0.000000 -0.363636  0.090909      2.000000
  0.090909 -0.363636  0.090909      2.000000
  0.181818 -0.363636  0.090909      2.000000
  0.272727 -0.363636  0.090909      2.000000
  0.363636 -0.363636  0.090909      2.000000
  0.454545 -0.363636  0.090909      2.000000
 -0.454545 -0.363636  0.090909      2.000000
 -0.363636 -0.363636  0.090909      2.000000
 -0.272727 -0.363636  0.090909      2.000000
 -0.181818 -0.363636  0.090909      2.000000
 -0.090909 -0.363636  0.090909      2.000000
  0.000000 -0.272727  0.090909      2.000000
  0.090909 -0.272727  0.090909      2.000000
  0.181818 -0.272727  0.090909      2.000000
  0.272727 -0.272727  0.090909      2.000000
  0.363636 -0.272727  0.090909      2.000000
  0.454545 -0.272727  0.090909      2.000000
 -0.454545 -0.272727  0.090909      2.000000
 -0.363636 -0.272727  0.090909      2.000000
 -0.272727 -0.272727  0.090909      2.000000
 -0.181818 -0.272727  0.090909      2.000000
 -0.090909 -0.272727  0.090909      2.000000
  0.000000 -0.181818  0.090909      2.000000
  0.090909 -0.181818  0.090909      2.000000
  0.181818 -0.181818  0.090909      2.000000
  0.272727 -0.181818  0.090909      2.000000
  0.363636 -0.181818  0.090909      2.000000
  0.454545 -0.181818  0.090909      2.000000
 -0.454545 -0.181818  0.090909      2.000000
 -0.363636 -0.181818  0.090909      2.000000
 -0.272727 -0.181818  0.090909      2.000000
 -0.181818 -0.181818  0.090909      2.000000
 -0.090909 -0.181818  0.090909      2.000000
  0.000000 -0.090909  0.090909      2.000000
  0.090909 -0.090909  0.090909      2.000000
  0.181818 -0.090909  0.090909      2.000000
  0.272727 -0.090909  0.090909      2.000000
  0.363636 -0.090909  0.090909      2.000000
  0.454545 -0.090909  0.090909      2.000000
 -0.454545 -0.090909  0.090909      2.000000
 -0.363636 -0.090909  0.090909      2.000000
 -0.272727 -0.090909  0.090909      2.000000
 -0.181818 -0.090909  0.090909      2.000000
 -0.090909 -0.090909  0.090909      2.000000
  0.000000  0.000000  0.181818      2.000000
  0.090909  0.000000  0.181818      2.000000
  0.181818  0.000000  0.181818      2.000000
  0.272727  0.000000  0.181818      2.000000
  0.363636  0.000000  0.181818      2.000000
  0.454545  0.000000  0.181818      2.000000
 -0.454545 -0.000000  0.181818      2.000000
 -0.363636  0.000000  0.181818      2.000000
 -0.272727 -0.000000  0.181818      2.000000
 -0.181818  0.000000  0.181818      2.000000
 -0.090909  0.000000  0.181818      2.000000
  0.000000  0.090909  0.181818      2.000000
  0.090909  0.090909  0.181818      2.000000
  0.181818  0.090909  0.181818      2.000000
  0.272727  0.090909  0.181818      2.000000
  0.363636  0.090909  0.181818      2.000000
  0.454545  0.090909  0.181818      2.000000
 -0.454545  0.090909  0.181818      2.000000
 -0.363636  0.090909  0.181818      2.000000
 -0.272727  0.090909  0.181818      2.000000
 -0.181818  0.090909  0.181818      2.000000
 -0.090909  0.090909  0.181818      2.000000
  0.000000  0.181818  0.181818      2.000000
  0.090909  0.181818  0.181818      2.000000
  0.181818  0.181818  0.181818      2.000000
  0.272727  0.181818  0.181818      2.000000
  0.363636  0.181818  0.181818      2.000000
  0.454545  0.181818  0.181818      2.000000
 -0.454545  0.181818  0.181818      2.000000
 -0.363636  0.181818  0.181818      2.000000
 -0.272727  0.181818  0.181818      2.000000
 -0.181818  0.181818  0.181818      2.000000
 -0.090909  0.181818  0.181818      2.000000
  0.000000  0.272727  0.181818      2.000000
  0.090909  0.272727  0.181818      2.000000
  0.181818  0.272727  0.181818      2.000000
  0.272727  0.272727  0.181818      2.000000
  0.363636  0.272727  0.181818      2.000000
  0.454545  0.272727  0.181818      2.000000
 -0.454545  0.272727  0.181818      2.000000
 -0.363636  0.272727  0.181818      2.000000
 -0.272727  0.272727  0.181818      2.000000
 -0.181818  0.272727  0.181818      2.000000
 -0.090909  0.272727  0.181818      2.000000
  0.000000  0.363636  0.181818      2.000000
  0.090909  0.363636  0.181818      2.000000
  0.181818  0.363636  0.181818      2.000000
  0.272727  0.363636  0.181818      2.000000
  0.363636  0.363636  0.181818      2.000000
  0.454545  0.363636  0.181818      2.000000
 -0.454545  0.363636  0.181818      2.000000
 -0.363636  0.363636  0.181818      2.000000
 -0.272727  0.363636  0.181818      2.000000
 -0.181818  0.363636  0.181818      2.000000
 -0.090909  0.363636  0.181818      2.000000
  0.000000  0.454545  0.181818      2.000000
  0.090909  0.454545  0.181818      2.000000
  0.181818  0.454545  0.181818      2.000000
  0.272727  0.454545  0.181818      2.000000
  0.363636  0.454545  0.181818      2.000000
  0.454545  0.454545  0.181818      2.000000
 -0.454545  0.454545  0.181818      2.000000
 -0.363636  0.454545  0.181818      2.000000
 -0.272727  0.454545  0.181818      2.000000
 -0.181818  0.454545  0.181818      2.000000
 -0.090909  0.454545  0.181818      2.000000
  0.000000 -0.454545  0.181818      2.000000
  0.090909 -0.454545  0.181818      2.000000
  0.181818 -0.454545  0.181818      2.000000
  0.272727 -0.454545  0.181818      2.000000
  0.363636 -0.454545  0.181818      2.000000
  0.454545 -0.454545  0.181818      2.000000
 -0.454545 -0.454545  0.181818      2.000000
 -0.363636 -0.454545  0.181818      2.000000
 -0.272727 -0.454545  0.181818      2.000000
 -0.181818 -0.454545  0.181818      2.000000
 -0.090909 -0.454545  0.181818      2.000000
  0.000000 -0.363636  0.181818      2.000000
  0.090909 -0.363636  0.181818      2.000000
  0.181818 -0.363636  0.181818      2.000000
  0.272727 -0.363636  0.181818      2.000000
  0.363636 -0.363636  0.181818      2.000000
  0.454545 -0.363636  0.181818      2.000000
 -0.454545 -0.363636  0.181818      2.000000
 -0.363636 -0.363636  0.181818      2.000000
 -0.272727 -0.363636  0.181818      2.000000
 -0.181818 -0.363636  0.181818      2.000000
 -0.090909 -0.363636  0.181818      2.000000
  0.000000 -0.272727  0.181818      2.000000
  0.090909 -0.272727  0.181818      2.000000
  0.181818 -0.272727  0.181818      2.000000
  0.272727 -0.272727  0.181818      2.000000
  0.363636 -0.272727  0.181818      2.000000
  0.454545 -0.272727  0.181818      2.000000
 -0.454545 -0.272727  0.181818      2.000000
 -0.363636 -0.272727  0.181818      2.000000
 -0.272727 -0.272727  0.181818      2.000000
 -0.181818 -0.272727  0.181818      2.000000
 -0.090909 -0.272727  0.181818      2.000000
  0.000000 -0.181818  0.181818      2.000000
  0.090909 -0.181818  0.181818      2.000000
  0.181818 -0.181818  0.181818      2.000000
  0.272727 -0.181818  0.181818      2.000000
  0.363636 -0.181818  0.181818      2.000000
  0.454545 -0.181818  0.181818      2.000000
 -0.454545 -0.181818  0.181818      2.000000
 -0.363636 -0.181818  0.181818      2.000000
 -0.272727 -0.181818  0.181818      2.000000
 -0.181818 -0.181818  0.181818      2.000000
 -0.090909 -0.181818  0.181818      2.000000
  0.000000 -0.090909  0.181818      2.000000
  0.090909 -0.090909  0.181818      2.000000
  0.181818 -0.090909  0.181818      2.000000
  0.272727 -0.090909  0.181818      2.000000
  0.363636 -0.090909  0.181818      2.000000
  0.454545 -0.090909  0.181818      2.000000
 -0.454545 -0.090909  0.181818      2.000000
 -0.363636 -0.090909  0.181818      2.000000
 -0.272727 -0.090909  0.181818      2.000000
 -0.181818 -0.090909  0.181818      2.000000
 -0.090909 -0.090909  0.181818      2.000000
  0.000000  0.000000  0.272727      2.000000
  0.090909  0.000000  0.272727      2.000000
  0.181818  0.000000  0.272727      2.000000
  0.272727  0.000000  0.272727      2.000000
  0.363636  0.000000  0.272727      2.000000
  0.454545  0.000000  0.272727      2.000000
 -0.454545 -0.000000  0.272727      2.000000
 -0.363636  0.000000  0.272727      2.000000
 -0.272727 -0.000000  0.272727      2.000000
 -0.181818  0.000000  0.272727      2.000000
 -0.090909  0.000000  0.272727      2.000000
  0.000000  0.090909  0.272727      2.000000
  0.090909  0.090909  0.272727      2.000000
  0.181818  0.090909  0.272727      2.000000
  0.272727  0.090909  0.272727      2.000000
  0.363636  0.090909  0.272727      2.000000
  0.454545  0.090909  0.272727      2.000000
 -0.454545  0.090909  0.272727      2.000000
 -0.363636  0.090909  0.272727      2.000000
 -0.272727  0.090909  0.272727      2.000000
 -0.181818  0.090909  0.272727      2.000000
 -0.090909  0.090909  0.272727      2.000000
  0.000000  0.181818  0.272727      2.000000
  0.090909  0.181818  0.272727      2.000000
  0.181818  0.181818  0.272727      2.000000
  0.272727  0.181818  0.272727      2.000000
  0.363636  0.181818  0.272727      2.000000
  0.454545  0.181818  0.272727      2.000000
 -0.454545  0.181818  0.272727      2.000000
 -0.363636  0.181818  0.272727      2.000000
 -0.272727  0.181818  0.272727      2.000000
 -0.181818  0.181818  0.272727      2.000000
 -0.090909  0.181818  0.272727      2.000000
  0.000000  0.272727  0.272727      2.000000
  0.090909  0.272727  0.272727      2.000000
  0.181818  0.272727  0.272727      2.000000
  0.272727  0.272727  0.272727      2.000000
  0.363636  0.272727  0.272727      2.000000
  0.454545  0.272727  0.272727      2.000000
 -0.454545  0.272727  0.272727      2.000000
 -0.363636  0.272727  0.272727      2.000000
 -0.272727  0.272727  0.272727      2.000000
 -0.181818  0.272727  0.272727      2.000000
 -0.090909  0.272727  0.272727      2.000000
  0.000000  0.363636  0.272727      2.000000
  0.090909  0.363636  0.272727      2.000000
  0.181818  0.363636  0.272727      2.000000
  0.272727  0.363636  0.272727      2.000000
  0.363636  0.363636  0.272727      2.000000
  0.454545  0.363636  0.272727      2.000000
 -0.454545  0.363636  0.272727      2.000000
 -0.363636  0.363636  0.272727      2.000000
 -0.272727  0.363636  0.272727      2.000000
 -0.181818  0.363636  0.272727      2.000000
 -0.090909  0.363636  0.272727      2.000000
  0.000000  0.454545  0.272727      2.000000
  0.090909  0.454545  0.272727      2.000000
  0.181818  0.454545  0.272727      2.000000
  0.272727  0.454545  0.272727      2.000000
  0.363636  0.454545  0.272727      2.000000
  0.454545  0.454545  0.272727      2.000000
 -0.454545  0.454545  0.272727      2.000000
 -0.363636  0.454545  0.272727      2.000000
 -0.272727  0.454545  0.272727      2.000000
 -0.181818  0.454545  0.272727      2.000000
 -0.090909  0.454545  0.272727      2.000000
  0.000000 -0.454545  0.272727      2.000000
  0.090909 -0.454545  0.272727      2.000000
  0.181818 -0.454545  0.272727      2.000000
  0.272727 -0.454545  0.272727      2.000000
  0.363636 -0.454545  0.272727      2.000000
  0.454545 -0.454545  0.272727      2.000000
 -0.454545 -0.454545  0.272727      2.000000
 -0.363636 -0.454545  0.272727      2.000000
 -0.272727 -0.454545  0.272727      2.000000
 -0.181818 -0.454545  0.272727      2.000000
 -0.090909 -0.454545  0.272727      2.000000
  0.000000 -0.363636  0.272727      2.000000
  0.090909 -0.363636  0.272727      2.000000
  0.181818 -0.363636  0.272727      2.000000
  0.272727 -0.363636  0.272727      2.000000
  0.363636 -0.363636  0.272727      2.000000
  0.454545 -0.363636  0.272727      2.000000
 -0.454545 -0.363636  0.272727      2.000000
 -0.363636 -0.363636  0.272727      2.000000
 -0.272727 -0.363636  0.272727      2.000000
 -0.181818 -0.363636  0.272727      2.000000
 -0.090909 -0.363636  0.272727      2.000000
  0.000000 -0.272727  0.272727      2.000000
  0.090909 -0.272727  0.272727      2.000000
  0.181818 -0.272727  0.272727      2.000000
  0.272727 -0.272727  0.272727      2.000000
  0.363636 -0.272727  0.272727      2.000000
  0.454545 -0.272727  0.272727      2.000000
 -0.454545 -0.272727  0.272727      2.000000
 -0.363636 -0.272727  0.272727      2.000000
 -0.272727 -0.272727  0.272727      2.000000
 -0.181818 -0.272727  0.272727      2.000000
 -0.090909 -0.272727  0.272727      2.000000
  0.000000 -0.181818  0.272727      2.000000
  0.090909 -0.181818  0.272727      2.000000
  0.181818 -0.181818  0.272727      2.000000
  0.272727 -0.181818  0.272727      2.000000
  0.363636 -0.181818  0.272727      2.000000
  0.454545 -0.181818  0.272727      2.000000
 -0.454545 -0.181818  0.272727      2.000000
 -0.363636 -0.181818  0.272727      2.000000
 -0.272727 -0.181818  0.272727      2.000000
 -0.181818 -0.181818  0.272727      2.000000
 -0.090909 -0.181818  0.272727      2.000000
  0.000000 -0.090909  0.272727      2.000000
  0.090909 -0.090909  0.272727      2.000000
  0.181818 -0.090909  0.272727      2.000000
  0.272727 -0.090909  0.272727      2.000000
  0.363636 -0.090909  0.272727      2.000000
  0.454545 -0.090909  0.272727      2.000000
 -0.454545 -0.090909  0.272727      2.000000
 -0.363636 -0.090909  0.272727      2.000000
 -0.272727 -0.090909  0.272727      2.000000
 -0.181818 -0.090909  0.272727      2.000000
 -0.090909 -0.090909  0.272727      2.000000
  0.000000  0.000000  0.363636      2.000000
  0.090909  0.000000  0.363636      2.000000
  0.181818  0.000000  0.363636      2.000000
  0.272727  0.000000  0.363636      2.000000
  0.363636  0.000000  0.363636      2.000000
  0.454545  0.000000  0.363636      2.000000
 -0.454545 -0.000000  0.363636      2.000000
 -0.363636  0.000000  0.363636      2.000000
 -0.272727 -0.000000  0.363636      2.000000
 -0.181818  0.000000  0.363636      2.000000
 -0.090909  0.000000  0.363636      2.000000
  0.000000  0.090909  0.363636      2.000000
  0.090909  0.090909  0.363636      2.000000
  0.181818  0.090909  0.363636      2.000000
  0.272727  0.090909  0.363636      2.000000
  0.363636  0.090909  0.363636      2.000000
  0.454545  0.090909  0.363636      2.000000
 -0.454545  0.090909  0.363636      2.000000
 -0.363636  0.090909  0.363636      2.000000
 -0.272727  0.090909  0.363636      2.000000
 -0.181818  0.090909  0.363636      2.000000
 -0.090909  0.090909  0.363636      2.000000
  0.000000  0.181818  0.363636      2.000000
  0.090909  0.181818  0.363636      2.000000
  0.181818  0.181818  0.363636      2.000000
  0.272727  0.181818  0.363636      2.000000
  0.363636  0.181818  0.363636      2.000000
  0.454545  0.181818  0.363636      2.000000
 -0.454545  0.181818  0.363636      2.000000
 -0.363636  0.181818  0.363636      2.000000
 -0.272727  0.181818  0.363636      2.000000
 -0.181818  0.181818  0.363636      2.000000
 -0.090909  0.181818  0.363636      2.000000
  0.000000  0.272727  0.363636      2.000000
  0.090909  0.272727  0.363636      2.000000
  0.181818  0.272727  0.363636      2.000000
  0.272727  0.272727  0.363636      2.000000
  0.363636  0.272727  0.363636      2.000000
  0.454545  0.272727  0.363636      2.000000
 -0.454545  0.272727  0.363636      2.000000
 -0.363636  0.272727  0.363636      2.000000
 -0.272727  0.272727  0.363636      2.000000
 -0.181818  0.272727  0.363636      2.000000
 -0.090909  0.272727  0.363636      2.000000
  0.000000  0.363636  0.363636      2.000000
  0.090909  0.363636  0.363636      2.000000
  0.181818  0.363636  0.363636      2.000000
  0.272727  0.363636  0.363636      2.000000
  0.363636  0.363636  0.363636      2.000000
  0.454545  0.363636  0.363636      2.000000
 -0.454545  0.363636  0.363636      2.000000
 -0.363636  0.363636  0.363636      2.000000
 -0.272727  0.363636  0.363636      2.000000
 -0.181818  0.363636  0.363636      2.000000
 -0.090909  0.363636  0.363636      2.000000
  0.000000  0.454545  0.363636      2.000000
  0.090909  0.454545  0.363636      2.000000
  0.181818  0.454545  0.363636      2.000000
  0.272727  0.454545  0.363636      2.000000
  0.363636  0.454545  0.363636      2.000000
  0.454545  0.454545  0.363636      2.000000
 -0.454545  0.454545  0.363636      2.000000
 -0.363636  0.454545  0.363636      2.000000
 -0.272727  0.454545  0.363636      2.000000
 -0.181818  0.454545  0.363636      2.000000
 -0.090909  0.454545  0.363636      2.000000
  0.000000 -0.454545  0.363636      2.000000
  0.090909 -0.454545  0.363636      2.000000
  0.181818 -0.454545  0.363636      2.000000
  0.272727 -0.454545  0.363636      2.000000
  0.363636 -0.454545  0.363636      2.000000
  0.454545 -0.454545  0.363636      2.000000
 -0.454545 -0.454545  0.363636      2.000000
 -0.363636 -0.454545  0.363636      2.000000
 -0.272727 -0.454545  0.363636      2.000000
 -0.181818 -0.454545  0.363636      2.000000
 -0.090909 -0.454545  0.363636      2.000000
  0.000000 -0.363636  0.363636      2.000000
  0.090909 -0.363636  0.363636      2.000000
  0.181818 -0.363636  0.363636      2.000000
  0.272727 -0.363636  0.363636      2.000000
  0.363636 -0.363636  0.363636      2.000000
  0.454545 -0.363636  0.363636      2.000000
 -0.454545 -0.363636  0.363636      2.000000
 -0.363636 -0.363636  0.363636      2.000000
 -0.272727 -0.363636  0.363636      2.000000
 -0.181818 -0.363636  0.363636      2.000000
 -0.090909 -0.363636  0.363636      2.000000
  0.000000 -0.272727  0.363636      2.000000
  0.090909 -0.272727  0.363636      2.000000
  0.181818 -0.272727  0.363636      2.000000
  0.272727 -0.272727  0.363636      2.000000
  0.363636 -0.272727  0.363636      2.000000
  0.454545 -0.272727  0.363636      2.000000
 -0.454545 -0.272727  0.363636      2.000000
 -0.363636 -0.272727  0.363636      2.000000
 -0.272727 -0.272727  0.363636      2.000000
 -0.181818 -0.272727  0.363636      2.000000
 -0.090909 -0.272727  0.363636      2.000000
  0.000000 -0.181818  0.363636      2.000000
  0.090909 -0.181818  0.363636      2.000000
  0.181818 -0.181818  0.363636      2.000000
  0.272727 -0.181818  0.363636      2.000000
  0.363636 -0.181818  0.363636      2.000000
  0.454545 -0.181818  0.363636      2.000000
 -0.454545 -0.181818  0.363636      2.000000
 -0.363636 -0.181818  0.363636      2.000000
 -0.272727 -0.181818  0.363636      2.000000
 -0.181818 -0.181818  0.363636      2.000000
 -0.090909 -0.181818  0.363636      2.000000
  0.000000 -0.090909  0.363636      2.000000
  0.090909 -0.090909  0.363636      2.000000
  0.181818 -0.090909  0.363636      2.000000
  0.272727 -0.090909  0.363636      2.000000
  0.363636 -0.090909  0.363636      2.000000
  0.454545 -0.090909  0.363636      2.000000
 -0.454545 -0.090909  0.363636      2.000000
 -0.363636 -0.090909  0.363636      2.000000
 -0.272727 -0.090909  0.363636      2.000000
 -0.181818 -0.090909  0.363636      2.000000
 -0.090909 -0.090909  0.363636      2.000000
  0.000000  0.000000  0.454545      2.000000
  0.090909  0.000000  0.454545      2.000000
  0.181818  0.000000  0.454545      2.000000
  0.272727  0.000000  0.454545      2.000000
  0.363636  0.000000  0.454545      2.000000
  0.454545  0.000000  0.454545      2.000000
 -0.454545 -0.000000  0.454545      2.000000
 -0.363636  0.000000  0.454545      2.000000
 -0.272727 -0.000000  0.454545      2.000000
 -0.181818  0.000000  0.454545      2.000000
 -0.090909  0.000000  0.454545      2.000000
  0.000000  0.090909  0.454545      2.000000
  0.090909  0.090909  0.454545      2.000000
  0.181818  0.090909  0.454545      2.000000
  0.272727  0.090909  0.454545      2.000000
  0.363636  0.090909  0.454545      2.000000
  0.454545  0.090909  0.454545      2.000000
 -0.454545  0.090909  0.454545      2.000000
 -0.363636  0.090909  0.454545      2.000000
 -0.272727  0.090909  0.454545      2.000000
 -0.181818  0.090909  0.454545      2.000000
 -0.090909  0.090909  0.454545      2.000000
  0.000000  0.181818  0.454545      2.000000
  0.090909  0.181818  0.454545      2.000000
  0.181818  0.181818  0.454545      2.000000
  0.272727  0.181818  0.454545      2.000000
  0.363636  0.181818  0.454545      2.000000
  0.454545  0.181818  0.454545      2.000000
 -0.454545  0.181818  0.454545      2.000000
 -0.363636  0.181818  0.454545      2.000000
 -0.272727  0.181818  0.454545      2.000000
 -0.181818  0.181818  0.454545      2.000000
 -0.090909  0.181818  0.454545      2.000000
  0.000000  0.272727  0.454545      2.000000
  0.090909  0.272727  0.454545      2.000000
  0.181818  0.272727  0.454545      2.000000
  0.272727  0.272727  0.454545      2.000000
  0.363636  0.272727  0.454545      2.000000
  0.454545  0.272727  0.454545      2.000000
 -0.454545  0.272727  0.454545      2.000000
 -0.363636  0.272727  0.454545      2.000000
 -0.272727  0.272727  0.454545      2.000000
 -0.181818  0.272727  0.454545      2.000000
 -0.090909  0.272727  0.454545      2.000000
  0.000000  0.363636  0.454545      2.000000
  0.090909  0.363636  0.454545      2.000000
  0.181818  0.363636  0.454545      2.000000
  0.272727  0.363636  0.454545      2.000000
  0.363636  0.363636  0.454545      2.000000
  0.454545  0.363636  0.454545      2.000000
 -0.454545  0.363636  0.454545      2.000000
 -0.363636  0.363636  0.454545      2.000000
 -0.272727  0.363636  0.454545      2.000000
 -0.181818  0.363636  0.454545      2.000000
 -0.090909  0.363636  0.454545      2.000000
  0.000000  0.454545  0.454545      2.000000
  0.090909  0.454545  0.454545      2.000000
  0.181818  0.454545  0.454545      2.000000
  0.272727  0.454545  0.454545      2.000000
  0.363636  0.454545  0.454545      2.000000
  0.454545  0.454545  0.454545      2.000000
 -0.454545  0.454545  0.454545      2.000000
 -0.363636  0.454545  0.454545      2.000000
 -0.272727  0.454545  0.454545      2.000000
 -0.181818  0.454545  0.454545      2.000000
 -0.090909  0.454545  0.454545      2.000000
  0.000000 -0.454545  0.454545      2.000000
  0.090909 -0.454545  0.454545      2.000000
  0.181818 -0.454545  0.454545      2.000000
  0.272727 -0.454545  0.454545      2.000000
  0.363636 -0.454545  0.454545      2.000000
  0.454545 -0.454545  0.454545      2.000000
 -0.454545 -0.454545  0.454545      2.000000
 -0.363636 -0.454545  0.454545      2.000000
 -0.272727 -0.454545  0.454545      2.000000
 -0.181818 -0.454545  0.454545      2.000000
 -0.090909 -0.454545  0.454545      2.000000
  0.000000 -0.363636  0.454545      2.000000
  0.090909 -0.363636  0.454545      2.000000
  0.181818 -0.363636  0.454545      2.000000
  0.272727 -0.363636  0.454545      2.000000
  0.363636 -0.363636  0.454545      2.000000
  0.454545 -0.363636  0.454545      2.000000
 -0.454545 -0.363636  0.454545      2.000000
 -0.363636 -0.363636  0.454545      2.000000
 -0.272727 -0.363636  0.454545      2.000000
 -0.181818 -0.363636  0.454545      2.000000
 -0.090909 -0.363636  0.454545      2.000000
  0.000000 -0.272727  0.454545      2.000000
  0.090909 -0.272727  0.454545      2.000000
  0.181818 -0.272727  0.454545      2.000000
  0.272727 -0.272727  0.454545      2.000000
  0.363636 -0.272727  0.454545      2.000000
  0.454545 -0.272727  0.454545      2.000000
 -0.454545 -0.272727  0.454545      2.000000
 -0.363636 -0.272727  0.454545      2.000000
 -0.272727 -0.272727  0.454545      2.000000
 -0.181818 -0.272727  0.454545      2.000000
 -0.090909 -0.272727  0.454545      2.000000
  0.000000 -0.181818  0.454545      2.000000
  0.090909 -0.181818  0.454545      2.000000
  0.181818 -0.181818  0.454545      2.000000
  0.272727 -0.181818  0.454545      2.000000
  0.363636 -0.181818  0.454545      2.000000
  0.454545 -0.181818  0.454545      2.000000
 -0.454545 -0.181818  0.454545      2.000000
 -0.363636 -0.181818  0.454545      2.000000
 -0.272727 -0.181818  0.454545      2.000000
 -0.181818 -0.181818  0.454545      2.000000
 -0.090909 -0.181818  0.454545      2.000000
  0.000000 -0.090909  0.454545      2.000000
  0.090909 -0.090909  0.454545      2.000000
  0.181818 -0.090909  0.454545      2.000000
  0.272727 -0.090909  0.454545      2.000000
  0.363636 -0.090909  0.454545      2.000000
  0.454545 -0.090909  0.454545      2.000000
 -0.454545 -0.090909  0.454545      2.000000
 -0.363636 -0.090909  0.454545      2.000000
 -0.272727 -0.090909  0.454545      2.000000
 -0.181818 -0.090909  0.454545      2.000000
 -0.090909 -0.090909  0.454545      2.000000
 
 Following cartesian coordinates:
            Coordinates               Weight
  0.000000  0.000000  0.000000      1.000000
  0.023506 -0.013571 -0.009596      2.000000
  0.047012 -0.027143 -0.019193      2.000000
  0.070519 -0.040714 -0.028789      2.000000
  0.094025 -0.054285 -0.038385      2.000000
  0.117531 -0.067856 -0.047982      2.000000
  0.000000  0.027143  0.019193      2.000000
  0.023506  0.013571  0.009596      2.000000
  0.047012  0.000000  0.000000      2.000000
  0.070519 -0.013571 -0.009596      2.000000
  0.094025 -0.027143 -0.019193      2.000000
  0.117531 -0.040714 -0.028789      2.000000
 -0.117531  0.094999  0.067174      2.000000
 -0.094025  0.081428  0.057578      2.000000
 -0.070519  0.067856  0.047982      2.000000
 -0.047012  0.054285  0.038385      2.000000
 -0.023506  0.040714  0.028789      2.000000
  0.000000  0.054285  0.038385      2.000000
  0.023506  0.040714  0.028789      2.000000
  0.047012  0.027143  0.019193      2.000000
  0.070519  0.013571  0.009596      2.000000
  0.094025  0.000000  0.000000      2.000000
  0.117531 -0.013571 -0.009596      2.000000
 -0.117531  0.122142  0.086367      2.000000
 -0.094025  0.108570  0.076771      2.000000
 -0.070519  0.094999  0.067174      2.000000
 -0.047012  0.081428  0.057578      2.000000
 -0.023506  0.067856  0.047982      2.000000
  0.000000  0.081428  0.057578      2.000000
  0.023506  0.067856  0.047982      2.000000
  0.047012  0.054285  0.038385      2.000000
  0.070519  0.040714  0.028789      2.000000
  0.094025  0.027143  0.019193      2.000000
  0.117531  0.013571  0.009596      2.000000
 -0.117531  0.149284  0.105560      2.000000
 -0.094025  0.135713  0.095963      2.000000
 -0.070519  0.122142  0.086367      2.000000
 -0.047012  0.108570  0.076771      2.000000
 -0.023506  0.094999  0.067174      2.000000
  0.000000  0.108570  0.076771      2.000000
  0.023506  0.094999  0.067174      2.000000
  0.047012  0.081428  0.057578      2.000000
  0.070519  0.067856  0.047982      2.000000
  0.094025  0.054285  0.038385      2.000000
  0.117531  0.040714  0.028789      2.000000
 -0.117531  0.176427  0.124752      2.000000
 -0.094025  0.162855  0.115156      2.000000
 -0.070519  0.149284  0.105560      2.000000
 -0.047012  0.135713  0.095963      2.000000
 -0.023506  0.122142  0.086367      2.000000
  0.000000  0.135713  0.095963      2.000000
  0.023506  0.122142  0.086367      2.000000
  0.047012  0.108570  0.076771      2.000000
  0.070519  0.094999  0.067174      2.000000
  0.094025  0.081428  0.057578      2.000000
  0.117531  0.067856  0.047982      2.000000
 -0.117531  0.203569  0.143945      2.000000
 -0.094025  0.189998  0.134349      2.000000
 -0.070519  0.176427  0.124752      2.000000
 -0.047012  0.162855  0.115156      2.000000
 -0.023506  0.149284  0.105560      2.000000
  0.000000  0.000000  0.028789      2.000000
  0.023506 -0.013571  0.019193      2.000000
  0.047012 -0.027143  0.009596      2.000000
  0.070519 -0.040714  0.000000      2.000000
  0.094025 -0.054285 -0.009596      2.000000
  0.117531 -0.067856 -0.019193      2.000000
 -0.117531  0.067856  0.076771      2.000000
 -0.094025  0.054285  0.067174      2.000000
 -0.070519  0.040714  0.057578      2.000000
 -0.047012  0.027143  0.047982      2.000000
 -0.023506  0.013571  0.038385      2.000000
  0.000000  0.027143  0.047982      2.000000
  0.023506  0.013571  0.038385      2.000000
  0.047012  0.000000  0.028789      2.000000
  0.070519 -0.013571  0.019193      2.000000
  0.094025 -0.027143  0.009596      2.000000
  0.117531 -0.040714  0.000000      2.000000
 -0.117531  0.094999  0.095963      2.000000
 -0.094025  0.081428  0.086367      2.000000
 -0.070519  0.067856  0.076771      2.000000
 -0.047012  0.054285  0.067174      2.000000
 -0.023506  0.040714  0.057578      2.000000
  0.000000  0.054285  0.067174      2.000000
  0.023506  0.040714  0.057578      2.000000
  0.047012  0.027143  0.047982      2.000000
  0.070519  0.013571  0.038385      2.000000
  0.094025  0.000000  0.028789      2.000000
  0.117531 -0.013571  0.019193      2.000000
 -0.117531  0.122142  0.115156      2.000000
 -0.094025  0.108570  0.105560      2.000000
 -0.070519  0.094999  0.095963      2.000000
 -0.047012  0.081428  0.086367      2.000000
 -0.023506  0.067856  0.076771      2.000000
  0.000000  0.081428  0.086367      2.000000
  0.023506  0.067856  0.076771      2.000000
  0.047012  0.054285  0.067174      2.000000
  0.070519  0.040714  0.057578      2.000000
  0.094025  0.027143  0.047982      2.000000
  0.117531  0.013571  0.038385      2.000000
 -0.117531  0.149284  0.134349      2.000000
 -0.094025  0.135713  0.124752      2.000000
 -0.070519  0.122142  0.115156      2.000000
 -0.047012  0.108570  0.105560      2.000000
 -0.023506  0.094999  0.095963      2.000000
  0.000000  0.108570  0.105560      2.000000
  0.023506  0.094999  0.095963      2.000000
  0.047012  0.081428  0.086367      2.000000
  0.070519  0.067856  0.076771      2.000000
  0.094025  0.054285  0.067174      2.000000
  0.117531  0.040714  0.057578      2.000000
 -0.117531  0.176427  0.153541      2.000000
 -0.094025  0.162855  0.143945      2.000000
 -0.070519  0.149284  0.134349      2.000000
 -0.047012  0.135713  0.124752      2.000000
 -0.023506  0.122142  0.115156      2.000000
  0.000000  0.135713  0.124752      2.000000
  0.023506  0.122142  0.115156      2.000000
  0.047012  0.108570  0.105560      2.000000
  0.070519  0.094999  0.095963      2.000000
  0.094025  0.081428  0.086367      2.000000
  0.117531  0.067856  0.076771      2.000000
 -0.117531  0.203569  0.172734      2.000000
 -0.094025  0.189998  0.163138      2.000000
 -0.070519  0.176427  0.153541      2.000000
 -0.047012  0.162855  0.143945      2.000000
 -0.023506  0.149284  0.134349      2.000000
  0.000000 -0.135713 -0.067174      2.000000
  0.023506 -0.149284 -0.076771      2.000000
  0.047012 -0.162855 -0.086367      2.000000
  0.070519 -0.176427 -0.095963      2.000000
  0.094025 -0.189998 -0.105560      2.000000
  0.117531 -0.203569 -0.115156      2.000000
 -0.117531 -0.067856 -0.019193      2.000000
 -0.094025 -0.081428 -0.028789      2.000000
 -0.070519 -0.094999 -0.038385      2.000000
 -0.047012 -0.108570 -0.047982      2.000000
 -0.023506 -0.122142 -0.057578      2.000000
  0.000000 -0.108570 -0.047982      2.000000
  0.023506 -0.122142 -0.057578      2.000000
  0.047012 -0.135713 -0.067174      2.000000
  0.070519 -0.149284 -0.076771      2.000000
  0.094025 -0.162855 -0.086367      2.000000
  0.117531 -0.176427 -0.095963      2.000000
 -0.117531 -0.040714  0.000000      2.000000
 -0.094025 -0.054285 -0.009596      2.000000
 -0.070519 -0.067856 -0.019193      2.000000
 -0.047012 -0.081428 -0.028789      2.000000
 -0.023506 -0.094999 -0.038385      2.000000
  0.000000 -0.081428 -0.028789      2.000000
  0.023506 -0.094999 -0.038385      2.000000
  0.047012 -0.108570 -0.047982      2.000000
  0.070519 -0.122142 -0.057578      2.000000
  0.094025 -0.135713 -0.067174      2.000000
  0.117531 -0.149284 -0.076771      2.000000
 -0.117531 -0.013571  0.019193      2.000000
 -0.094025 -0.027143  0.009596      2.000000
 -0.070519 -0.040714  0.000000      2.000000
 -0.047012 -0.054285 -0.009596      2.000000
 -0.023506 -0.067856 -0.019193      2.000000
  0.000000 -0.054285 -0.009596      2.000000
  0.023506 -0.067856 -0.019193      2.000000
  0.047012 -0.081428 -0.028789      2.000000
  0.070519 -0.094999 -0.038385      2.000000
  0.094025 -0.108570 -0.047982      2.000000
  0.117531 -0.122142 -0.057578      2.000000
 -0.117531  0.013571  0.038385      2.000000
 -0.094025 -0.000000  0.028789      2.000000
 -0.070519 -0.013571  0.019193      2.000000
 -0.047012 -0.027143  0.009596      2.000000
 -0.023506 -0.040714  0.000000      2.000000
  0.000000 -0.027143  0.009596      2.000000
  0.023506 -0.040714  0.000000      2.000000
  0.047012 -0.054285 -0.009596      2.000000
  0.070519 -0.067856 -0.019193      2.000000
  0.094025 -0.081428 -0.028789      2.000000
  0.117531 -0.094999 -0.038385      2.000000
 -0.117531  0.040714  0.057578      2.000000
 -0.094025  0.027143  0.047982      2.000000
 -0.070519  0.013571  0.038385      2.000000
 -0.047012 -0.000000  0.028789      2.000000
 -0.023506 -0.013571  0.019193      2.000000
  0.000000  0.000000  0.057578      2.000000
  0.023506 -0.013571  0.047982      2.000000
  0.047012 -0.027143  0.038385      2.000000
  0.070519 -0.040714  0.028789      2.000000
  0.094025 -0.054285  0.019193      2.000000
  0.117531 -0.067856  0.009596      2.000000
 -0.117531  0.067856  0.105560      2.000000
 -0.094025  0.054285  0.095963      2.000000
 -0.070519  0.040714  0.086367      2.000000
 -0.047012  0.027143  0.076771      2.000000
 -0.023506  0.013571  0.067174      2.000000
  0.000000  0.027143  0.076771      2.000000
  0.023506  0.013571  0.067174      2.000000
  0.047012  0.000000  0.057578      2.000000
  0.070519 -0.013571  0.047982      2.000000
  0.094025 -0.027143  0.038385      2.000000
  0.117531 -0.040714  0.028789      2.000000
 -0.117531  0.094999  0.124752      2.000000
 -0.094025  0.081428  0.115156      2.000000
 -0.070519  0.067856  0.105560      2.000000
 -0.047012  0.054285  0.095963      2.000000
 -0.023506  0.040714  0.086367      2.000000
  0.000000  0.054285  0.095963      2.000000
  0.023506  0.040714  0.086367      2.000000
  0.047012  0.027143  0.076771      2.000000
  0.070519  0.013571  0.067174      2.000000
  0.094025  0.000000  0.057578      2.000000
  0.117531 -0.013571  0.047982      2.000000
 -0.117531  0.122142  0.143945      2.000000
 -0.094025  0.108570  0.134349      2.000000
 -0.070519  0.094999  0.124752      2.000000
 -0.047012  0.081428  0.115156      2.000000
 -0.023506  0.067856  0.105560      2.000000
  0.000000  0.081428  0.115156      2.000000
  0.023506  0.067856  0.105560      2.000000
  0.047012  0.054285  0.095963      2.000000
  0.070519  0.040714  0.086367      2.000000
  0.094025  0.027143  0.076771      2.000000
  0.117531  0.013571  0.067174      2.000000
 -0.117531  0.149284  0.163138      2.000000
 -0.094025  0.135713  0.153542      2.000000
 -0.070519  0.122142  0.143945      2.000000
 -0.047012  0.108570  0.134349      2.000000
 -0.023506  0.094999  0.124752      2.000000
  0.000000  0.108570  0.134349      2.000000
  0.023506  0.094999  0.124753      2.000000
  0.047012  0.081428  0.115156      2.000000
  0.070519  0.067856  0.105560      2.000000
  0.094025  0.054285  0.095963      2.000000
  0.117531  0.040714  0.086367      2.000000
 -0.117531  0.176427  0.182331      2.000000
 -0.094025  0.162855  0.172734      2.000000
 -0.070519  0.149284  0.163138      2.000000
 -0.047012  0.135713  0.153542      2.000000
 -0.023506  0.122142  0.143945      2.000000
  0.000000  0.135713  0.153542      2.000000
  0.023506  0.122142  0.143945      2.000000
  0.047012  0.108570  0.134349      2.000000
  0.070519  0.094999  0.124753      2.000000
  0.094025  0.081428  0.115156      2.000000
  0.117531  0.067856  0.105560      2.000000
 -0.117531  0.203569  0.201523      2.000000
 -0.094025  0.189998  0.191927      2.000000
 -0.070519  0.176427  0.182331      2.000000
 -0.047012  0.162855  0.172734      2.000000
 -0.023506  0.149284  0.163138      2.000000
  0.000000 -0.135713 -0.038385      2.000000
  0.023506 -0.149284 -0.047982      2.000000
  0.047012 -0.162855 -0.057578      2.000000
  0.070519 -0.176427 -0.067174      2.000000
  0.094025 -0.189998 -0.076771      2.000000
  0.117531 -0.203569 -0.086367      2.000000
 -0.117531 -0.067856  0.009596      2.000000
 -0.094025 -0.081428  0.000000      2.000000
 -0.070519 -0.094999 -0.009596      2.000000
 -0.047012 -0.108570 -0.019193      2.000000
 -0.023506 -0.122142 -0.028789      2.000000
  0.000000 -0.108570 -0.019193      2.000000
  0.023506 -0.122142 -0.028789      2.000000
  0.047012 -0.135713 -0.038385      2.000000
  0.070519 -0.149284 -0.047982      2.000000
  0.094025 -0.162855 -0.057578      2.000000
  0.117531 -0.176427 -0.067174      2.000000
 -0.117531 -0.040714  0.028789      2.000000
 -0.094025 -0.054285  0.019193      2.000000
 -0.070519 -0.067856  0.009596      2.000000
 -0.047012 -0.081428  0.000000      2.000000
 -0.023506 -0.094999 -0.009596      2.000000
  0.000000 -0.081428  0.000000      2.000000
  0.023506 -0.094999 -0.009596      2.000000
  0.047012 -0.108570 -0.019193      2.000000
  0.070519 -0.122142 -0.028789      2.000000
  0.094025 -0.135713 -0.038385      2.000000
  0.117531 -0.149284 -0.047982      2.000000
 -0.117531 -0.013571  0.047982      2.000000
 -0.094025 -0.027143  0.038385      2.000000
 -0.070519 -0.040714  0.028789      2.000000
 -0.047012 -0.054285  0.019193      2.000000
 -0.023506 -0.067856  0.009596      2.000000
  0.000000 -0.054285  0.019193      2.000000
  0.023506 -0.067856  0.009596      2.000000
  0.047012 -0.081428  0.000000      2.000000
  0.070519 -0.094999 -0.009596      2.000000
  0.094025 -0.108570 -0.019193      2.000000
  0.117531 -0.122142 -0.028789      2.000000
 -0.117531  0.013571  0.067174      2.000000
 -0.094025 -0.000000  0.057578      2.000000
 -0.070519 -0.013571  0.047982      2.000000
 -0.047012 -0.027143  0.038385      2.000000
 -0.023506 -0.040714  0.028789      2.000000
  0.000000 -0.027143  0.038385      2.000000
  0.023506 -0.040714  0.028789      2.000000
  0.047012 -0.054285  0.019193      2.000000
  0.070519 -0.067856  0.009596      2.000000
  0.094025 -0.081428  0.000000      2.000000
  0.117531 -0.094999 -0.009596      2.000000
 -0.117531  0.040714  0.086367      2.000000
 -0.094025  0.027143  0.076771      2.000000
 -0.070519  0.013571  0.067174      2.000000
 -0.047012 -0.000000  0.057578      2.000000
 -0.023506 -0.013571  0.047982      2.000000
  0.000000  0.000000  0.086367      2.000000
  0.023506 -0.013571  0.076771      2.000000
  0.047012 -0.027143  0.067174      2.000000
  0.070519 -0.040714  0.057578      2.000000
  0.094025 -0.054285  0.047982      2.000000
  0.117531 -0.067856  0.038385      2.000000
 -0.117531  0.067856  0.134349      2.000000
 -0.094025  0.054285  0.124753      2.000000
 -0.070519  0.040714  0.115156      2.000000
 -0.047012  0.027143  0.105560      2.000000
 -0.023506  0.013571  0.095963      2.000000
  0.000000  0.027143  0.105560      2.000000
  0.023506  0.013571  0.095964      2.000000
  0.047012  0.000000  0.086367      2.000000
  0.070519 -0.013571  0.076771      2.000000
  0.094025 -0.027143  0.067174      2.000000
  0.117531 -0.040714  0.057578      2.000000
 -0.117531  0.094999  0.153542      2.000000
 -0.094025  0.081428  0.143945      2.000000
 -0.070519  0.067856  0.134349      2.000000
 -0.047012  0.054285  0.124753      2.000000
 -0.023506  0.040714  0.115156      2.000000
  0.000000  0.054285  0.124753      2.000000
  0.023506  0.040714  0.115156      2.000000
  0.047012  0.027143  0.105560      2.000000
  0.070519  0.013571  0.095964      2.000000
  0.094025  0.000000  0.086367      2.000000
  0.117531 -0.013571  0.076771      2.000000
 -0.117531  0.122142  0.172734      2.000000
 -0.094025  0.108570  0.163138      2.000000
 -0.070519  0.094999  0.153542      2.000000
 -0.047012  0.081428  0.143945      2.000000
 -0.023506  0.067856  0.134349      2.000000
  0.000000  0.081428  0.143945      2.000000
  0.023506  0.067856  0.134349      2.000000
  0.047012  0.054285  0.124753      2.000000
  0.070519  0.040714  0.115156      2.000000
  0.094025  0.027143  0.105560      2.000000
  0.117531  0.013571  0.095964      2.000000
 -0.117531  0.149284  0.191927      2.000000
 -0.094025  0.135713  0.182331      2.000000
 -0.070519  0.122142  0.172734      2.000000
 -0.047012  0.108570  0.163138      2.000000
 -0.023506  0.094999  0.153542      2.000000
  0.000000  0.108570  0.163138      2.000000
  0.023506  0.094999  0.153542      2.000000
  0.047012  0.081428  0.143945      2.000000
  0.070519  0.067856  0.134349      2.000000
  0.094025  0.054285  0.124753      2.000000
  0.117531  0.040714  0.115156      2.000000
 -0.117531  0.176427  0.211120      2.000000
 -0.094025  0.162855  0.201523      2.000000
 -0.070519  0.149284  0.191927      2.000000
 -0.047012  0.135713  0.182331      2.000000
 -0.023506  0.122142  0.172734      2.000000
  0.000000  0.135713  0.182331      2.000000
  0.023506  0.122142  0.172734      2.000000
  0.047012  0.108570  0.163138      2.000000
  0.070519  0.094999  0.153542      2.000000
  0.094025  0.081428  0.143945      2.000000
  0.117531  0.067856  0.134349      2.000000
 -0.117531  0.203569  0.230312      2.000000
 -0.094025  0.189998  0.220716      2.000000
 -0.070519  0.176427  0.211120      2.000000
 -0.047012  0.162855  0.201523      2.000000
 -0.023506  0.149284  0.191927      2.000000
  0.000000 -0.135713 -0.009596      2.000000
  0.023506 -0.149284 -0.019193      2.000000
  0.047012 -0.162855 -0.028789      2.000000
  0.070519 -0.176427 -0.038385      2.000000
  0.094025 -0.189998 -0.047982      2.000000
  0.117531 -0.203569 -0.057578      2.000000
 -0.117531 -0.067856  0.038385      2.000000
 -0.094025 -0.081428  0.028789      2.000000
 -0.070519 -0.094999  0.019193      2.000000
 -0.047012 -0.108570  0.009596      2.000000
 -0.023506 -0.122142  0.000000      2.000000
  0.000000 -0.108570  0.009596      2.000000
  0.023506 -0.122142  0.000000      2.000000
  0.047012 -0.135713 -0.009596      2.000000
  0.070519 -0.149284 -0.019193      2.000000
  0.094025 -0.162855 -0.028789      2.000000
  0.117531 -0.176427 -0.038385      2.000000
 -0.117531 -0.040714  0.057578      2.000000
 -0.094025 -0.054285  0.047982      2.000000
 -0.070519 -0.067856  0.038385      2.000000
 -0.047012 -0.081428  0.028789      2.000000
 -0.023506 -0.094999  0.019193      2.000000
  0.000000 -0.081428  0.028789      2.000000
  0.023506 -0.094999  0.019193      2.000000
  0.047012 -0.108570  0.009596      2.000000
  0.070519 -0.122142  0.000000      2.000000
  0.094025 -0.135713 -0.009596      2.000000
  0.117531 -0.149284 -0.019193      2.000000
 -0.117531 -0.013571  0.076771      2.000000
 -0.094025 -0.027143  0.067174      2.000000
 -0.070519 -0.040714  0.057578      2.000000
 -0.047012 -0.054285  0.047982      2.000000
 -0.023506 -0.067856  0.038385      2.000000
  0.000000 -0.054285  0.047982      2.000000
  0.023506 -0.067856  0.038385      2.000000
  0.047012 -0.081428  0.028789      2.000000
  0.070519 -0.094999  0.019193      2.000000
  0.094025 -0.108570  0.009596      2.000000
  0.117531 -0.122142  0.000000      2.000000
 -0.117531  0.013571  0.095963      2.000000
 -0.094025 -0.000000  0.086367      2.000000
 -0.070519 -0.013571  0.076771      2.000000
 -0.047012 -0.027143  0.067174      2.000000
 -0.023506 -0.040714  0.057578      2.000000
  0.000000 -0.027143  0.067174      2.000000
  0.023506 -0.040714  0.057578      2.000000
  0.047012 -0.054285  0.047982      2.000000
  0.070519 -0.067856  0.038385      2.000000
  0.094025 -0.081428  0.028789      2.000000
  0.117531 -0.094999  0.019193      2.000000
 -0.117531  0.040714  0.115156      2.000000
 -0.094025  0.027143  0.105560      2.000000
 -0.070519  0.013571  0.095963      2.000000
 -0.047012 -0.000000  0.086367      2.000000
 -0.023506 -0.013571  0.076771      2.000000
  0.000000  0.000000  0.115156      2.000000
  0.023506 -0.013571  0.105560      2.000000
  0.047012 -0.027143  0.095964      2.000000
  0.070519 -0.040714  0.086367      2.000000
  0.094025 -0.054285  0.076771      2.000000
  0.117531 -0.067856  0.067175      2.000000
 -0.117531  0.067856  0.163138      2.000000
 -0.094025  0.054285  0.153542      2.000000
 -0.070519  0.040714  0.143945      2.000000
 -0.047012  0.027143  0.134349      2.000000
 -0.023506  0.013571  0.124753      2.000000
  0.000000  0.027143  0.134349      2.000000
  0.023506  0.013571  0.124753      2.000000
  0.047012  0.000000  0.115156      2.000000
  0.070519 -0.013571  0.105560      2.000000
  0.094025 -0.027143  0.095964      2.000000
  0.117531 -0.040714  0.086367      2.000000
 -0.117531  0.094999  0.182331      2.000000
 -0.094025  0.081428  0.172734      2.000000
 -0.070519  0.067856  0.163138      2.000000
 -0.047012  0.054285  0.153542      2.000000
 -0.023506  0.040714  0.143945      2.000000
  0.000000  0.054285  0.153542      2.000000
  0.023506  0.040714  0.143945      2.000000
  0.047012  0.027143  0.134349      2.000000
  0.070519  0.013571  0.124753      2.000000
  0.094025  0.000000  0.115156      2.000000
  0.117531 -0.013571  0.105560      2.000000
 -0.117531  0.122142  0.201523      2.000000
 -0.094025  0.108570  0.191927      2.000000
 -0.070519  0.094999  0.182331      2.000000
 -0.047012  0.081428  0.172734      2.000000
 -0.023506  0.067856  0.163138      2.000000
  0.000000  0.081428  0.172734      2.000000
  0.023506  0.067856  0.163138      2.000000
  0.047012  0.054285  0.153542      2.000000
  0.070519  0.040714  0.143945      2.000000
  0.094025  0.027143  0.134349      2.000000
  0.117531  0.013571  0.124753      2.000000
 -0.117531  0.149284  0.220716      2.000000
 -0.094025  0.135713  0.211120      2.000000
 -0.070519  0.122142  0.201523      2.000000
 -0.047012  0.108570  0.191927      2.000000
 -0.023506  0.094999  0.182331      2.000000
  0.000000  0.108570  0.191927      2.000000
  0.023506  0.094999  0.182331      2.000000
  0.047012  0.081428  0.172734      2.000000
  0.070519  0.067856  0.163138      2.000000
  0.094025  0.054285  0.153542      2.000000
  0.117531  0.040714  0.143945      2.000000
 -0.117531  0.176427  0.239909      2.000000
 -0.094025  0.162855  0.230312      2.000000
 -0.070519  0.149284  0.220716      2.000000
 -0.047012  0.135713  0.211120      2.000000
 -0.023506  0.122142  0.201523      2.000000
  0.000000  0.135713  0.211120      2.000000
  0.023506  0.122142  0.201523      2.000000
  0.047012  0.108570  0.191927      2.000000
  0.070519  0.094999  0.182331      2.000000
  0.094025  0.081428  0.172734      2.000000
  0.117531  0.067856  0.163138      2.000000
 -0.117531  0.203569  0.259101      2.000000
 -0.094025  0.189998  0.249505      2.000000
 -0.070519  0.176427  0.239909      2.000000
 -0.047012  0.162855  0.230312      2.000000
 -0.023506  0.149284  0.220716      2.000000
  0.000000 -0.135713  0.019193      2.000000
  0.023506 -0.149284  0.009596      2.000000
  0.047012 -0.162855  0.000000      2.000000
  0.070519 -0.176427 -0.009596      2.000000
  0.094025 -0.189998 -0.019193      2.000000
  0.117531 -0.203569 -0.028789      2.000000
 -0.117531 -0.067856  0.067174      2.000000
 -0.094025 -0.081428  0.057578      2.000000
 -0.070519 -0.094999  0.047982      2.000000
 -0.047012 -0.108570  0.038385      2.000000
 -0.023506 -0.122142  0.028789      2.000000
  0.000000 -0.108570  0.038385      2.000000
  0.023506 -0.122142  0.028789      2.000000
  0.047012 -0.135713  0.019193      2.000000
  0.070519 -0.149284  0.009596      2.000000
  0.094025 -0.162855  0.000000      2.000000
  0.117531 -0.176427 -0.009596      2.000000
 -0.117531 -0.040714  0.086367      2.000000
 -0.094025 -0.054285  0.076771      2.000000
 -0.070519 -0.067856  0.067174      2.000000
 -0.047012 -0.081428  0.057578      2.000000
 -0.023506 -0.094999  0.047982      2.000000
  0.000000 -0.081428  0.057578      2.000000
  0.023506 -0.094999  0.047982      2.000000
  0.047012 -0.108570  0.038385      2.000000
  0.070519 -0.122142  0.028789      2.000000
  0.094025 -0.135713  0.019193      2.000000
  0.117531 -0.149284  0.009596      2.000000
 -0.117531 -0.013571  0.105560      2.000000
 -0.094025 -0.027143  0.095964      2.000000
 -0.070519 -0.040714  0.086367      2.000000
 -0.047012 -0.054285  0.076771      2.000000
 -0.023506 -0.067856  0.067174      2.000000
  0.000000 -0.054285  0.076771      2.000000
  0.023506 -0.067856  0.067175      2.000000
  0.047012 -0.081428  0.057578      2.000000
  0.070519 -0.094999  0.047982      2.000000
  0.094025 -0.108570  0.038385      2.000000
  0.117531 -0.122142  0.028789      2.000000
 -0.117531  0.013571  0.124753      2.000000
 -0.094025 -0.000000  0.115156      2.000000
 -0.070519 -0.013571  0.105560      2.000000
 -0.047012 -0.027143  0.095964      2.000000
 -0.023506 -0.040714  0.086367      2.000000
  0.000000 -0.027143  0.095964      2.000000
  0.023506 -0.040714  0.086367      2.000000
  0.047012 -0.054285  0.076771      2.000000
  0.070519 -0.067856  0.067175      2.000000
  0.094025 -0.081428  0.057578      2.000000
  0.117531 -0.094999  0.047982      2.000000
 -0.117531  0.040714  0.143945      2.000000
 -0.094025  0.027143  0.134349      2.000000
 -0.070519  0.013571  0.124753      2.000000
 -0.047012 -0.000000  0.115156      2.000000
 -0.023506 -0.013571  0.105560      2.000000
  0.000000  0.000000  0.143945      2.000000
  0.023506 -0.013571  0.134349      2.000000
  0.047012 -0.027143  0.124753      2.000000
  0.070519 -0.040714  0.115156      2.000000
  0.094025 -0.054285  0.105560      2.000000
  0.117531 -0.067856  0.095964      2.000000
 -0.117531  0.067856  0.191927      2.000000
 -0.094025  0.054285  0.182331      2.000000
 -0.070519  0.040714  0.172734      2.000000
 -0.047012  0.027143  0.163138      2.000000
 -0.023506  0.013571  0.153542      2.000000
  0.000000  0.027143  0.163138      2.000000
  0.023506  0.013571  0.153542      2.000000
  0.047012  0.000000  0.143945      2.000000
  0.070519 -0.013571  0.134349      2.000000
  0.094025 -0.027143  0.124753      2.000000
  0.117531 -0.040714  0.115156      2.000000
 -0.117531  0.094999  0.211120      2.000000
 -0.094025  0.081428  0.201523      2.000000
 -0.070519  0.067856  0.191927      2.000000
 -0.047012  0.054285  0.182331      2.000000
 -0.023506  0.040714  0.172734      2.000000
  0.000000  0.054285  0.182331      2.000000
  0.023506  0.040714  0.172734      2.000000
  0.047012  0.027143  0.163138      2.000000
  0.070519  0.013571  0.153542      2.000000
  0.094025  0.000000  0.143945      2.000000
  0.117531 -0.013571  0.134349      2.000000
 -0.117531  0.122142  0.230312      2.000000
 -0.094025  0.108570  0.220716      2.000000
 -0.070519  0.094999  0.211120      2.000000
 -0.047012  0.081428  0.201523      2.000000
 -0.023506  0.067856  0.191927      2.000000
  0.000000  0.081428  0.201523      2.000000
  0.023506  0.067856  0.191927      2.000000
  0.047012  0.054285  0.182331      2.000000
  0.070519  0.040714  0.172734      2.000000
  0.094025  0.027143  0.163138      2.000000
  0.117531  0.013571  0.153542      2.000000
 -0.117531  0.149284  0.249505      2.000000
 -0.094025  0.135713  0.239909      2.000000
 -0.070519  0.122142  0.230312      2.000000
 -0.047012  0.108570  0.220716      2.000000
 -0.023506  0.094999  0.211120      2.000000
  0.000000  0.108570  0.220716      2.000000
  0.023506  0.094999  0.211120      2.000000
  0.047012  0.081428  0.201523      2.000000
  0.070519  0.067856  0.191927      2.000000
  0.094025  0.054285  0.182331      2.000000
  0.117531  0.040714  0.172734      2.000000
 -0.117531  0.176427  0.268698      2.000000
 -0.094025  0.162855  0.259101      2.000000
 -0.070519  0.149284  0.249505      2.000000
 -0.047012  0.135713  0.239909      2.000000
 -0.023506  0.122142  0.230312      2.000000
  0.000000  0.135713  0.239909      2.000000
  0.023506  0.122142  0.230312      2.000000
  0.047012  0.108570  0.220716      2.000000
  0.070519  0.094999  0.211120      2.000000
  0.094025  0.081428  0.201523      2.000000
  0.117531  0.067856  0.191927      2.000000
 -0.117531  0.203569  0.287890      2.000000
 -0.094025  0.189998  0.278294      2.000000
 -0.070519  0.176427  0.268698      2.000000
 -0.047012  0.162855  0.259101      2.000000
 -0.023506  0.149284  0.249505      2.000000
  0.000000 -0.135713  0.047982      2.000000
  0.023506 -0.149284  0.038386      2.000000
  0.047012 -0.162855  0.028789      2.000000
  0.070519 -0.176427  0.019193      2.000000
  0.094025 -0.189998  0.009596      2.000000
  0.117531 -0.203569  0.000000      2.000000
 -0.117531 -0.067856  0.095964      2.000000
 -0.094025 -0.081428  0.086367      2.000000
 -0.070519 -0.094999  0.076771      2.000000
 -0.047012 -0.108570  0.067175      2.000000
 -0.023506 -0.122142  0.057578      2.000000
  0.000000 -0.108570  0.067175      2.000000
  0.023506 -0.122142  0.057578      2.000000
  0.047012 -0.135713  0.047982      2.000000
  0.070519 -0.149284  0.038386      2.000000
  0.094025 -0.162855  0.028789      2.000000
  0.117531 -0.176427  0.019193      2.000000
 -0.117531 -0.040714  0.115156      2.000000
 -0.094025 -0.054285  0.105560      2.000000
 -0.070519 -0.067856  0.095964      2.000000
 -0.047012 -0.081428  0.086367      2.000000
 -0.023506 -0.094999  0.076771      2.000000
  0.000000 -0.081428  0.086367      2.000000
  0.023506 -0.094999  0.076771      2.000000
  0.047012 -0.108570  0.067175      2.000000
  0.070519 -0.122142  0.057578      2.000000
  0.094025 -0.135713  0.047982      2.000000
  0.117531 -0.149284  0.038386      2.000000
 -0.117531 -0.013571  0.134349      2.000000
 -0.094025 -0.027143  0.124753      2.000000
 -0.070519 -0.040714  0.115156      2.000000
 -0.047012 -0.054285  0.105560      2.000000
 -0.023506 -0.067856  0.095964      2.000000
  0.000000 -0.054285  0.105560      2.000000
  0.023506 -0.067856  0.095964      2.000000
  0.047012 -0.081428  0.086367      2.000000
  0.070519 -0.094999  0.076771      2.000000
  0.094025 -0.108570  0.067175      2.000000
  0.117531 -0.122142  0.057578      2.000000
 -0.117531  0.013571  0.153542      2.000000
 -0.094025 -0.000000  0.143945      2.000000
 -0.070519 -0.013571  0.134349      2.000000
 -0.047012 -0.027143  0.124753      2.000000
 -0.023506 -0.040714  0.115156      2.000000
  0.000000 -0.027143  0.124753      2.000000
  0.023506 -0.040714  0.115156      2.000000
  0.047012 -0.054285  0.105560      2.000000
  0.070519 -0.067856  0.095964      2.000000
  0.094025 -0.081428  0.086367      2.000000
  0.117531 -0.094999  0.076771      2.000000
 -0.117531  0.040714  0.172734      2.000000
 -0.094025  0.027143  0.163138      2.000000
 -0.070519  0.013571  0.153542      2.000000
 -0.047012 -0.000000  0.143945      2.000000
 -0.023506 -0.013571  0.134349      2.000000
 
 TETIRR: Found   3990 inequivalent tetrahedra from     7986
 
 Subroutine IBZKPT_HF returns following result:
 ==============================================
 
 Found   1331 k-points in 1st BZ
 the following   1331 k-points will be used (e.g. in the exchange kernel)
 Following reciprocal coordinates:   # in IRBZ
  0.000000  0.000000  0.000000    0.00075131   1 t-inv F
  0.090909  0.000000 -0.000000    0.00075131   2 t-inv F
  0.181818  0.000000 -0.000000    0.00075131   3 t-inv F
  0.272727  0.000000  0.000000    0.00075131   4 t-inv F
  0.363636  0.000000 -0.000000    0.00075131   5 t-inv F
  0.454545  0.000000  0.000000    0.00075131   6 t-inv F
  0.000000  0.090909 -0.000000    0.00075131   7 t-inv F
  0.090909  0.090909 -0.000000    0.00075131   8 t-inv F
  0.181818  0.090909 -0.000000    0.00075131   9 t-inv F
  0.272727  0.090909 -0.000000    0.00075131  10 t-inv F
  0.363636  0.090909 -0.000000    0.00075131  11 t-inv F
  0.454545  0.090909  0.000000    0.00075131  12 t-inv F
 -0.454545  0.090909  0.000000    0.00075131  13 t-inv F
 -0.363636  0.090909  0.000000    0.00075131  14 t-inv F
 -0.272727  0.090909  0.000000    0.00075131  15 t-inv F
 -0.181818  0.090909 -0.000000    0.00075131  16 t-inv F
 -0.090909  0.090909 -0.000000    0.00075131  17 t-inv F
  0.000000  0.181818 -0.000000    0.00075131  18 t-inv F
  0.090909  0.181818 -0.000000    0.00075131  19 t-inv F
  0.181818  0.181818 -0.000000    0.00075131  20 t-inv F
  0.272727  0.181818 -0.000000    0.00075131  21 t-inv F
  0.363636  0.181818 -0.000000    0.00075131  22 t-inv F
  0.454545  0.181818  0.000000    0.00075131  23 t-inv F
 -0.454545  0.181818 -0.000000    0.00075131  24 t-inv F
 -0.363636  0.181818 -0.000000    0.00075131  25 t-inv F
 -0.272727  0.181818 -0.000000    0.00075131  26 t-inv F
 -0.181818  0.181818 -0.000000    0.00075131  27 t-inv F
 -0.090909  0.181818  0.000000    0.00075131  28 t-inv F
  0.000000  0.272727 -0.000000    0.00075131  29 t-inv F
  0.090909  0.272727 -0.000000    0.00075131  30 t-inv F
  0.181818  0.272727 -0.000000    0.00075131  31 t-inv F
  0.272727  0.272727 -0.000000    0.00075131  32 t-inv F
  0.363636  0.272727 -0.000000    0.00075131  33 t-inv F
  0.454545  0.272727  0.000000    0.00075131  34 t-inv F
 -0.454545  0.272727 -0.000000    0.00075131  35 t-inv F
 -0.363636  0.272727 -0.000000    0.00075131  36 t-inv F
 -0.272727  0.272727 -0.000000    0.00075131  37 t-inv F
 -0.181818  0.272727 -0.000000    0.00075131  38 t-inv F
 -0.090909  0.272727 -0.000000    0.00075131  39 t-inv F
  0.000000  0.363636 -0.000000    0.00075131  40 t-inv F
  0.090909  0.363636 -0.000000    0.00075131  41 t-inv F
  0.181818  0.363636 -0.000000    0.00075131  42 t-inv F
  0.272727  0.363636 -0.000000    0.00075131  43 t-inv F
  0.363636  0.363636 -0.000000    0.00075131  44 t-inv F
  0.454545  0.363636  0.000000    0.00075131  45 t-inv F
 -0.454545  0.363636 -0.000000    0.00075131  46 t-inv F
 -0.363636  0.363636 -0.000000    0.00075131  47 t-inv F
 -0.272727  0.363636  0.000000    0.00075131  48 t-inv F
 -0.181818  0.363636  0.000000    0.00075131  49 t-inv F
 -0.090909  0.363636 -0.000000    0.00075131  50 t-inv F
  0.000000  0.454545 -0.000000    0.00075131  51 t-inv F
  0.090909  0.454545 -0.000000    0.00075131  52 t-inv F
  0.181818  0.454545 -0.000000    0.00075131  53 t-inv F
  0.272727  0.454545 -0.000000    0.00075131  54 t-inv F
  0.363636  0.454545 -0.000000    0.00075131  55 t-inv F
  0.454545  0.454545 -0.000000    0.00075131  56 t-inv F
 -0.454545  0.454545 -0.000000    0.00075131  57 t-inv F
 -0.363636  0.454545 -0.000000    0.00075131  58 t-inv F
 -0.272727  0.454545  0.000000    0.00075131  59 t-inv F
 -0.181818  0.454545 -0.000000    0.00075131  60 t-inv F
 -0.090909  0.454545 -0.000000    0.00075131  61 t-inv F
  0.000000  0.000000  0.090909    0.00075131  62 t-inv F
  0.090909  0.000000  0.090909    0.00075131  63 t-inv F
  0.181818  0.000000  0.090909    0.00075131  64 t-inv F
  0.272727  0.000000  0.090909    0.00075131  65 t-inv F
  0.363636  0.000000  0.090909    0.00075131  66 t-inv F
  0.454545  0.000000  0.090909    0.00075131  67 t-inv F
 -0.454545 -0.000000  0.090909    0.00075131  68 t-inv F
 -0.363636  0.000000  0.090909    0.00075131  69 t-inv F
 -0.272727 -0.000000  0.090909    0.00075131  70 t-inv F
 -0.181818  0.000000  0.090909    0.00075131  71 t-inv F
 -0.090909  0.000000  0.090909    0.00075131  72 t-inv F
  0.000000  0.090909  0.090909    0.00075131  73 t-inv F
  0.090909  0.090909  0.090909    0.00075131  74 t-inv F
  0.181818  0.090909  0.090909    0.00075131  75 t-inv F
  0.272727  0.090909  0.090909    0.00075131  76 t-inv F
  0.363636  0.090909  0.090909    0.00075131  77 t-inv F
  0.454545  0.090909  0.090909    0.00075131  78 t-inv F
 -0.454545  0.090909  0.090909    0.00075131  79 t-inv F
 -0.363636  0.090909  0.090909    0.00075131  80 t-inv F
 -0.272727  0.090909  0.090909    0.00075131  81 t-inv F
 -0.181818  0.090909  0.090909    0.00075131  82 t-inv F
 -0.090909  0.090909  0.090909    0.00075131  83 t-inv F
  0.000000  0.181818  0.090909    0.00075131  84 t-inv F
  0.090909  0.181818  0.090909    0.00075131  85 t-inv F
  0.181818  0.181818  0.090909    0.00075131  86 t-inv F
  0.272727  0.181818  0.090909    0.00075131  87 t-inv F
  0.363636  0.181818  0.090909    0.00075131  88 t-inv F
  0.454545  0.181818  0.090909    0.00075131  89 t-inv F
 -0.454545  0.181818  0.090909    0.00075131  90 t-inv F
 -0.363636  0.181818  0.090909    0.00075131  91 t-inv F
 -0.272727  0.181818  0.090909    0.00075131  92 t-inv F
 -0.181818  0.181818  0.090909    0.00075131  93 t-inv F
 -0.090909  0.181818  0.090909    0.00075131  94 t-inv F
  0.000000  0.272727  0.090909    0.00075131  95 t-inv F
  0.090909  0.272727  0.090909    0.00075131  96 t-inv F
  0.181818  0.272727  0.090909    0.00075131  97 t-inv F
  0.272727  0.272727  0.090909    0.00075131  98 t-inv F
  0.363636  0.272727  0.090909    0.00075131  99 t-inv F
  0.454545  0.272727  0.090909    0.00075131 100 t-inv F
 -0.454545  0.272727  0.090909    0.00075131 101 t-inv F
 -0.363636  0.272727  0.090909    0.00075131 102 t-inv F
 -0.272727  0.272727  0.090909    0.00075131 103 t-inv F
 -0.181818  0.272727  0.090909    0.00075131 104 t-inv F
 -0.090909  0.272727  0.090909    0.00075131 105 t-inv F
  0.000000  0.363636  0.090909    0.00075131 106 t-inv F
  0.090909  0.363636  0.090909    0.00075131 107 t-inv F
  0.181818  0.363636  0.090909    0.00075131 108 t-inv F
  0.272727  0.363636  0.090909    0.00075131 109 t-inv F
  0.363636  0.363636  0.090909    0.00075131 110 t-inv F
  0.454545  0.363636  0.090909    0.00075131 111 t-inv F
 -0.454545  0.363636  0.090909    0.00075131 112 t-inv F
 -0.363636  0.363636  0.090909    0.00075131 113 t-inv F
 -0.272727  0.363636  0.090909    0.00075131 114 t-inv F
 -0.181818  0.363636  0.090909    0.00075131 115 t-inv F
 -0.090909  0.363636  0.090909    0.00075131 116 t-inv F
  0.000000  0.454545  0.090909    0.00075131 117 t-inv F
  0.090909  0.454545  0.090909    0.00075131 118 t-inv F
  0.181818  0.454545  0.090909    0.00075131 119 t-inv F
  0.272727  0.454545  0.090909    0.00075131 120 t-inv F
  0.363636  0.454545  0.090909    0.00075131 121 t-inv F
  0.454545  0.454545  0.090909    0.00075131 122 t-inv F
 -0.454545  0.454545  0.090909    0.00075131 123 t-inv F
 -0.363636  0.454545  0.090909    0.00075131 124 t-inv F
 -0.272727  0.454545  0.090909    0.00075131 125 t-inv F
 -0.181818  0.454545  0.090909    0.00075131 126 t-inv F
 -0.090909  0.454545  0.090909    0.00075131 127 t-inv F
  0.000000 -0.454545  0.090909    0.00075131 128 t-inv F
  0.090909 -0.454545  0.090909    0.00075131 129 t-inv F
  0.181818 -0.454545  0.090909    0.00075131 130 t-inv F
  0.272727 -0.454545  0.090909    0.00075131 131 t-inv F
  0.363636 -0.454545  0.090909    0.00075131 132 t-inv F
  0.454545 -0.454545  0.090909    0.00075131 133 t-inv F
 -0.454545 -0.454545  0.090909    0.00075131 134 t-inv F
 -0.363636 -0.454545  0.090909    0.00075131 135 t-inv F
 -0.272727 -0.454545  0.090909    0.00075131 136 t-inv F
 -0.181818 -0.454545  0.090909    0.00075131 137 t-inv F
 -0.090909 -0.454545  0.090909    0.00075131 138 t-inv F
  0.000000 -0.363636  0.090909    0.00075131 139 t-inv F
  0.090909 -0.363636  0.090909    0.00075131 140 t-inv F
  0.181818 -0.363636  0.090909    0.00075131 141 t-inv F
  0.272727 -0.363636  0.090909    0.00075131 142 t-inv F
  0.363636 -0.363636  0.090909    0.00075131 143 t-inv F
  0.454545 -0.363636  0.090909    0.00075131 144 t-inv F
 -0.454545 -0.363636  0.090909    0.00075131 145 t-inv F
 -0.363636 -0.363636  0.090909    0.00075131 146 t-inv F
 -0.272727 -0.363636  0.090909    0.00075131 147 t-inv F
 -0.181818 -0.363636  0.090909    0.00075131 148 t-inv F
 -0.090909 -0.363636  0.090909    0.00075131 149 t-inv F
  0.000000 -0.272727  0.090909    0.00075131 150 t-inv F
  0.090909 -0.272727  0.090909    0.00075131 151 t-inv F
  0.181818 -0.272727  0.090909    0.00075131 152 t-inv F
  0.272727 -0.272727  0.090909    0.00075131 153 t-inv F
  0.363636 -0.272727  0.090909    0.00075131 154 t-inv F
  0.454545 -0.272727  0.090909    0.00075131 155 t-inv F
 -0.454545 -0.272727  0.090909    0.00075131 156 t-inv F
 -0.363636 -0.272727  0.090909    0.00075131 157 t-inv F
 -0.272727 -0.272727  0.090909    0.00075131 158 t-inv F
 -0.181818 -0.272727  0.090909    0.00075131 159 t-inv F
 -0.090909 -0.272727  0.090909    0.00075131 160 t-inv F
  0.000000 -0.181818  0.090909    0.00075131 161 t-inv F
  0.090909 -0.181818  0.090909    0.00075131 162 t-inv F
  0.181818 -0.181818  0.090909    0.00075131 163 t-inv F
  0.272727 -0.181818  0.090909    0.00075131 164 t-inv F
  0.363636 -0.181818  0.090909    0.00075131 165 t-inv F
  0.454545 -0.181818  0.090909    0.00075131 166 t-inv F
 -0.454545 -0.181818  0.090909    0.00075131 167 t-inv F
[...]
     12       0.4188      0.00000
     13      -1.2234      0.00000
     14       0.6915      0.00000
     15       0.1644      0.00000
     16      -1.1856      0.00000

 k-point 657 :       0.0909   -0.0909    0.4545
  band No.  band energies     occupation 
      1       0.7778      0.00000
      2      -3.2269      0.00000
      3       1.2850      0.00000
      4       1.2695      0.00000
      5       1.3493      0.00000
      6       1.2066      0.00000
      7       1.1673      0.00000
      8      -1.3619      0.00000
      9      -1.5952      0.00000
     10      -0.9384      0.00000
     11      -2.5465      0.00000
     12       0.9531      0.00000
     13      -0.0314      0.00000
     14      -0.2223      0.00000
     15      -1.0205      0.00000
     16      -0.6014      0.00000

 k-point 658 :       0.1818   -0.0909    0.4545
  band No.  band energies     occupation 
      1       0.5028      0.00000
      2      -2.5665      0.00000
      3       1.0291      0.00000
      4       1.2659      0.00000
      5       0.8663      0.00000
      6      -1.2336      0.00000
      7       1.2866      0.00000
      8       1.1387      0.00000
      9      -1.8321      0.00000
     10      -0.8898      0.00000
     11      -2.2094      0.00000
     12       1.3749      0.00000
     13      -0.3301      0.00000
     14      -0.0958      0.00000
     15       0.0259      0.00000
     16      -0.5705      0.00000

 k-point 659 :       0.2727   -0.0909    0.4545
  band No.  band energies     occupation 
      1       0.2250      0.00000
      2      -0.9728      0.00000
      3       0.0514      0.00000
      4       0.9322      0.00000
      5      -0.4223      0.00000
      6       0.1017      0.00000
      7       1.4267      0.00000
      8      -0.0048      0.00000
      9      -0.5166      0.00000
     10      -1.2813      0.00000
     11      -1.6392      0.00000
     12       0.5583      0.00000
     13      -0.0814      0.00000
     14       0.9200      0.00000
     15      -0.2487      0.00000
     16       1.3446      0.00000

 k-point 660 :       0.3636   -0.0909    0.4545
  band No.  band energies     occupation 
      1      -0.0881      0.00000
      2       0.1483      0.00000
      3       1.0304      0.00000
      4      -1.0695      0.00000
      5      -1.0148      0.00000
      6       0.9688      0.00000
      7       0.3411      0.00000
      8      -0.1625      0.00000
      9      -0.1513      0.00000
     10      -1.4802      0.00000
     11       0.0719      0.00000
     12       1.4830      0.00000
     13      -0.3611      0.00000
     14       0.3708      0.00000
     15      -0.2715      0.00000
     16       0.8650      0.00000

 k-point 661 :       0.4545   -0.0909    0.4545
  band No.  band energies     occupation 
      1      -0.4434      0.00000
      2       0.7079      0.00000
      3      -0.2371      0.00000
      4      -0.1309      0.00000
      5       0.1093      0.00000
      6       0.0004      0.00000
      7      -1.2403      0.00000
      8      -0.3025      0.00000
      9       1.8793      0.00000
     10      -0.4070      0.00000
     11       0.0843      0.00000
     12      -0.4178      0.00000
     13       2.5199      0.00000
     14      -2.0268      0.00000
     15      -1.4873      0.00000
     16       1.1125      0.00000

 k-point 662 :      -0.4545   -0.0909    0.4545
  band No.  band energies     occupation 
      1       1.7029      0.00000
      2      -1.8293      0.00000
      3      -0.9838      0.00000
      4       1.0690      0.00000
      5       1.3889      0.00000
      6      -1.3358      0.00000
      7      -0.3195      0.00000
      8       0.0658      0.00000
      9       0.0287      0.00000
     10       0.3082      0.00000
     11      -0.2052      0.00000
     12      -0.3894      0.00000
     13       0.2537      0.00000
     14       0.9732      0.00000
     15       1.5440      0.00000
     16      -1.5543      0.00000

 k-point 663 :      -0.3636   -0.0909    0.4545
  band No.  band energies     occupation 
      1       1.9878      0.00000
      2      -3.2772      0.00000
      3       0.2018      0.00000
      4       1.1055      0.00000
      5       1.3596      0.00000
      6      -1.0316      0.00000
      7       0.5413      0.00000
      8      -1.3085      0.00000
      9       1.2981      0.00000
     10      -0.9500      0.00000
     11      -1.8610      0.00000
     12       2.0852      0.00000
     13      -1.3896      0.00000
     14       0.8213      0.00000
     15      -0.7910      0.00000
     16       2.7019      0.00000

 k-point 664 :      -0.2727   -0.0909    0.4545
  band No.  band energies     occupation 
      1       1.9359      0.00000
      2      -4.1773      0.00000
      3       1.1536      0.00000
      4       1.1166      0.00000
      5       1.3715      0.00000
      6       1.3127      0.00000
      7       1.0773      0.00000
      8      -3.0854      0.00000
      9       0.2247      0.00000
     10      -1.1899      0.00000
     11       0.0090      0.00000
     12      -0.0740      0.00000
     13      -1.0779      0.00000
     14      -4.1458      0.00000
     15      -0.0154      0.00000
     16       1.2662      0.00000

 k-point 665 :      -0.1818   -0.0909    0.4545
  band No.  band energies     occupation 
      1       1.7067      0.00000
      2      -4.0791      0.00000
      3       1.2589      0.00000
      4       1.0843      0.00000
      5       1.3240      0.00000
      6       1.3400      0.00000
      7       1.3087      0.00000
      8      -1.4115      0.00000
      9      -0.7941      0.00000
     10      -2.2744      0.00000
     11       0.3727      0.00000
     12      -1.5028      0.00000
     13      -1.4065      0.00000
     14      -1.0754      0.00000
     15      -0.0627      0.00000
     16      -0.6906      0.00000

 k-point 666 :      -0.0909   -0.0909    0.4545
  band No.  band energies     occupation 
      1       1.3908      0.00000
      2      -3.7281      0.00000
      3       1.2173      0.00000
      4       0.9973      0.00000
      5       1.3058      0.00000
      6       1.2867      0.00000
      7       1.6387      0.00000
      8      -0.8122      0.00000
      9      -0.2084      0.00000
     10      -3.2720      0.00000
     11      -3.6600      0.00000
     12      -0.6372      0.00000
     13       1.4720      0.00000
     14      -0.2565      0.00000
     15       0.7160      0.00000
     16      -2.0214      0.00000


------------------------ aborting loop because EDIFF is reached ----------------------------------------


 FEWALD executed in parallel
    FORLOC:  cpu time    0.0010: real time    0.0007
    FORNL :  cpu time    4.9213: real time    4.9261
    STRESS:  cpu time   14.8197: real time   14.8295
    FORCOR:  cpu time    0.0230: real time    0.0229
    OFIELD:  cpu time    0.0000: real time    0.0001
 FEWALD executed in parallel
    FORLOC:  cpu time    0.0000: real time    0.0007
    FORNL :  cpu time    4.9233: real time    4.9266
    STRESS:  cpu time   14.8417: real time   14.8837
    FORCOR:  cpu time    0.0230: real time    0.0229
    OFIELD:  cpu time    0.0000: real time    0.0001
 FEWALD executed in parallel
    FORLOC:  cpu time    0.0000: real time    0.0006
    FORNL :  cpu time    4.9243: real time    4.9270
    STRESS:  cpu time   14.8127: real time   14.8222
    FORCOR:  cpu time    0.0230: real time    0.0230
    OFIELD:  cpu time    0.0000: real time    0.0001
 FEWALD executed in parallel
    FORLOC:  cpu time    0.0010: real time    0.0007
    FORNL :  cpu time    4.9233: real time    4.9270
    STRESS:  cpu time   14.7778: real time   14.8412
    FORCOR:  cpu time    0.0230: real time    0.0229
    OFIELD:  cpu time    0.0000: real time    0.0001

 INTERNAL STRAIN TENSOR  FOR ION    1  DIRECTION 3   (eV/Angst):
 -----------------------------------------------------------------------------
    -4.80887  0.32242 -1.66088
    -0.15397 -5.44146 -0.87200
    -1.66474 -0.08888  9.46808


 POSITION                   FORCE-CONSTANT FOR ION    1 DIRECTION 3 (eV/Angst/Angst)
 -----------------------------------------------------------------------------------
      0.00491      0.00024      0.00092         0.189755      0.014246    -13.830746
      3.86255     -0.00024      2.36741        -0.189755     -0.014246     13.830746
 -----------------------------------------------------------------------------------
    total drift:                                0.000000      0.000000      0.000000


 BORN EFFECTIVE CHARGE FOR ION    1 DIRECTION 3 :  -0.000  -0.000  -0.015
                   rigid augmentation           :  -0.000  -0.000   0.229
                   ionic contribution           :  -0.000  -0.000   4.000
                   Berry contribution           :  -0.000  -0.000  -4.245


--------------------------------------------------------------------------------------------------------


  LATTYP: Found a face centered cubic cell.
 ALAT       =     5.4694110002
  
  Lattice vectors:
  
 A1 = (   1.9337280000,   3.3493170000,   0.0000000000)
 A2 = (   0.0000000000,   2.2328760000,  -3.1577660000)
 A3 = (  -1.9337290000,   3.3493170000,   0.0000000000)


Analysis of symmetry for initial positions (statically):
=====================================================================
 Subroutine PRICEL returns:
 Original cell was already a primitive cell.
 

 Routine SETGRP: Setting up the symmetry group for a 
 face centered cubic supercell.


 Subroutine GETGRP returns: Found  2 space group operations
 (whereof  1 operations were pure point group operations)
 out of a pool of 48 trial point group operations.


The static configuration has the point symmetry C_1 .
 The point group associated with its full space group is S_2 .


Analysis of symmetry for dynamics (positions and initial velocities):
=====================================================================
 Subroutine PRICEL returns:
 Original cell was already a primitive cell.
 

 Routine SETGRP: Setting up the symmetry group for a 
 face centered cubic supercell.


 Subroutine GETGRP returns: Found  2 space group operations
 (whereof  1 operations were pure point group operations)
 out of a pool of 48 trial point group operations.


The dynamic configuration has the point symmetry C_1 .
 The point group associated with its full space group is S_2 .


Analysis of structural, dynamic, and magnetic symmetry:
=====================================================================
 Subroutine PRICEL returns:
 Original cell was already a primitive cell.
 

 Routine SETGRP: Setting up the symmetry group for a 
 face centered cubic supercell.


 Subroutine GETGRP returns: Found  2 space group operations
 (whereof  1 operations were pure point group operations)
 out of a pool of 48 trial point group operations.


The magnetic configuration has the point symmetry C_1 .
 The point group associated with its full space group is S_2 .


 Subroutine INISYM returns: Found  2 space group operations
 (whereof  1 operations are pure point group operations),
 and found     1 'primitive' translations



--------------------------------------------------------------------------------------------------------




 MACROSCOPIC STATIC DIELECTRIC TENSOR (including local field effects in DFT)
 ------------------------------------------------------
          13.248844     0.057610     0.041149
           0.057608    13.239144     0.002497
           0.041149     0.002498    13.219138
 ------------------------------------------------------


 PIEZOELECTRIC TENSOR  for field in x, y, z        (e  Angst)
          XX          YY          ZZ          XY          YZ          ZX
  --------------------------------------------------------------------------------
  x     0.00043    -0.00013    -0.00030    -0.00033     0.00010     0.00105
  y     0.00034    -0.00102     0.00108     0.00044     0.00162    -0.00018
  z    -0.00055    -0.00264     0.00262    -0.00023    -0.00064     0.00050

 PIEZOELECTRIC TENSOR  for field in x, y, z        (C/m^2)
          XX          YY          ZZ          XY          YZ          ZX
  --------------------------------------------------------------------------------
  x     0.00000     0.00000     0.00000     0.00000     0.00000     0.00000
  y     0.00000     0.00000     0.00000     0.00000     0.00000     0.00000
  z     0.00000     0.00000     0.00000     0.00000     0.00000     0.00000
 
 BORN EFFECTIVE CHARGES (in e, cummulative output)
 -------------------------------------------------
 ion    1
    1    -0.01533    -0.00016    -0.00006
    2    -0.00050    -0.01517    -0.00007
    3    -0.00036    -0.00001    -0.01598
 ion    2
    1    -0.01547    -0.00021    -0.00016
    2    -0.00054    -0.01574    -0.00008
    3    -0.00038    -0.00005    -0.01488

 INTERNAL STRAIN TENSOR FOR ION    1 for displacements in x,y,z  (eV/Angst):
          X           Y           Z          XY          YZ          ZX
  --------------------------------------------------------------------------------
  x    -1.50474     0.01605    -1.26800    -7.70803    -0.05321    -5.09526
  y    -7.52258     6.49759    -0.39459    -0.37350    -5.45176    -0.58703
  z    -4.80887    -5.44146     9.46808    -0.15397    -0.08888    -1.66088

 INTERNAL STRAIN TENSOR FOR ION    2 for displacements in x,y,z  (eV/Angst):
          X           Y           Z          XY          YZ          ZX
  --------------------------------------------------------------------------------
  x     1.50474    -0.01605     1.26800     7.70803     0.05321     5.09526
  y     7.52258    -6.49759     0.39459     0.37350     5.45176     0.58703
  z     4.80887     5.44146    -9.46808     0.15397     0.08888     1.66088


--------------------------------------------------------------------------------------------------------


 
 SECOND DERIVATIVES (NOT SYMMETRIZED)
 ------------------------------------
               1X          1Y          1Z          2X          2Y          2Z 
  1X   -13.700304    0.270048    0.189716   13.700304   -0.270048   -0.189716
  1Y     0.270060  -13.734605    0.014302   -0.270060   13.734605   -0.014302
  1Z     0.189755    0.014246  -13.830746   -0.189755   -0.014246   13.830746
  2X    13.700304   -0.270048   -0.189716  -13.700304    0.270048    0.189716
  2Y    -0.270060   13.734605   -0.014302    0.270060  -13.734605    0.014302
  2Z    -0.189755   -0.014246   13.830746    0.189755    0.014246  -13.830746
 
 
 Eigenvectors and eigenvalues of the dynamical matrix
 ----------------------------------------------------
 
 
   1 f  =   15.643748 THz    98.292567 2PiTHz  521.819247 cm-1    64.697364 meV
             X         Y         Z           dx          dy          dz
      0.004910  0.000245  0.000919    -0.473761    0.375635    0.366672  
      3.862547 -0.000243  2.367406     0.473761   -0.375635   -0.366672  
 
   2 f  =   15.503705 THz    97.412654 2PiTHz  517.147933 cm-1    64.118195 meV
             X         Y         Z           dx          dy          dz
      0.004910  0.000245  0.000919     0.091042   -0.427643    0.555727  
      3.862547 -0.000243  2.367406    -0.091042    0.427643   -0.555727  
 
   3 f  =   15.267903 THz    95.931062 2PiTHz  509.282400 cm-1    63.142993 meV
             X         Y         Z           dx          dy          dz
      0.004910  0.000245  0.000919    -0.516974   -0.419547   -0.238157  
      3.862547 -0.000243  2.367406     0.516974    0.419547    0.238157  
 
   4 f/i=    0.000000 THz     0.000000 2PiTHz    0.000003 cm-1     0.000000 meV
             X         Y         Z           dx          dy          dz
      0.004910  0.000245  0.000919     0.706795   -0.020423    0.004888  
      3.862547 -0.000243  2.367406     0.706795   -0.020423    0.004888  
 
   5 f/i=    0.000000 THz     0.000001 2PiTHz    0.000005 cm-1     0.000001 meV
             X         Y         Z           dx          dy          dz
      0.004910  0.000245  0.000919    -0.020756   -0.704422    0.057954  
      3.862547 -0.000243  2.367406    -0.020756   -0.704422    0.057954  
 
   6 f/i=    0.000000 THz     0.000002 2PiTHz    0.000012 cm-1     0.000002 meV
             X         Y         Z           dx          dy          dz
      0.004910  0.000245  0.000919    -0.003195    0.058072    0.704711  
      3.862547 -0.000243  2.367406    -0.003195    0.058072    0.704711  
 


--------------------------------------------------------------------------------------------------------




 MACROSCOPIC STATIC DIELECTRIC TENSOR IONIC CONTRIBUTION
 ------------------------------------------------------
           0.000000     0.000000    -0.000000
           0.000000     0.000000     0.000000
          -0.000000     0.000000     0.000000
 ------------------------------------------------------


 ELASTIC MODULI IONIC CONTR (kBar)
 Direction    XX          YY          ZZ          XY          YZ          ZX
 --------------------------------------------------------------------------------
 XX        -235.5431     65.6005    115.0516    -48.0656   -119.0446    -60.4812
 YY          65.6005   -204.0645    153.2598      6.0718     99.6001    -13.6802
 ZZ         115.0516    153.2598   -258.0567    -21.5752     -4.1299     27.0770
 XY         -48.0656      6.0718    -21.5752   -170.8468     -9.4185   -114.6000
 YZ        -119.0446     99.6001     -4.1299     -9.4185    -84.8632    -11.9449
 ZX         -60.4812    -13.6802     27.0770   -114.6000    -11.9449    -84.0742
 --------------------------------------------------------------------------------


 PIEZOELECTRIC TENSOR IONIC CONTR  for field in x, y, z        (C/m^2)
          XX          YY          ZZ          XY          YZ          ZX
  --------------------------------------------------------------------------------
  x    -0.00002    -0.00000     0.00001    -0.00002    -0.00000    -0.00001
  y    -0.00006     0.00005    -0.00000    -0.00001    -0.00004    -0.00001
  z     0.00007     0.00009    -0.00015     0.00000    -0.00000     0.00003


--------------------------------------------------------------------------------------------------------


     LOOP+:  cpu time 2747.8813: real time 2749.8673
    4ORBIT:  cpu time    0.0000: real time    0.0000
 


 total charge     
 
# of ion     s       p       d       tot
----------------------------------------
  1        0.751   0.928   0.000   1.679
  2        0.751   0.928   0.000   1.679
------------------------------------------------
tot        1.502   1.855   0.000   3.357
 


 magnetization (x)
 
# of ion     s       p       d       tot
----------------------------------------
  1       -0.000   0.000   0.000   0.000
  2       -0.000   0.000   0.000   0.000
------------------------------------------------
tot       -0.000   0.000   0.000   0.000
 
 BZINTS: Fermi energy:  5.679475;  8.000000 electrons
         Band energy:   4.897273;  BLOECHL correction:  0.000000

 total amount of memory used by VASP on root node    65479. kBytes
========================================================================

   base      :      30000. kBytes
   nonlr-proj:        896. kBytes
   fftplans  :        702. kBytes
   grid      :       3862. kBytes
   one-center:         12. kBytes
   wavefun   :      30007. kBytes
 
  
  
 General timing and accounting informations for this job:
 ========================================================
  
                  Total CPU time used (sec):     2757.780
                            User time (sec):     2755.909
                          System time (sec):        1.871
                         Elapsed time (sec):     2760.494
  
                   Maximum memory used (kb):      276652.
                   Average memory used (kb):           0.
  
                          Minor page faults:       256306
                          Major page faults:            0
                 Voluntary context switches:        20180
