
Running Job 1 of 1 mol.qin
qchem mol.qin_225121.0 /tmp/scratch/ 0
/clusterfs/mp/software/qchem/exe/qcprog.exe_s mol.qin_225121.0 /tmp/scratch/
                  Welcome to Q-Chem
     A Quantum Leap Into The Future Of Chemistry


 Q-Chem 5.2, Q-Chem, Inc., Pleasanton, CA (2019)

 Yihan Shao,  Zhengting Gan,  E. Epifanovsky,  A. T. B. Gilbert,  M. Wormit,  
 J. Kussmann,  A. W. Lange,  A. Behn,  Jia Deng,  Xintian Feng,  D. Ghosh,  
 M. Goldey,  P. R. Horn,  L. D. Jacobson,  I. Kaliman,  T. Kus,  A. Landau,  
 Jie Liu,  E. I. Proynov,  R. M. Richard,  R. P. Steele,  E. J. Sundstrom,  
 H. L. Woodcock III,  P. M. Zimmerman,  D. Zuev,  B. Alam,  B. Albrecht,  
 E. Alguire,  S. A. Baeppler,  D. Barton,  Z. Benda,  Y. A. Bernard,  
 E. J. Berquist,  K. B. Bravaya,  H. Burton,  K. Carter-Fenk,  D. Casanova,  
 Chun-Min Chang,  Yunqing Chen,  A. Chien,  K. D. Closser,  M. P. Coons,  
 S. Coriani,  S. Dasgupta,  A. L. Dempwolff,  M. Diedenhofen,  Hainam Do,  
 R. G. Edgar,  Po-Tung Fang,  S. Faraji,  S. Fatehi,  Qingguo Feng,  
 J. Fosso-Tande,  J. Gayvert,  Qinghui Ge,  A. Ghysels,  G. Gidofalvi,  
 J. Gomes,  J. Gonthier,  A. Gunina,  D. Hait,  M. W. D. Hanson-Heine,  
 P. H. P. Harbach,  A. W. Hauser,  M. F. Herbst,  J. E. Herr,  
 E. G. Hohenstein,  Z. C. Holden,  Kerwin Hui,  B. C. Huynh,  T.-C. Jagau,  
 Hyunjun Ji,  B. Kaduk,  K. Khistyaev,  Jaehoon Kim,  P. Klunzinger,  K. Koh,  
 D. Kosenkov,  L. Koulias,  T. Kowalczyk,  C. M. Krauter,  A. Kunitsa,  
 Ka Un Lao,  A. Laurent,  K. V. Lawler,  Joonho Lee,  D. Lefrancois,  
 S. Lehtola,  D. S. Levine,  Yi-Pei Li,  You-Sheng Lin,  Fenglai Liu,  
 Kuan-Yu Liu,  E. Livshits,  M. Loipersberger,  A. Luenser,  P. Manohar,  
 E. Mansoor,  S. F. Manzer,  Shan-Ping Mao,  Yuezhi Mao,  N. Mardirossian,  
 A. V. Marenich,  T. Markovich,  L. A. Martinez-Martinez,  S. A. Maurer,  
 N. J. Mayhall,  S. C. McKenzie,  J.-M. Mewes,  P. Morgante,  A. F. Morrison,  
 J. W. Mullinax,  K. Nanda,  T. S. Nguyen-Beck,  R. Olivares-Amaya,  
 J. A. Parkhill,  S. K. Paul,  Zheng Pei,  T. M. Perrine,  F. Plasser,  
 P. Pokhilko,  S. Prager,  A. Prociuk,  E. Ramos,  B. Rana,  D. R. Rehn,  
 F. Rob,  M. Scheurer,  M. Schneider,  N. Sergueev,  S. M. Sharada,  
 S. Sharma,  D. W. Small,  T. Stauch,  C. J. Stein,  T. Stein,  Yu-Chuan Su,  
 S. P. Veccham,  A. J. W. Thom,  A. Tkatchenko,  T. Tsuchimochi,  
 N. M. Tubman,  L. Vogt,  M. L. Vidal,  O. Vydrov,  M. A. Watson,  J. Wenzel,  
 M. de Wergifosse,  T. A. Wesolowski,  A. White,  J. Witte,  A. Yamada,  
 Jun Yang,  K. Yao,  S. Yeganeh,  S. R. Yost,  Zhi-Qiang You,  A. Zech,  
 Igor Ying Zhang,  Xing Zhang,  Yan Zhao,  Ying Zhu,  B. R. Brooks,  
 G. K. L. Chan,  C. J. Cramer,  M. S. Gordon,  W. J. Hehre,  A. Klamt,  
 M. W. Schmidt,  C. D. Sherrill,  D. G. Truhlar,  A. Aspuru-Guzik,  R. Baer,  
 A. T. Bell,  N. A. Besley,  Jeng-Da Chai,  A. E. DePrince, III,  
 R. A. DiStasio Jr.,  A. Dreuw,  B. D. Dunietz,  T. R. Furlani,  
 Chao-Ping Hsu,  Yousung Jung,  Jing Kong,  D. S. Lambrecht,  WanZhen Liang,  
 C. Ochsenfeld,  V. A. Rassolov,  L. V. Slipchenko,  J. E. Subotnik,  
 T. Van Voorhis,  J. M. Herbert,  A. I. Krylov,  P. M. W. Gill,  M. Head-Gordon

 Contributors to earlier versions of Q-Chem not listed above: 
 R. D. Adamson,  B. Austin,  J. Baker,  G. J. O. Beran,  K. Brandhorst,  
 S. T. Brown,  E. F. C. Byrd,  A. K. Chakraborty,  C.-L. Cheng,  
 Siu Hung Chien,  D. M. Chipman,  D. L. Crittenden,  H. Dachsel,  
 R. J. Doerksen,  A. D. Dutoi,  L. Fusti-Molnar,  W. A. Goddard III,  
 A. Golubeva-Zadorozhnaya,  S. R. Gwaltney,  G. Hawkins,  A. Heyden,  
 S. Hirata,  G. Kedziora,  F. J. Keil,  C. Kelley,  Jihan Kim,  R. A. King,  
 R. Z. Khaliullin,  P. P. Korambath,  W. Kurlancheek,  A. M. Lee,  M. S. Lee,  
 S. V. Levchenko,  Ching Yeh Lin,  D. Liotard,  R. C. Lochan,  I. Lotan,  
 P. E. Maslen,  N. Nair,  D. P. O'Neill,  D. Neuhauser,  E. Neuscamman,  
 C. M. Oana,  R. Olson,  B. Peters,  R. Peverati,  P. A. Pieniazek,  
 Y. M. Rhee,  J. Ritchie,  M. A. Rohrdanz,  E. Rosta,  N. J. Russ,  
 H. F. Schaefer III,  N. E. Schultz,  N. Shenvi,  A. C. Simmonett,  A. Sodt,  
 D. Stuck,  K. S. Thanthiriwatte,  V. Vanovschi,  Tao Wang,  A. Warshel,  
 C. F. Williams,  Q. Wu,  X. Xu,  W. Zhang

 Please cite Q-Chem as follows:
 Y. Shao et al., Mol. Phys. 113, 184-215 (2015)
 DOI: 10.1080/00268976.2014.952696

 Q-Chem 5.2.2 for Intel X86 EM64T Linux

 Parts of Q-Chem use Armadillo 8.300.2 (Tropical Shenanigans).
 http://arma.sourceforge.net/

 Q-Chem begins on Sun Jan 10 03:50:16 2021  

Host: 
0

     Scratch files written to /tmp/scratch//
 Nov2519 |scratch|qcdevops|jenkins|workspace|build_RNUM 6829   
Processing $rem in /clusterfs/mp/software/qchem/config/preferences:
	 MEM_TOTAL  96000 
NAlpha2: 82
NElect   82
Mult     1
Symmetry turned off for PCM/SM12/SMD calculation

Checking the input file for inconsistencies... 	...done.

--------------------------------------------------------------
User input:
--------------------------------------------------------------
$molecule
0 1
O     -1.5306266110      1.9993631841      0.4187485708
C     -0.8774678940      0.9938802645      0.0027880683
O     -1.0400410837     -0.1602199285      0.6048647246
O     -0.0513824115      0.9711657671     -0.9636366330
C      0.3220102079     -1.0152038276     -0.7061389062
O      2.3997151594     -1.9247454509     -0.1423639661
C      3.6799942514     -1.8754058375      0.2818631600
C      1.7503899691     -0.6727084191     -0.3978752848
O      4.2442175681     -0.7611864753      0.4527697096
O      4.2477698242     -2.9790248282      0.4879851250
Li     -2.2677036450      0.8281756840      1.6950800470
Li      5.7340575264     -1.8672048566      0.9663717182
H      0.0109151789     -1.0539512902     -1.7499862774
H     -0.0471237014     -1.8559793269     -0.1184887140
H      2.2341254465     -0.1534975305     -1.2355955992
H      1.7995902147     -0.0320171284      0.4943242572
$end

$rem
job_type = freq
basis = def2-svpd
max_scf_cycles = 200
gen_scfman = true
xc_grid = 3
scf_algorithm = diis
resp_charges = true
symmetry = false
sym_ignore = true
method = wb97xv
solvent_method = smd
ideriv = 1
thresh = 14
$end

$smx
solvent other
$end
--------------------------------------------------------------
 ----------------------------------------------------------------
             Standard Nuclear Orientation (Angstroms)
    I     Atom           X                Y                Z
 ----------------------------------------------------------------
    1      O      -1.5306266110     1.9993631841     0.4187485708
    2      C      -0.8774678940     0.9938802645     0.0027880683
    3      O      -1.0400410837    -0.1602199285     0.6048647246
    4      O      -0.0513824115     0.9711657671    -0.9636366330
    5      C       0.3220102079    -1.0152038276    -0.7061389062
    6      O       2.3997151594    -1.9247454509    -0.1423639661
    7      C       3.6799942514    -1.8754058375     0.2818631600
    8      C       1.7503899691    -0.6727084191    -0.3978752848
    9      O       4.2442175681    -0.7611864753     0.4527697096
   10      O       4.2477698242    -2.9790248282     0.4879851250
   11      Li     -2.2677036450     0.8281756840     1.6950800470
   12      Li      5.7340575264    -1.8672048566     0.9663717182
   13      H       0.0109151789    -1.0539512902    -1.7499862774
   14      H      -0.0471237014    -1.8559793269    -0.1184887140
   15      H       2.2341254465    -0.1534975305    -1.2355955992
   16      H       1.7995902147    -0.0320171284     0.4943242572
 ----------------------------------------------------------------
 Nuclear Repulsion Energy =         580.60876865 hartrees
 There are       41 alpha and       41 beta electrons
 Requested basis set is def2-SVPD
 There are 114 shells and 274 basis functions

 Total QAlloc Memory Limit  96000 MB
 Mega-Array Size       188 MB
 MEM_STATIC part       192 MB
 
 Citation of the SMD model:
 Marenich, A.V.; Cramer, C.J.; Truhlar, D.G.
 J. Phys. Chem. B 2009, 113, 6378-6396.
 iSolventCode=           0
 Solvent: other                                                           
 
 vradii
            1           2           3           4           5           6
    1   2.2940000   1.8500000   2.2940000   2.2940000   1.8500000   2.2940000
            7           8           9          10          11          12
    1   1.8500000   1.8500000   2.2940000   2.2940000   2.1476001   2.1476001
           13          14          15          16
    1   1.2000000   1.2000000   1.2000000   1.2000000
 Changing PCM_VDW_RADII to SMD_RADIUS
 Discretize the solute cavity surface with Lebedev spheres
	Using 110 Lebedev grid points for each H atom
	Using 194 Lebedev grid points for other atoms
	Atomic van der Waals radii will be scaled by 1.20
 Remove points where switching function is < 1.0e-08
 Keep 1099 surface tesserae and discard 1669 interior tesserae
 Molecular Surface Area = 244.856 Angst**2
 A cutoff of  1.0D-14 yielded   6139 shell pairs
 There are     35779 function pairs (     41182 Cartesian)
 Smallest overlap matrix eigenvalue = 3.58E-05
 Guess from superposition of atomic densities
 Warning:  Energy on first SCF cycle will be non-variational
 SAD guess density has 82.000000 electrons

 -----------------------------------------------------------------------
  General SCF calculation program by
  Eric Jon Sundstrom, Paul Horn, Yuezhi Mao, Dmitri Zuev, Alec White,
  David Stuck, Shaama M.S., Shane Yost, Joonho Lee, David Small,
  Daniel Levine, Susi Lehtola, Hugh Burton, Evgeny Epifanovsky,
  Bang C. Huynh
 -----------------------------------------------------------------------
 Exchange:     0.1670 Hartree-Fock + 1.0000 wB97X-V + LR-HF
 Correlation:  1.0000 wB97X-V
 Using SG-3 standard quadrature grid
 Nonlocal Correlation:  VV10 with C = 0.0100 and b = 6.00 and scale = 1.00000
 Grid used for NLC:  SG-1 standard quadrature
 
 Citation of the SMD model:
 Marenich, A.V.; Cramer, C.J.; Truhlar, D.G.
 J. Phys. Chem. B 2009, 113, 6378-6396.
 iSolventCode=           0
 Solvent: other                                                           
 
 vradii
            1           2           3           4           5           6
    1   2.2940000   1.8500000   2.2940000   2.2940000   1.8500000   2.2940000
            7           8           9          10          11          12
    1   1.8500000   1.8500000   2.2940000   2.2940000   2.1476001   2.1476001
           13          14          15          16
    1   1.2000000   1.2000000   1.2000000   1.2000000
 using 40 threads for integral computing
 -------------------------------------------------------
 OpenMP Integral computing Module                
 Release: version 1.0, May 2013, Q-Chem Inc. Pittsburgh 
 -------------------------------------------------------
 using 40 threads for integral computing
 -------------------------------------------------------
 OpenMP Integral computing Module                
 Release: version 1.0, May 2013, Q-Chem Inc. Pittsburgh 
 -------------------------------------------------------
 -------------------------------------------------------
 OpenMP BLAS3 based DFT computing Module                
 Release: version 1.0, May 2013, Q-Chem Inc. Pittsburgh 
 -------------------------------------------------------
 -------------------------------------------------------
 OpenMP BLAS3 based DFT computing Module                
 Release: version 1.0, May 2013, Q-Chem Inc. Pittsburgh 
 -------------------------------------------------------
 -------------------------------------------------------
 OpenMP BLAS3 based DFT computing Module                
 Release: version 1.0, May 2013, Q-Chem Inc. Pittsburgh 
 -------------------------------------------------------
 A restricted SCF calculation will be
 performed using DIIS
 SCF converges when DIIS error is below 1.0e-08
 ---------------------------------------
  Cycle       Energy         DIIS error
 ---------------------------------------
    1    -622.3783513222      3.68e-02  
    2    -620.3474896595      7.25e-03  
    3    -620.3329795671      7.89e-03  
    4    -620.7383087400      4.18e-04  
    5    -620.7391522645      3.19e-04  
    6    -620.7398583829      6.49e-05  
    7    -620.7398906176      3.46e-05  
    8    -620.7399001440      9.39e-06  
    9    -620.7399011681      3.20e-06  
   10    -620.7399013440      1.23e-06  
   11    -620.7399013738      5.52e-07  
   12    -620.7399013813      2.23e-07  
   13    -620.7399013828      1.12e-07  
   14    -620.7399013832      5.32e-08  
   15    -620.7399013833      1.92e-08  
   16    -620.7399013833      5.41e-09  Convergence criterion met
 ---------------------------------------
 SCF time:   CPU 1360.56s  wall 45.00s 
(3)  G-ENP(liq) elect-nuc-pol free energy of system     -620.739901383 a.u.
(4)  G-CDS(liq) cavity-dispersion-solvent structure 
     free energy                                               -3.7260 kcal/mol
(6)  G-S(liq) free energy of system                     -620.745839190 a.u.
 SCF   energy in the final basis set =     -620.7399013833
 Total energy in the final basis set =     -620.7458391902
 
 --------------------------------------------------------------
 
                    Orbital Energies (a.u.)
 --------------------------------------------------------------
 
 Alpha MOs
 -- Occupied --
-19.2648 -19.2037 -19.1998 -19.1990 -19.1947 -19.1837 -10.4387 -10.4156
-10.3808 -10.3459  -2.1066  -2.1003  -1.2385  -1.2077  -1.1400  -1.0874
 -1.0852  -1.0652  -0.9023  -0.7580  -0.6904  -0.6273  -0.6174  -0.5989
 -0.5922  -0.5861  -0.5676  -0.5589  -0.5386  -0.5204  -0.4930  -0.4737
 -0.4500  -0.4273  -0.4111  -0.4016  -0.3905  -0.3856  -0.3812  -0.3787
 -0.3406
 -- Virtual --
  0.0233   0.0267   0.0324   0.0564   0.0610   0.0635   0.0648   0.0675
  0.0825   0.1128   0.1152   0.1229   0.1358   0.1476   0.1544   0.1610
  0.1641   0.1706   0.1726   0.1824   0.1884   0.1984   0.2006   0.2031
  0.2053   0.2070   0.2101   0.2127   0.2179   0.2215   0.2440   0.2442
  0.2503   0.2596   0.2705   0.2754   0.2845   0.2933   0.2953   0.3090
  0.3159   0.3289   0.3340   0.3451   0.3492   0.3659   0.3681   0.3791
  0.3835   0.3955   0.3974   0.4012   0.4068   0.4117   0.4332   0.4465
  0.4496   0.4579   0.4658   0.4756   0.4872   0.4908   0.4911   0.4957
  0.5058   0.5150   0.5279   0.5382   0.5441   0.5477   0.5544   0.5705
  0.5776   0.5830   0.5936   0.5994   0.6028   0.6065   0.6093   0.6177
  0.6220   0.6265   0.6296   0.6331   0.6393   0.6496   0.6534   0.6641
  0.6661   0.6786   0.6824   0.6906   0.7023   0.7084   0.7149   0.7234
  0.7297   0.7360   0.7489   0.7579   0.7654   0.7686   0.7755   0.7847
  0.7896   0.7951   0.8027   0.8162   0.8275   0.8314   0.8417   0.8516
  0.8608   0.8712   0.8934   0.8956   0.9035   0.9289   0.9438   0.9505
  0.9637   0.9798   0.9874   0.9981   1.0153   1.0355   1.0436   1.0642
  1.0790   1.1096   1.1257   1.1411   1.1655   1.1754   1.2016   1.2144
  1.2165   1.2453   1.2636   1.2682   1.3101   1.3346   1.3746   1.3857
  1.4147   1.5080   1.5187   1.5688   1.5929   1.6187   1.6317   1.6435
  1.6564   1.6772   1.6974   1.6991   1.7246   1.7286   1.7480   1.7528
  1.7795   1.8038   1.8241   1.8284   1.9065   1.9173   1.9456   1.9638
  1.9968   2.0145   2.0271   2.0297   2.0516   2.0661   2.0764   2.0941
  2.1005   2.1226   2.1389   2.1737   2.2071   2.2115   2.2281   2.2403
  2.2496   2.2805   2.2947   2.3320   2.3689   2.3795   2.3927   2.4337
  2.4652   2.4833   2.5894   2.6077   2.6850   2.7446   2.7987   2.9133
  2.9589   2.9657   2.9819   2.9894   3.0095   3.0233   3.0295   3.0392
  3.0482   3.0637   3.0647   3.0703   3.0934   3.1459   3.1821   3.2127
  3.2443   3.2901   3.2995   3.3279   3.3660   3.3734   3.3995   3.4235
  3.4415   3.5104   3.6738   3.8167   3.8325   3.8726   3.9008   3.9594
  3.9751
 --------------------------------------------------------------
 
          Ground-State Mulliken Net Atomic Charges

     Atom                 Charge (a.u.)
  ----------------------------------------
      1 O                    -1.004231
      2 C                     1.429144
      3 O                    -1.142779
      4 O                    -0.835455
      5 C                     0.500310
      6 O                    -0.698170
      7 C                     1.197317
      8 C                     0.559308
      9 O                    -0.974438
     10 O                    -0.978327
     11 Li                    1.034859
     12 Li                    1.052454
     13 H                    -0.124866
     14 H                    -0.117054
     15 H                     0.044556
     16 H                     0.057373
  ----------------------------------------
  Sum of atomic charges =     0.000000

  Building new vdw surfaces
         Merz-Kollman RESP Net Atomic Charges

     Atom                 Charge (a.u.)
  ----------------------------------------
      1 O                    -0.777157
      2 C                     0.896388
      3 O                    -0.777157
      4 O                    -0.731035
      5 C                     0.722377
      6 O                    -0.731035
      7 C                     0.896388
      8 C                     0.722377
      9 O                    -0.777157
     10 O                    -0.777157
     11 Li                    0.842961
     12 Li                    0.842961
     13 H                    -0.088189
     14 H                    -0.088189
     15 H                    -0.088189
     16 H                    -0.088189
  ----------------------------------------
  Sum of atomic charges =     0.000000

  Related Dipole Moment =     6.3199 (X  1.2496 Y -2.1031 Z  5.8272)

 -----------------------------------------------------------------
                    Cartesian Multipole Moments
 -----------------------------------------------------------------
    Charge (ESU x 10^10)
                -0.0000
    Dipole Moment (Debye)
         X       2.1633      Y      -2.8649      Z       5.8990
       Tot       6.9055
    Quadrupole Moments (Debye-Ang)
        XX       2.2814     XY      -4.6527     YY     -83.5101
        XZ       0.2366     YZ       4.0397     ZZ     -47.4796
    Octopole Moments (Debye-Ang^2)
       XXX     133.8119    XXY     -50.2106    XYY     -97.9405
       YYY     126.4899    XXZ     114.7794    XYZ     -32.1029
       YYZ       0.7192    XZZ     -85.5415    YZZ      30.9608
       ZZZ      16.1702
    Hexadecapole Moments (Debye-Ang^3)
      XXXX     499.8033   XXXY    -155.2586   XXYY    -591.2736
      XYYY     839.9574   YYYY   -1223.8133   XXXZ     438.9782
      XXYZ    -129.5851   XYYZ       8.9680   YYYZ      28.2877
      XXZZ    -263.0650   XYZZ     146.0776   YYZZ    -180.2419
      XZZZ     -78.6715   YZZZ      40.3925   ZZZZ    -142.7182
 -----------------------------------------------------------------
 Calculating analytic gradient of the SCF energy
 Gradient of CDS energy
            1           2           3           4           5           6
    1  -0.0005398  -0.0000535   0.0001767   0.0006920  -0.0005862  -0.0008655
    2  -0.0001714   0.0010249  -0.0001678  -0.0008714  -0.0008174   0.0003753
    3   0.0006938  -0.0008199   0.0002265  -0.0000913  -0.0005637  -0.0001775
            7           8           9          10          11          12
    1   0.0000303   0.0004898   0.0001039   0.0004624  -0.0000169   0.0000241
    2  -0.0003146   0.0000868   0.0000571   0.0000079   0.0000150  -0.0000020
    3   0.0000233   0.0000678   0.0000467   0.0001549   0.0000183   0.0000080
           13          14          15          16
    1   0.0000372   0.0001048  -0.0000970   0.0000377
    2   0.0004867   0.0002054   0.0001300  -0.0000445
    3   0.0001170   0.0003098   0.0001076  -0.0001213
 Gradient of SCF Energy
            1           2           3           4           5           6
    1   0.0074806  -0.0024822   0.0031390  -0.0037184  -0.0002166   0.0012203
    2   0.0008714  -0.0060288   0.0051080   0.0072648  -0.0010749  -0.0035349
    3  -0.0093611   0.0069882  -0.0057406   0.0004265   0.0003644   0.0002286
            7           8           9          10          11          12
    1   0.0034415   0.0020710  -0.0053379  -0.0072443  -0.0052100   0.0082106
    2   0.0040973   0.0013840  -0.0004156  -0.0009425  -0.0026591   0.0003872
    3   0.0013243  -0.0001092  -0.0021211  -0.0027143   0.0071473   0.0030039
           13          14          15          16
    1  -0.0005433   0.0002718  -0.0011499   0.0000679
    2  -0.0003341  -0.0004817  -0.0015458  -0.0020954
    3  -0.0001671   0.0003656   0.0030505  -0.0026859
 Max gradient component =       9.361E-03
 RMS gradient           =       3.831E-03
 Computing fast CPCM-SWIG gradient
 Updating gradient with PCM contributions...
 -- total gradient after adding PCM contribution --
---------------------------------------------------
  Atom         X              Y              Z     
---------------------------------------------------
   1      -0.000000      -0.000003      -0.000001
   2       0.000014       0.000024      -0.000022
   3       0.000008      -0.000010      -0.000014
   4      -0.000012       0.000014       0.000003
   5      -0.000015      -0.000027       0.000019
   6      -0.000002       0.000001       0.000008
   7       0.000001       0.000002      -0.000003
   8      -0.000002      -0.000003       0.000006
   9      -0.000001       0.000001       0.000003
  10      -0.000001      -0.000000       0.000005
  11      -0.000001       0.000005      -0.000005
  12       0.000002       0.000002       0.000006
  13      -0.000002       0.000001       0.000000
  14       0.000011      -0.000012      -0.000006
  15      -0.000001       0.000003       0.000002
  16      -0.000000       0.000001      -0.000001
---------------------------------------------------
 Number of fixed atoms: 0
 Gradient time:  CPU 198.86 s  wall 9.95 s
 ######################################################
 ######################################################
 # Starting finite difference calculation for IDERIV  #
 Finite diff step size:  1.88973e-03 a.u.
 ----------------------------------------------------------------
             Standard Nuclear Orientation (Angstroms)
    I     Atom           X                Y                Z
 ----------------------------------------------------------------
    1      O      -1.5296266110     1.9993631841     0.4187485708
    2      C      -0.8774678940     0.9938802645     0.0027880683
    3      O      -1.0400410837    -0.1602199285     0.6048647246
    4      O      -0.0513824115     0.9711657671    -0.9636366330
    5      C       0.3220102079    -1.0152038276    -0.7061389062
    6      O       2.3997151594    -1.9247454509    -0.1423639661
    7      C       3.6799942514    -1.8754058375     0.2818631600
    8      C       1.7503899691    -0.6727084191    -0.3978752848
    9      O       4.2442175681    -0.7611864753     0.4527697096
   10      O       4.2477698242    -2.9790248282     0.4879851250
   11      Li     -2.2677036450     0.8281756840     1.6950800470
   12      Li      5.7340575264    -1.8672048566     0.9663717182
   13      H       0.0109151789    -1.0539512902    -1.7499862774
   14      H      -0.0471237014    -1.8559793269    -0.1184887140
   15      H       2.2341254465    -0.1534975305    -1.2355955992
   16      H       1.7995902147    -0.0320171284     0.4943242572
 ----------------------------------------------------------------
 Nuclear Repulsion Energy =         580.62641397 hartrees
 There are       41 alpha and       41 beta electrons
 Discretize the solute cavity surface with Lebedev spheres
	Using 110 Lebedev grid points for each H atom
	Using 194 Lebedev grid points for other atoms
	Atomic van der Waals radii will be scaled by 1.20
 Remove points where switching function is < 1.0e-08
 Keep 1099 surface tesserae and discard 1669 interior tesserae
 Molecular Surface Area = 244.854 Angst**2
 Requested basis set is def2-SVPD
 There are 114 shells and 274 basis functions
 A cutoff of  1.0D-14 yielded   6139 shell pairs
 There are     35779 function pairs (     41182 Cartesian)
 Smallest overlap matrix eigenvalue = 3.58E-05
 Guess MOs from SCF MO coefficient file

 -----------------------------------------------------------------------
  General SCF calculation program by
  Eric Jon Sundstrom, Paul Horn, Yuezhi Mao, Dmitri Zuev, Alec White,
  David Stuck, Shaama M.S., Shane Yost, Joonho Lee, David Small,
  Daniel Levine, Susi Lehtola, Hugh Burton, Evgeny Epifanovsky,
  Bang C. Huynh
 -----------------------------------------------------------------------
 Exchange:     0.1670 Hartree-Fock + 1.0000 wB97X-V + LR-HF
 Correlation:  1.0000 wB97X-V
 Using SG-3 standard quadrature grid
 Nonlocal Correlation:  VV10 with C = 0.0100 and b = 6.00 and scale = 1.00000
 Grid used for NLC:  SG-1 standard quadrature
 
 Citation of the SMD model:
 Marenich, A.V.; Cramer, C.J.; Truhlar, D.G.
 J. Phys. Chem. B 2009, 113, 6378-6396.
 iSolventCode=           0
 Solvent: other                                                           
 
 vradii
            1           2           3           4           5           6
    1   2.2940000   1.8500000   2.2940000   2.2940000   1.8500000   2.2940000
            7           8           9          10          11          12
    1   1.8500000   1.8500000   2.2940000   2.2940000   2.1476001   2.1476001
           13          14          15          16
    1   1.2000000   1.2000000   1.2000000   1.2000000
 using 40 threads for integral computing
 -------------------------------------------------------
 OpenMP Integral computing Module                
 Release: version 1.0, May 2013, Q-Chem Inc. Pittsburgh 
 -------------------------------------------------------
 using 40 threads for integral computing
 -------------------------------------------------------
 OpenMP Integral computing Module                
 Release: version 1.0, May 2013, Q-Chem Inc. Pittsburgh 
 -------------------------------------------------------
 -------------------------------------------------------
 OpenMP BLAS3 based DFT computing Module                
 Release: version 1.0, May 2013, Q-Chem Inc. Pittsburgh 
 -------------------------------------------------------
 -------------------------------------------------------
 OpenMP BLAS3 based DFT computing Module                
 Release: version 1.0, May 2013, Q-Chem Inc. Pittsburgh 
 -------------------------------------------------------
 -------------------------------------------------------
 OpenMP BLAS3 based DFT computing Module                
 Release: version 1.0, May 2013, Q-Chem Inc. Pittsburgh 
 -------------------------------------------------------
 A restricted SCF calculation will be
 performed using Roothaan-Hall, DIIS
 SCF converges when DIIS error is below 1.0e-08
 ---------------------------------------
  Cycle       Energy         DIIS error
 ---------------------------------------
    1    -620.0074057825      3.49e-04  Roothaan Step
 ---------------------------------------
  Cycle       Energy         DIIS error
 ---------------------------------------
    1    -620.7373611282      4.25e-04  
    2    -620.7384146786      4.59e-04  
    3    -620.7397984119      9.82e-05  
    4    -620.7398851596      2.96e-05  
    5    -620.7398969706      1.47e-05  
    6    -620.7398994889      4.41e-06  
    7    -620.7398998997      2.19e-06  
    8    -620.7398999802      9.71e-07  
    9    -620.7398999974      4.47e-07  
   10    -620.7399000029      1.43e-07  
   11    -620.7399000038      6.29e-08  
   12    -620.7399000039      2.54e-08  
   13    -620.7399000039      1.06e-08  
   14    -620.7399000040      2.75e-09  Convergence criterion met
 ---------------------------------------
 SCF time:   CPU 1299.42s  wall 43.00s 
(3)  G-ENP(liq) elect-nuc-pol free energy of system     -620.739900004 a.u.
(4)  G-CDS(liq) cavity-dispersion-solvent structure 
     free energy                                               -3.7267 kcal/mol
(6)  G-S(liq) free energy of system                     -620.745838828 a.u.
 SCF   energy in the final basis set =     -620.7399000040
 Total energy in the final basis set =     -620.7458388285
 
 --------------------------------------------------------------
 
                    Orbital Energies (a.u.)
 --------------------------------------------------------------
 
 Alpha MOs
 -- Occupied --
-19.2648 -19.2037 -19.1997 -19.1990 -19.1947 -19.1837 -10.4387 -10.4155
-10.3808 -10.3458  -2.1066  -2.1004  -1.2385  -1.2078  -1.1400  -1.0874
 -1.0852  -1.0652  -0.9022  -0.7580  -0.6904  -0.6273  -0.6173  -0.5989
 -0.5922  -0.5861  -0.5676  -0.5589  -0.5386  -0.5204  -0.4930  -0.4737
 -0.4500  -0.4273  -0.4111  -0.4016  -0.3904  -0.3856  -0.3812  -0.3787
 -0.3405
 -- Virtual --
  0.0233   0.0267   0.0324   0.0564   0.0610   0.0635   0.0648   0.0675
  0.0825   0.1128   0.1152   0.1229   0.1358   0.1476   0.1544   0.1610
  0.1641   0.1706   0.1726   0.1824   0.1884   0.1984   0.2006   0.2031
  0.2053   0.2070   0.2101   0.2127   0.2179   0.2215   0.2440   0.2442
  0.2503   0.2596   0.2705   0.2754   0.2845   0.2933   0.2953   0.3090
  0.3159   0.3289   0.3340   0.3451   0.3492   0.3659   0.3681   0.3791
  0.3835   0.3955   0.3974   0.4012   0.4068   0.4117   0.4332   0.4465
  0.4496   0.4579   0.4659   0.4756   0.4872   0.4908   0.4911   0.4957
  0.5058   0.5151   0.5279   0.5383   0.5441   0.5478   0.5544   0.5705
  0.5776   0.5830   0.5936   0.5994   0.6029   0.6065   0.6093   0.6177
  0.6220   0.6265   0.6296   0.6331   0.6393   0.6497   0.6534   0.6641
  0.6660   0.6787   0.6824   0.6906   0.7023   0.7084   0.7149   0.7234
  0.7297   0.7360   0.7489   0.7579   0.7655   0.7686   0.7755   0.7847
  0.7897   0.7951   0.8027   0.8162   0.8276   0.8314   0.8417   0.8516
  0.8608   0.8713   0.8934   0.8957   0.9036   0.9289   0.9438   0.9506
  0.9637   0.9798   0.9874   0.9981   1.0153   1.0355   1.0436   1.0642
  1.0790   1.1096   1.1258   1.1411   1.1655   1.1754   1.2016   1.2144
  1.2165   1.2453   1.2636   1.2681   1.3101   1.3347   1.3746   1.3858
  1.4147   1.5080   1.5187   1.5688   1.5929   1.6187   1.6317   1.6435
  1.6565   1.6773   1.6975   1.6991   1.7245   1.7286   1.7480   1.7528
  1.7795   1.8038   1.8241   1.8284   1.9065   1.9173   1.9456   1.9638
  1.9968   2.0146   2.0270   2.0297   2.0516   2.0662   2.0764   2.0941
  2.1005   2.1226   2.1389   2.1737   2.2071   2.2116   2.2281   2.2404
  2.2496   2.2805   2.2947   2.3321   2.3689   2.3795   2.3927   2.4337
  2.4652   2.4834   2.5894   2.6077   2.6851   2.7446   2.7987   2.9133
  2.9589   2.9657   2.9819   2.9893   3.0095   3.0233   3.0295   3.0392
  3.0482   3.0637   3.0647   3.0704   3.0935   3.1459   3.1821   3.2127
  3.2443   3.2904   3.2996   3.3280   3.3660   3.3734   3.3998   3.4235
  3.4419   3.5109   3.6738   3.8170   3.8325   3.8726   3.9012   3.9594
  3.9753
 --------------------------------------------------------------
 
          Ground-State Mulliken Net Atomic Charges

     Atom                 Charge (a.u.)
  ----------------------------------------
      1 O                    -1.003541
      2 C                     1.429082
      3 O                    -1.143124
      4 O                    -0.835652
      5 C                     0.500301
      6 O                    -0.698167
      7 C                     1.197310
      8 C                     0.559314
      9 O                    -0.974439
     10 O                    -0.978331
     11 Li                    1.034900
     12 Li                    1.052453
     13 H                    -0.124921
     14 H                    -0.117074
     15 H                     0.044540
     16 H                     0.057349
  ----------------------------------------
  Sum of atomic charges =     0.000000

  Building new vdw surfaces
         Merz-Kollman RESP Net Atomic Charges

     Atom                 Charge (a.u.)
  ----------------------------------------
      1 O                    -0.777052
      2 C                     0.896376
      3 O                    -0.777052
      4 O                    -0.730913
      5 C                     0.721839
      6 O                    -0.730913
      7 C                     0.896376
      8 C                     0.721839
      9 O                    -0.777052
     10 O                    -0.777052
     11 Li                    0.842908
     12 Li                    0.842908
     13 H                    -0.088053
     14 H                    -0.088053
     15 H                    -0.088053
     16 H                    -0.088053
  ----------------------------------------
  Sum of atomic charges =     0.000000

  Related Dipole Moment =     6.3196 (X  1.2465 Y -2.1019 Z  5.8280)

 -----------------------------------------------------------------
                    Cartesian Multipole Moments
 -----------------------------------------------------------------
    Charge (ESU x 10^10)
                -0.0000
    Dipole Moment (Debye)
         X       2.1580      Y      -2.8618      Z       5.9004
       Tot       6.9037
    Quadrupole Moments (Debye-Ang)
        XX       2.2937     XY      -4.6630     YY     -83.5058
        XZ       0.2348     YZ       4.0411     ZZ     -47.4805
    Octopole Moments (Debye-Ang^2)
       XXX     133.7499    XXY     -50.1782    XYY     -97.9701
       YYY     126.5106    XXZ     114.7849    XYZ     -32.1068
       YYZ       0.7230    XZZ     -85.5514    YZZ      30.9647
       ZZZ      16.1756
    Hexadecapole Moments (Debye-Ang^3)
      XXXX     499.9706   XXXY    -155.3552   XXYY    -591.2074
      XYYY     839.8768   YYYY   -1223.7702   XXXZ     438.9551
      XXYZ    -129.5732   XYYZ       8.9582   YYYZ      28.2950
      XXZZ    -263.0419   XYZZ     146.0589   YYZZ    -180.2378
      XZZZ     -78.6822   YZZZ      40.3975   ZZZZ    -142.7256
 -----------------------------------------------------------------
 Calculating analytic gradient of the SCF energy
 Gradient of CDS energy
            1           2           3           4           5           6
    1  -0.0005372  -0.0000560   0.0001767   0.0006916  -0.0005862  -0.0008655
    2  -0.0001732   0.0010246  -0.0001678  -0.0008693  -0.0008174   0.0003753
    3   0.0006913  -0.0008177   0.0002265  -0.0000912  -0.0005637  -0.0001775
            7           8           9          10          11          12
    1   0.0000303   0.0004898   0.0001039   0.0004624  -0.0000165   0.0000241
    2  -0.0003146   0.0000868   0.0000571   0.0000079   0.0000151  -0.0000020
    3   0.0000233   0.0000678   0.0000467   0.0001549   0.0000185   0.0000080
           13          14          15          16
    1   0.0000372   0.0001048  -0.0000970   0.0000377
    2   0.0004867   0.0002054   0.0001300  -0.0000445
    3   0.0001170   0.0003098   0.0001076  -0.0001213
 Gradient of SCF Energy
            1           2           3           4           5           6
    1   0.0078611  -0.0028304   0.0031940  -0.0037796  -0.0002174   0.0012160
    2   0.0004621  -0.0057373   0.0051528   0.0073644  -0.0011070  -0.0035360
    3  -0.0095802   0.0071026  -0.0057541   0.0005121   0.0003840   0.0002281
            7           8           9          10          11          12
    1   0.0034468   0.0020768  -0.0053420  -0.0072492  -0.0052344   0.0082115
    2   0.0041004   0.0013897  -0.0004192  -0.0009380  -0.0026663   0.0003870
    3   0.0013256  -0.0001110  -0.0021223  -0.0027162   0.0071608   0.0030043
           13          14          15          16
    1  -0.0005475   0.0002771  -0.0011518   0.0000691
    2  -0.0003258  -0.0004791  -0.0015485  -0.0020991
    3  -0.0001600   0.0003605   0.0030603  -0.0026946
 Max gradient component =       9.580E-03
 RMS gradient           =       3.868E-03
 Computing fast CPCM-SWIG gradient
 Updating gradient with PCM contributions...
 -- total gradient after adding PCM contribution --
---------------------------------------------------
  Atom         X              Y              Z     
---------------------------------------------------
   1       0.000383      -0.000403      -0.000224
   2      -0.000336       0.000305       0.000084
   3       0.000060       0.000037      -0.000025
   4      -0.000077       0.000117       0.000097
   5      -0.000013      -0.000052       0.000039
   6      -0.000007       0.000003       0.000006
   7       0.000006       0.000002      -0.000001
   8       0.000002      -0.000003       0.000009
   9      -0.000002       0.000001       0.000003
  10      -0.000003       0.000001       0.000004
  11      -0.000020      -0.000006       0.000010
  12       0.000002       0.000002       0.000006
  13      -0.000007       0.000008       0.000001
  14       0.000013      -0.000015      -0.000008
  15      -0.000001       0.000003       0.000002
  16       0.000000       0.000001      -0.000001
---------------------------------------------------
 Number of fixed atoms: 0
 Gradient time:  CPU 198.37 s  wall 9.97 s
 ----------------------------------------------------------------
             Standard Nuclear Orientation (Angstroms)
    I     Atom           X                Y                Z
 ----------------------------------------------------------------
    1      O      -1.5316266110     1.9993631841     0.4187485708
    2      C      -0.8774678940     0.9938802645     0.0027880683
    3      O      -1.0400410837    -0.1602199285     0.6048647246
    4      O      -0.0513824115     0.9711657671    -0.9636366330
    5      C       0.3220102079    -1.0152038276    -0.7061389062
    6      O       2.3997151594    -1.9247454509    -0.1423639661
    7      C       3.6799942514    -1.8754058375     0.2818631600
    8      C       1.7503899691    -0.6727084191    -0.3978752848
    9      O       4.2442175681    -0.7611864753     0.4527697096
   10      O       4.2477698242    -2.9790248282     0.4879851250
   11      Li     -2.2677036450     0.8281756840     1.6950800470
   12      Li      5.7340575264    -1.8672048566     0.9663717182
   13      H       0.0109151789    -1.0539512902    -1.7499862774
   14      H      -0.0471237014    -1.8559793269    -0.1184887140
   15      H       2.2341254465    -0.1534975305    -1.2355955992
   16      H       1.7995902147    -0.0320171284     0.4943242572
 ----------------------------------------------------------------
 Nuclear Repulsion Energy =         580.59111851 hartrees
 There are       41 alpha and       41 beta electrons
 Discretize the solute cavity surface with Lebedev spheres
	Using 110 Lebedev grid points for each H atom
	Using 194 Lebedev grid points for other atoms
	Atomic van der Waals radii will be scaled by 1.20
 Remove points where switching function is < 1.0e-08
 Keep 1099 surface tesserae and discard 1669 interior tesserae
 Molecular Surface Area = 244.857 Angst**2
 Requested basis set is def2-SVPD
 There are 114 shells and 274 basis functions
 A cutoff of  1.0D-14 yielded   6139 shell pairs
 There are     35779 function pairs (     41182 Cartesian)
 Smallest overlap matrix eigenvalue = 3.58E-05
 Guess MOs from SCF MO coefficient file

 -----------------------------------------------------------------------
  General SCF calculation program by
  Eric Jon Sundstrom, Paul Horn, Yuezhi Mao, Dmitri Zuev, Alec White,
  David Stuck, Shaama M.S., Shane Yost, Joonho Lee, David Small,
  Daniel Levine, Susi Lehtola, Hugh Burton, Evgeny Epifanovsky,
  Bang C. Huynh
 -----------------------------------------------------------------------
 Exchange:     0.1670 Hartree-Fock + 1.0000 wB97X-V + LR-HF
 Correlation:  1.0000 wB97X-V
 Using SG-3 standard quadrature grid
 Nonlocal Correlation:  VV10 with C = 0.0100 and b = 6.00 and scale = 1.00000
 Grid used for NLC:  SG-1 standard quadrature
 
 Citation of the SMD model:
 Marenich, A.V.; Cramer, C.J.; Truhlar, D.G.
 J. Phys. Chem. B 2009, 113, 6378-6396.
 iSolventCode=           0
 Solvent: other                                                           
 
 vradii
            1           2           3           4           5           6
    1   2.2940000   1.8500000   2.2940000   2.2940000   1.8500000   2.2940000
            7           8           9          10          11          12
    1   1.8500000   1.8500000   2.2940000   2.2940000   2.1476001   2.1476001
           13          14          15          16
    1   1.2000000   1.2000000   1.2000000   1.2000000
 using 40 threads for integral computing
 -------------------------------------------------------
 OpenMP Integral computing Module                
 Release: version 1.0, May 2013, Q-Chem Inc. Pittsburgh 
 -------------------------------------------------------
 using 40 threads for integral computing
 -------------------------------------------------------
 OpenMP Integral computing Module                
 Release: version 1.0, May 2013, Q-Chem Inc. Pittsburgh 
 -------------------------------------------------------
 -------------------------------------------------------
 OpenMP BLAS3 based DFT computing Module                
 Release: version 1.0, May 2013, Q-Chem Inc. Pittsburgh 
 -------------------------------------------------------
 -------------------------------------------------------
 OpenMP BLAS3 based DFT computing Module                
 Release: version 1.0, May 2013, Q-Chem Inc. Pittsburgh 
 -------------------------------------------------------
 -------------------------------------------------------
 OpenMP BLAS3 based DFT computing Module                
 Release: version 1.0, May 2013, Q-Chem Inc. Pittsburgh 
 -------------------------------------------------------
 A restricted SCF calculation will be
 performed using Roothaan-Hall, DIIS
 SCF converges when DIIS error is below 1.0e-08
 ---------------------------------------
  Cycle       Energy         DIIS error
 ---------------------------------------
    1    -620.0066156518      3.49e-04  Roothaan Step
 ---------------------------------------
  Cycle       Energy         DIIS error
 ---------------------------------------
    1    -620.7373617131      4.25e-04  
    2    -620.7384226292      4.58e-04  
    3    -620.7397998370      9.85e-05  
    4    -620.7398870447      2.98e-05  
    5    -620.7398989809      1.48e-05  
    6    -620.7399015173      4.46e-06  
    7    -620.7399019359      2.21e-06  
    8    -620.7399020189      9.81e-07  
    9    -620.7399020367      4.53e-07  
   10    -620.7399020424      1.44e-07  
   11    -620.7399020434      6.33e-08  
   12    -620.7399020435      2.55e-08  
   13    -620.7399020435      1.07e-08  
   14    -620.7399020435      2.76e-09  Convergence criterion met
 ---------------------------------------
 SCF time:   CPU 1293.49s  wall 42.00s 
(3)  G-ENP(liq) elect-nuc-pol free energy of system     -620.739902043 a.u.
(4)  G-CDS(liq) cavity-dispersion-solvent structure 
     free energy                                               -3.7254 kcal/mol
(6)  G-S(liq) free energy of system                     -620.745838828 a.u.
 SCF   energy in the final basis set =     -620.7399020435
 Total energy in the final basis set =     -620.7458388278
 
 --------------------------------------------------------------
 
                    Orbital Energies (a.u.)
 --------------------------------------------------------------
 
 Alpha MOs
 -- Occupied --
-19.2648 -19.2038 -19.1999 -19.1990 -19.1947 -19.1837 -10.4387 -10.4157
-10.3808 -10.3459  -2.1066  -2.1003  -1.2385  -1.2077  -1.1400  -1.0874
 -1.0851  -1.0652  -0.9023  -0.7580  -0.6904  -0.6273  -0.6174  -0.5989
 -0.5922  -0.5861  -0.5676  -0.5588  -0.5386  -0.5204  -0.4930  -0.4737
 -0.4500  -0.4273  -0.4111  -0.4016  -0.3905  -0.3857  -0.3812  -0.3787
 -0.3406
 -- Virtual --
  0.0233   0.0267   0.0324   0.0564   0.0610   0.0635   0.0648   0.0675
  0.0825   0.1128   0.1152   0.1229   0.1358   0.1476   0.1544   0.1610
  0.1640   0.1706   0.1726   0.1824   0.1885   0.1984   0.2006   0.2031
  0.2053   0.2070   0.2101   0.2126   0.2179   0.2215   0.2440   0.2442
  0.2503   0.2596   0.2705   0.2754   0.2845   0.2933   0.2953   0.3090
  0.3159   0.3289   0.3340   0.3451   0.3492   0.3659   0.3681   0.3791
  0.3835   0.3955   0.3973   0.4012   0.4068   0.4117   0.4332   0.4464
  0.4496   0.4579   0.4658   0.4756   0.4871   0.4908   0.4911   0.4957
  0.5058   0.5150   0.5278   0.5382   0.5441   0.5476   0.5544   0.5705
  0.5776   0.5830   0.5935   0.5994   0.6027   0.6064   0.6093   0.6177
  0.6220   0.6265   0.6296   0.6331   0.6393   0.6496   0.6534   0.6641
  0.6661   0.6786   0.6824   0.6906   0.7023   0.7084   0.7149   0.7235
  0.7297   0.7360   0.7489   0.7578   0.7654   0.7686   0.7754   0.7847
  0.7896   0.7951   0.8027   0.8162   0.8275   0.8314   0.8417   0.8515
  0.8608   0.8712   0.8933   0.8956   0.9035   0.9289   0.9438   0.9505
  0.9636   0.9798   0.9873   0.9981   1.0152   1.0355   1.0436   1.0641
  1.0790   1.1096   1.1257   1.1411   1.1655   1.1754   1.2016   1.2143
  1.2165   1.2452   1.2637   1.2682   1.3101   1.3346   1.3746   1.3857
  1.4146   1.5079   1.5186   1.5688   1.5928   1.6187   1.6317   1.6436
  1.6563   1.6772   1.6974   1.6991   1.7246   1.7285   1.7480   1.7527
  1.7795   1.8038   1.8241   1.8284   1.9064   1.9172   1.9456   1.9638
  1.9967   2.0145   2.0271   2.0297   2.0515   2.0661   2.0764   2.0941
  2.1005   2.1226   2.1389   2.1737   2.2071   2.2115   2.2280   2.2401
  2.2495   2.2805   2.2946   2.3319   2.3689   2.3795   2.3927   2.4336
  2.4651   2.4832   2.5893   2.6076   2.6850   2.7446   2.7987   2.9133
  2.9589   2.9656   2.9820   2.9894   3.0095   3.0232   3.0295   3.0392
  3.0481   3.0636   3.0647   3.0703   3.0934   3.1459   3.1821   3.2127
  3.2442   3.2899   3.2995   3.3279   3.3660   3.3734   3.3992   3.4235
  3.4411   3.5100   3.6737   3.8164   3.8325   3.8726   3.9004   3.9594
  3.9748
 --------------------------------------------------------------
 
          Ground-State Mulliken Net Atomic Charges

     Atom                 Charge (a.u.)
  ----------------------------------------
      1 O                    -1.004920
      2 C                     1.429203
      3 O                    -1.142434
      4 O                    -0.835257
      5 C                     0.500319
      6 O                    -0.698173
      7 C                     1.197325
      8 C                     0.559301
      9 O                    -0.974437
     10 O                    -0.978323
     11 Li                    1.034817
     12 Li                    1.052455
     13 H                    -0.124811
     14 H                    -0.117033
     15 H                     0.044571
     16 H                     0.057396
  ----------------------------------------
  Sum of atomic charges =     0.000000

  Building new vdw surfaces
         Merz-Kollman RESP Net Atomic Charges

     Atom                 Charge (a.u.)
  ----------------------------------------
      1 O                    -0.777154
      2 C                     0.895911
      3 O                    -0.777154
      4 O                    -0.731046
      5 C                     0.723098
      6 O                    -0.731046
      7 C                     0.895911
      8 C                     0.723098
      9 O                    -0.777154
     10 O                    -0.777154
     11 Li                    0.843093
     12 Li                    0.843093
     13 H                    -0.088374
     14 H                    -0.088374
     15 H                    -0.088374
     16 H                    -0.088374
  ----------------------------------------
  Sum of atomic charges =     0.000000

  Related Dipole Moment =     6.3207 (X  1.2527 Y -2.1048 Z  5.8269)

 -----------------------------------------------------------------
                    Cartesian Multipole Moments
 -----------------------------------------------------------------
    Charge (ESU x 10^10)
                -0.0000
    Dipole Moment (Debye)
         X       2.1687      Y      -2.8680      Z       5.8977
       Tot       6.9073
    Quadrupole Moments (Debye-Ang)
        XX       2.2690     XY      -4.6424     YY     -83.5145
        XZ       0.2383     YZ       4.0382     ZZ     -47.4786
    Octopole Moments (Debye-Ang^2)
       XXX     133.8739    XXY     -50.2430    XYY     -97.9108
       YYY     126.4692    XXZ     114.7738    XYZ     -32.0990
       YYZ       0.7154    XZZ     -85.5317    YZZ      30.9569
       ZZZ      16.1648
    Hexadecapole Moments (Debye-Ang^3)
      XXXX     499.6354   XXXY    -155.1618   XXYY    -591.3400
      XYYY     840.0382   YYYY   -1223.8566   XXXZ     439.0013
      XXYZ    -129.5970   XYYZ       8.9778   YYYZ      28.2804
      XXZZ    -263.0881   XYZZ     146.0963   YYZZ    -180.2461
      XZZZ     -78.6607   YZZZ      40.3875   ZZZZ    -142.7109
 -----------------------------------------------------------------
 Calculating analytic gradient of the SCF energy
 Gradient of CDS energy
            1           2           3           4           5           6
    1  -0.0005424  -0.0000510   0.0001767   0.0006925  -0.0005862  -0.0008655
    2  -0.0001695   0.0010253  -0.0001678  -0.0008735  -0.0008174   0.0003753
    3   0.0006963  -0.0008221   0.0002265  -0.0000914  -0.0005637  -0.0001775
            7           8           9          10          11          12
    1   0.0000303   0.0004898   0.0001039   0.0004624  -0.0000173   0.0000241
    2  -0.0003146   0.0000868   0.0000571   0.0000079   0.0000148  -0.0000020
    3   0.0000233   0.0000678   0.0000467   0.0001549   0.0000181   0.0000080
           13          14          15          16
    1   0.0000372   0.0001048  -0.0000970   0.0000377
    2   0.0004867   0.0002054   0.0001300  -0.0000445
    3   0.0001170   0.0003098   0.0001076  -0.0001213
 Gradient of SCF Energy
            1           2           3           4           5           6
    1   0.0071003  -0.0021343   0.0030843  -0.0036573  -0.0002159   0.0012247
    2   0.0012792  -0.0063187   0.0050629   0.0071655  -0.0010428  -0.0035337
    3  -0.0091426   0.0068742  -0.0057272   0.0003412   0.0003449   0.0002291
            7           8           9          10          11          12
    1   0.0034362   0.0020652  -0.0053338  -0.0072395  -0.0051857   0.0082096
    2   0.0040942   0.0013783  -0.0004121  -0.0009470  -0.0026518   0.0003874
    3   0.0013230  -0.0001075  -0.0021199  -0.0027124   0.0071339   0.0030035
           13          14          15          16
    1  -0.0005392   0.0002664  -0.0011481   0.0000668
    2  -0.0003424  -0.0004843  -0.0015431  -0.0020916
    3  -0.0001742   0.0003707   0.0030406  -0.0026771
 Max gradient component =       9.143E-03
 RMS gradient           =       3.798E-03
 Computing fast CPCM-SWIG gradient
 Updating gradient with PCM contributions...
 -- total gradient after adding PCM contribution --
---------------------------------------------------
  Atom         X              Y              Z     
---------------------------------------------------
   1      -0.000383       0.000396       0.000220
   2       0.000364      -0.000254      -0.000127
   3      -0.000043      -0.000057      -0.000002
   4       0.000052      -0.000090      -0.000091
   5      -0.000017      -0.000001       0.000000
   6       0.000004      -0.000000       0.000009
   7      -0.000003       0.000002      -0.000004
   8      -0.000006      -0.000004       0.000003
   9       0.000001       0.000001       0.000004
  10       0.000001      -0.000001       0.000006
  11       0.000018       0.000016      -0.000020
  12       0.000001       0.000002       0.000006
  13       0.000004      -0.000005      -0.000000
  14       0.000009      -0.000010      -0.000005
  15      -0.000001       0.000003       0.000002
  16      -0.000001       0.000001      -0.000001
---------------------------------------------------
 Number of fixed atoms: 0
 Gradient time:  CPU 201.39 s  wall 10.04 s
 ----------------------------------------------------------------
             Standard Nuclear Orientation (Angstroms)
    I     Atom           X                Y                Z
 ----------------------------------------------------------------
    1      O      -1.5306266110     2.0003631841     0.4187485708
    2      C      -0.8774678940     0.9938802645     0.0027880683
    3      O      -1.0400410837    -0.1602199285     0.6048647246
    4      O      -0.0513824115     0.9711657671    -0.9636366330
    5      C       0.3220102079    -1.0152038276    -0.7061389062
    6      O       2.3997151594    -1.9247454509    -0.1423639661
    7      C       3.6799942514    -1.8754058375     0.2818631600
    8      C       1.7503899691    -0.6727084191    -0.3978752848
    9      O       4.2442175681    -0.7611864753     0.4527697096
   10      O       4.2477698242    -2.9790248282     0.4879851250
   11      Li     -2.2677036450     0.8281756840     1.6950800470
   12      Li      5.7340575264    -1.8672048566     0.9663717182
   13      H       0.0109151789    -1.0539512902    -1.7499862774
   14      H      -0.0471237014    -1.8559793269    -0.1184887140
   15      H       2.2341254465    -0.1534975305    -1.2355955992
   16      H       1.7995902147    -0.0320171284     0.4943242572
 ----------------------------------------------------------------
 Nuclear Repulsion Energy =         580.57946814 hartrees
 There are       41 alpha and       41 beta electrons
 Discretize the solute cavity surface with Lebedev spheres
	Using 110 Lebedev grid points for each H atom
	Using 194 Lebedev grid points for other atoms
	Atomic van der Waals radii will be scaled by 1.20
 Remove points where switching function is < 1.0e-08
 Keep 1099 surface tesserae and discard 1669 interior tesserae
 Molecular Surface Area = 244.867 Angst**2
 Requested basis set is def2-SVPD
 There are 114 shells and 274 basis functions
 A cutoff of  1.0D-14 yielded   6139 shell pairs
 There are     35779 function pairs (     41182 Cartesian)
 Smallest overlap matrix eigenvalue = 3.58E-05
 Guess MOs from SCF MO coefficient file

 -----------------------------------------------------------------------
  General SCF calculation program by
  Eric Jon Sundstrom, Paul Horn, Yuezhi Mao, Dmitri Zuev, Alec White,
  David Stuck, Shaama M.S., Shane Yost, Joonho Lee, David Small,
  Daniel Levine, Susi Lehtola, Hugh Burton, Evgeny Epifanovsky,
  Bang C. Huynh
 -----------------------------------------------------------------------
 Exchange:     0.1670 Hartree-Fock + 1.0000 wB97X-V + LR-HF
 Correlation:  1.0000 wB97X-V
 Using SG-3 standard quadrature grid
 Nonlocal Correlation:  VV10 with C = 0.0100 and b = 6.00 and scale = 1.00000
 Grid used for NLC:  SG-1 standard quadrature
 
 Citation of the SMD model:
 Marenich, A.V.; Cramer, C.J.; Truhlar, D.G.
 J. Phys. Chem. B 2009, 113, 6378-6396.
 iSolventCode=           0
 Solvent: other                                                           
 
 vradii
            1           2           3           4           5           6
    1   2.2940000   1.8500000   2.2940000   2.2940000   1.8500000   2.2940000
            7           8           9          10          11          12
    1   1.8500000   1.8500000   2.2940000   2.2940000   2.1476001   2.1476001
           13          14          15          16
    1   1.2000000   1.2000000   1.2000000   1.2000000
 using 40 threads for integral computing
 -------------------------------------------------------
 OpenMP Integral computing Module                
 Release: version 1.0, May 2013, Q-Chem Inc. Pittsburgh 
 -------------------------------------------------------
 using 40 threads for integral computing
 -------------------------------------------------------
 OpenMP Integral computing Module                
 Release: version 1.0, May 2013, Q-Chem Inc. Pittsburgh 
 -------------------------------------------------------
 -------------------------------------------------------
 OpenMP BLAS3 based DFT computing Module                
 Release: version 1.0, May 2013, Q-Chem Inc. Pittsburgh 
 -------------------------------------------------------
 -------------------------------------------------------
 OpenMP BLAS3 based DFT computing Module                
 Release: version 1.0, May 2013, Q-Chem Inc. Pittsburgh 
 -------------------------------------------------------
 -------------------------------------------------------
 OpenMP BLAS3 based DFT computing Module                
 Release: version 1.0, May 2013, Q-Chem Inc. Pittsburgh 
 -------------------------------------------------------
 A restricted SCF calculation will be
 performed using Roothaan-Hall, DIIS
 SCF converges when DIIS error is below 1.0e-08
 ---------------------------------------
  Cycle       Energy         DIIS error
 ---------------------------------------
    1    -620.0082117586      3.49e-04  Roothaan Step
 ---------------------------------------
  Cycle       Energy         DIIS error
 ---------------------------------------
    1    -620.7373573563      4.25e-04  
    2    -620.7384096354      4.60e-04  
    3    -620.7397986670      9.82e-05  
    4    -620.7398853705      2.97e-05  
    5    -620.7398972028      1.48e-05  
    6    -620.7398997268      4.43e-06  
    7    -620.7399001379      2.20e-06  
    8    -620.7399002187      9.71e-07  
    9    -620.7399002359      4.46e-07  
   10    -620.7399002414      1.42e-07  
   11    -620.7399002423      6.28e-08  
   12    -620.7399002424      2.54e-08  
   13    -620.7399002424      1.07e-08  
   14    -620.7399002424      2.76e-09  Convergence criterion met
 ---------------------------------------
 SCF time:   CPU 1293.34s  wall 43.00s 
(3)  G-ENP(liq) elect-nuc-pol free energy of system     -620.739900242 a.u.
(4)  G-CDS(liq) cavity-dispersion-solvent structure 
     free energy                                               -3.7262 kcal/mol
(6)  G-S(liq) free energy of system                     -620.745838367 a.u.
 SCF   energy in the final basis set =     -620.7399002424
 Total energy in the final basis set =     -620.7458383673
 
 --------------------------------------------------------------
 
                    Orbital Energies (a.u.)
 --------------------------------------------------------------
 
 Alpha MOs
 -- Occupied --
-19.2648 -19.2038 -19.1999 -19.1990 -19.1947 -19.1837 -10.4387 -10.4157
-10.3808 -10.3459  -2.1066  -2.1004  -1.2385  -1.2077  -1.1401  -1.0874
 -1.0850  -1.0652  -0.9023  -0.7581  -0.6904  -0.6273  -0.6174  -0.5989
 -0.5922  -0.5861  -0.5675  -0.5588  -0.5386  -0.5204  -0.4930  -0.4737
 -0.4500  -0.4273  -0.4111  -0.4016  -0.3905  -0.3857  -0.3811  -0.3787
 -0.3406
 -- Virtual --
  0.0233   0.0267   0.0324   0.0564   0.0610   0.0635   0.0648   0.0675
  0.0825   0.1128   0.1152   0.1229   0.1358   0.1476   0.1544   0.1610
  0.1640   0.1706   0.1726   0.1824   0.1884   0.1984   0.2006   0.2031
  0.2052   0.2069   0.2101   0.2126   0.2179   0.2215   0.2440   0.2442
  0.2503   0.2596   0.2705   0.2754   0.2845   0.2933   0.2953   0.3089
  0.3159   0.3289   0.3340   0.3451   0.3492   0.3659   0.3680   0.3790
  0.3835   0.3955   0.3974   0.4012   0.4068   0.4117   0.4332   0.4465
  0.4496   0.4578   0.4658   0.4756   0.4871   0.4907   0.4911   0.4957
  0.5058   0.5150   0.5278   0.5382   0.5441   0.5477   0.5543   0.5705
  0.5776   0.5830   0.5935   0.5994   0.6027   0.6065   0.6091   0.6176
  0.6220   0.6264   0.6296   0.6331   0.6393   0.6496   0.6534   0.6640
  0.6660   0.6786   0.6824   0.6906   0.7023   0.7084   0.7149   0.7234
  0.7297   0.7360   0.7489   0.7578   0.7654   0.7686   0.7754   0.7847
  0.7896   0.7951   0.8027   0.8161   0.8275   0.8314   0.8417   0.8515
  0.8608   0.8712   0.8934   0.8956   0.9035   0.9289   0.9438   0.9505
  0.9636   0.9797   0.9873   0.9980   1.0152   1.0355   1.0436   1.0640
  1.0790   1.1095   1.1257   1.1411   1.1655   1.1754   1.2016   1.2143
  1.2165   1.2452   1.2635   1.2682   1.3101   1.3346   1.3746   1.3857
  1.4146   1.5079   1.5186   1.5688   1.5928   1.6187   1.6317   1.6436
  1.6563   1.6772   1.6973   1.6991   1.7246   1.7286   1.7480   1.7528
  1.7795   1.8036   1.8241   1.8283   1.9064   1.9172   1.9456   1.9638
  1.9968   2.0145   2.0271   2.0297   2.0515   2.0661   2.0764   2.0941
  2.1005   2.1226   2.1389   2.1737   2.2070   2.2115   2.2280   2.2401
  2.2495   2.2805   2.2946   2.3319   2.3689   2.3793   2.3925   2.4336
  2.4651   2.4832   2.5893   2.6076   2.6850   2.7446   2.7987   2.9133
  2.9589   2.9656   2.9820   2.9894   3.0095   3.0232   3.0295   3.0392
  3.0481   3.0636   3.0646   3.0703   3.0934   3.1459   3.1821   3.2126
  3.2442   3.2900   3.2995   3.3279   3.3660   3.3734   3.3988   3.4235
  3.4410   3.5095   3.6737   3.8166   3.8325   3.8726   3.9002   3.9594
  3.9743
 --------------------------------------------------------------
 
          Ground-State Mulliken Net Atomic Charges

     Atom                 Charge (a.u.)
  ----------------------------------------
      1 O                    -1.004835
      2 C                     1.428945
      3 O                    -1.142565
      4 O                    -0.835041
      5 C                     0.500238
      6 O                    -0.698177
      7 C                     1.197311
      8 C                     0.559292
      9 O                    -0.974431
     10 O                    -0.978321
     11 Li                    1.034910
     12 Li                    1.052455
     13 H                    -0.124851
     14 H                    -0.116950
     15 H                     0.044591
     16 H                     0.057427
  ----------------------------------------
  Sum of atomic charges =     0.000000

  Building new vdw surfaces
         Merz-Kollman RESP Net Atomic Charges

     Atom                 Charge (a.u.)
  ----------------------------------------
      1 O                    -0.777152
      2 C                     0.896019
      3 O                    -0.777152
      4 O                    -0.731118
      5 C                     0.723208
      6 O                    -0.731118
      7 C                     0.896019
      8 C                     0.723208
      9 O                    -0.777152
     10 O                    -0.777152
     11 Li                    0.843017
     12 Li                    0.843017
     13 H                    -0.088410
     14 H                    -0.088410
     15 H                    -0.088410
     16 H                    -0.088410
  ----------------------------------------
  Sum of atomic charges =     0.000000

  Related Dipole Moment =     6.3207 (X  1.2488 Y -2.1086 Z  5.8263)

 -----------------------------------------------------------------
                    Cartesian Multipole Moments
 -----------------------------------------------------------------
    Charge (ESU x 10^10)
                 0.0000
    Dipole Moment (Debye)
         X       2.1665      Y      -2.8724      Z       5.8974
       Tot       6.9082
    Quadrupole Moments (Debye-Ang)
        XX       2.2776     XY      -4.6423     YY     -83.5278
        XZ       0.2372     YZ       4.0350     ZZ     -47.4798
    Octopole Moments (Debye-Ang^2)
       XXX     133.8421    XXY     -50.2431    XYY     -97.9066
       YYY     126.4066    XXZ     114.7773    XYZ     -32.0982
       YYZ       0.7069    XZZ     -85.5362    YZZ      30.9463
       ZZZ      16.1629
    Hexadecapole Moments (Debye-Ang^3)
      XXXX     499.7911   XXXY    -155.1918   XXYY    -591.3445
      XYYY     840.0660   YYYY   -1224.1093   XXXZ     438.9877
      XXYZ    -129.5996   XYYZ       8.9817   YYYZ      28.2502
      XXZZ    -263.0703   XYZZ     146.0990   YYZZ    -180.2808
      XZZZ     -78.6659   YZZZ      40.3708   ZZZZ    -142.7159
 -----------------------------------------------------------------
 Calculating analytic gradient of the SCF energy
 Gradient of CDS energy
            1           2           3           4           5           6
    1  -0.0005416  -0.0000513   0.0001767   0.0006916  -0.0005862  -0.0008655
    2  -0.0001652   0.0010174  -0.0001678  -0.0008698  -0.0008174   0.0003753
    3   0.0006937  -0.0008202   0.0002265  -0.0000913  -0.0005637  -0.0001775
            7           8           9          10          11          12
    1   0.0000303   0.0004898   0.0001039   0.0004624  -0.0000169   0.0000241
    2  -0.0003146   0.0000868   0.0000571   0.0000079   0.0000147  -0.0000020
    3   0.0000233   0.0000678   0.0000467   0.0001549   0.0000186   0.0000080
           13          14          15          16
    1   0.0000372   0.0001048  -0.0000970   0.0000377
    2   0.0004867   0.0002054   0.0001300  -0.0000445
    3   0.0001170   0.0003098   0.0001076  -0.0001213
 Gradient of SCF Energy
            1           2           3           4           5           6
    1   0.0070786  -0.0021920   0.0032213  -0.0036607  -0.0002377   0.0012275
    2   0.0017606  -0.0066706   0.0049101   0.0072724  -0.0010572  -0.0035332
    3  -0.0091705   0.0068028  -0.0057456   0.0003764   0.0003902   0.0002284
            7           8           9          10          11          12
    1   0.0034332   0.0020645  -0.0053324  -0.0072378  -0.0052204   0.0082093
    2   0.0040931   0.0013782  -0.0004102  -0.0009477  -0.0027142   0.0003870
    3   0.0013219  -0.0001029  -0.0021194  -0.0027119   0.0071738   0.0030034
           13          14          15          16
    1  -0.0005448   0.0002724  -0.0011480   0.0000670
    2  -0.0003356  -0.0004961  -0.0015433  -0.0020932
    3  -0.0001751   0.0003666   0.0030400  -0.0026779
 Max gradient component =       9.170E-03
 RMS gradient           =       3.820E-03
 Computing fast CPCM-SWIG gradient
 Updating gradient with PCM contributions...
 -- total gradient after adding PCM contribution --
---------------------------------------------------
  Atom         X              Y              Z     
---------------------------------------------------
   1      -0.000398       0.000873       0.000186
   2       0.000301      -0.000613      -0.000198
   3       0.000091      -0.000215      -0.000019
   4       0.000046       0.000026      -0.000053
   5      -0.000040      -0.000020       0.000047
   6       0.000006      -0.000001       0.000009
   7      -0.000005       0.000002      -0.000005
   8      -0.000006      -0.000002       0.000006
   9       0.000001       0.000002       0.000004
  10       0.000001      -0.000002       0.000006
  11      -0.000012      -0.000040       0.000021
  12       0.000001       0.000002       0.000006
  13      -0.000002       0.000002       0.000001
  14       0.000018      -0.000018      -0.000011
  15      -0.000000       0.000003       0.000002
  16      -0.000001       0.000000      -0.000002
---------------------------------------------------
 Number of fixed atoms: 0
 Gradient time:  CPU 198.30 s  wall 10.01 s
 ----------------------------------------------------------------
             Standard Nuclear Orientation (Angstroms)
    I     Atom           X                Y                Z
 ----------------------------------------------------------------
    1      O      -1.5306266110     1.9983631841     0.4187485708
    2      C      -0.8774678940     0.9938802645     0.0027880683
    3      O      -1.0400410837    -0.1602199285     0.6048647246
    4      O      -0.0513824115     0.9711657671    -0.9636366330
    5      C       0.3220102079    -1.0152038276    -0.7061389062
    6      O       2.3997151594    -1.9247454509    -0.1423639661
    7      C       3.6799942514    -1.8754058375     0.2818631600
    8      C       1.7503899691    -0.6727084191    -0.3978752848
    9      O       4.2442175681    -0.7611864753     0.4527697096
   10      O       4.2477698242    -2.9790248282     0.4879851250
   11      Li     -2.2677036450     0.8281756840     1.6950800470
   12      Li      5.7340575264    -1.8672048566     0.9663717182
   13      H       0.0109151789    -1.0539512902    -1.7499862774
   14      H      -0.0471237014    -1.8559793269    -0.1184887140
   15      H       2.2341254465    -0.1534975305    -1.2355955992
   16      H       1.7995902147    -0.0320171284     0.4943242572
 ----------------------------------------------------------------
 Nuclear Repulsion Energy =         580.63808568 hartrees
 There are       41 alpha and       41 beta electrons
 Discretize the solute cavity surface with Lebedev spheres
	Using 110 Lebedev grid points for each H atom
	Using 194 Lebedev grid points for other atoms
	Atomic van der Waals radii will be scaled by 1.20
 Remove points where switching function is < 1.0e-08
 Keep 1099 surface tesserae and discard 1669 interior tesserae
 Molecular Surface Area = 244.844 Angst**2
 Requested basis set is def2-SVPD
 There are 114 shells and 274 basis functions
 A cutoff of  1.0D-14 yielded   6139 shell pairs
 There are     35779 function pairs (     41182 Cartesian)
 Smallest overlap matrix eigenvalue = 3.58E-05
 Guess MOs from SCF MO coefficient file

 -----------------------------------------------------------------------
  General SCF calculation program by
  Eric Jon Sundstrom, Paul Horn, Yuezhi Mao, Dmitri Zuev, Alec White,
  David Stuck, Shaama M.S., Shane Yost, Joonho Lee, David Small,
  Daniel Levine, Susi Lehtola, Hugh Burton, Evgeny Epifanovsky,
  Bang C. Huynh
 -----------------------------------------------------------------------
 Exchange:     0.1670 Hartree-Fock + 1.0000 wB97X-V + LR-HF
 Correlation:  1.0000 wB97X-V
 Using SG-3 standard quadrature grid
 Nonlocal Correlation:  VV10 with C = 0.0100 and b = 6.00 and scale = 1.00000
 Grid used for NLC:  SG-1 standard quadrature
 
 Citation of the SMD model:
 Marenich, A.V.; Cramer, C.J.; Truhlar, D.G.
 J. Phys. Chem. B 2009, 113, 6378-6396.
 iSolventCode=           0
 Solvent: other                                                           
 
 vradii
            1           2           3           4           5           6
    1   2.2940000   1.8500000   2.2940000   2.2940000   1.8500000   2.2940000
            7           8           9          10          11          12
    1   1.8500000   1.8500000   2.2940000   2.2940000   2.1476001   2.1476001
           13          14          15          16
    1   1.2000000   1.2000000   1.2000000   1.2000000
 using 40 threads for integral computing
 -------------------------------------------------------
 OpenMP Integral computing Module                
 Release: version 1.0, May 2013, Q-Chem Inc. Pittsburgh 
 -------------------------------------------------------
 using 40 threads for integral computing
 -------------------------------------------------------
 OpenMP Integral computing Module                
 Release: version 1.0, May 2013, Q-Chem Inc. Pittsburgh 
 -------------------------------------------------------
 -------------------------------------------------------
 OpenMP BLAS3 based DFT computing Module                
 Release: version 1.0, May 2013, Q-Chem Inc. Pittsburgh 
 -------------------------------------------------------
 -------------------------------------------------------
 OpenMP BLAS3 based DFT computing Module                
 Release: version 1.0, May 2013, Q-Chem Inc. Pittsburgh 
 -------------------------------------------------------
 -------------------------------------------------------
 OpenMP BLAS3 based DFT computing Module                
 Release: version 1.0, May 2013, Q-Chem Inc. Pittsburgh 
 -------------------------------------------------------
 A restricted SCF calculation will be
 performed using Roothaan-Hall, DIIS
 SCF converges when DIIS error is below 1.0e-08
 ---------------------------------------
  Cycle       Energy         DIIS error
 ---------------------------------------
    1    -620.0082915184      3.49e-04  Roothaan Step
 ---------------------------------------
  Cycle       Energy         DIIS error
 ---------------------------------------
    1    -620.7373674496      4.24e-04  
    2    -620.7384268985      4.57e-04  
    3    -620.7397989457      9.84e-05  
    4    -620.7398860014      2.96e-05  
    5    -620.7398978358      1.47e-05  
    6    -620.7399003578      4.41e-06  
    7    -620.7399007713      2.19e-06  
    8    -620.7399008522      9.75e-07  
    9    -620.7399008697      4.50e-07  
   10    -620.7399008753      1.43e-07  
   11    -620.7399008762      6.31e-08  
   12    -620.7399008764      2.55e-08  
   13    -620.7399008764      1.06e-08  
   14    -620.7399008764      2.74e-09  Convergence criterion met
 ---------------------------------------
 SCF time:   CPU 1298.33s  wall 43.00s 
(3)  G-ENP(liq) elect-nuc-pol free energy of system     -620.739900876 a.u.
(4)  G-CDS(liq) cavity-dispersion-solvent structure 
     free energy                                               -3.7258 kcal/mol
(6)  G-S(liq) free energy of system                     -620.745838354 a.u.
 SCF   energy in the final basis set =     -620.7399008764
 Total energy in the final basis set =     -620.7458383535
 
 --------------------------------------------------------------
 
                    Orbital Energies (a.u.)
 --------------------------------------------------------------
 
 Alpha MOs
 -- Occupied --
-19.2648 -19.2036 -19.1997 -19.1990 -19.1947 -19.1837 -10.4387 -10.4155
-10.3808 -10.3458  -2.1066  -2.1003  -1.2385  -1.2078  -1.1400  -1.0874
 -1.0854  -1.0652  -0.9022  -0.7580  -0.6904  -0.6273  -0.6173  -0.5989
 -0.5922  -0.5862  -0.5676  -0.5589  -0.5386  -0.5204  -0.4930  -0.4737
 -0.4500  -0.4273  -0.4111  -0.4016  -0.3904  -0.3856  -0.3812  -0.3787
 -0.3405
 -- Virtual --
  0.0234   0.0267   0.0324   0.0564   0.0610   0.0635   0.0648   0.0675
  0.0825   0.1128   0.1152   0.1229   0.1358   0.1476   0.1544   0.1610
  0.1641   0.1706   0.1726   0.1824   0.1884   0.1984   0.2006   0.2031
  0.2054   0.2070   0.2101   0.2127   0.2179   0.2215   0.2440   0.2442
  0.2503   0.2596   0.2705   0.2754   0.2845   0.2933   0.2953   0.3090
  0.3159   0.3289   0.3340   0.3451   0.3492   0.3659   0.3681   0.3791
  0.3835   0.3955   0.3974   0.4012   0.4069   0.4117   0.4332   0.4465
  0.4496   0.4579   0.4659   0.4757   0.4872   0.4908   0.4911   0.4957
  0.5059   0.5151   0.5279   0.5383   0.5441   0.5477   0.5545   0.5705
  0.5776   0.5830   0.5936   0.5994   0.6029   0.6065   0.6095   0.6177
  0.6220   0.6265   0.6296   0.6332   0.6393   0.6496   0.6534   0.6641
  0.6661   0.6787   0.6824   0.6907   0.7023   0.7084   0.7149   0.7235
  0.7297   0.7360   0.7489   0.7579   0.7655   0.7686   0.7755   0.7847
  0.7897   0.7951   0.8027   0.8162   0.8276   0.8314   0.8417   0.8516
  0.8609   0.8713   0.8933   0.8957   0.9036   0.9289   0.9438   0.9506
  0.9637   0.9798   0.9874   0.9981   1.0153   1.0355   1.0436   1.0643
  1.0790   1.1097   1.1258   1.1411   1.1655   1.1754   1.2015   1.2144
  1.2165   1.2453   1.2638   1.2682   1.3101   1.3347   1.3746   1.3858
  1.4147   1.5080   1.5187   1.5688   1.5929   1.6187   1.6317   1.6435
  1.6566   1.6773   1.6975   1.6991   1.7245   1.7286   1.7480   1.7528
  1.7795   1.8040   1.8241   1.8284   1.9065   1.9173   1.9456   1.9638
  1.9967   2.0145   2.0271   2.0297   2.0516   2.0661   2.0764   2.0942
  2.1005   2.1226   2.1389   2.1738   2.2072   2.2116   2.2281   2.2405
  2.2496   2.2805   2.2947   2.3321   2.3689   2.3798   2.3929   2.4337
  2.4652   2.4834   2.5894   2.6077   2.6851   2.7446   2.7987   2.9133
  2.9589   2.9657   2.9819   2.9893   3.0095   3.0233   3.0295   3.0392
  3.0482   3.0638   3.0648   3.0704   3.0935   3.1459   3.1821   3.2127
  3.2444   3.2903   3.2996   3.3280   3.3660   3.3734   3.4002   3.4236
  3.4420   3.5113   3.6738   3.8169   3.8325   3.8726   3.9013   3.9594
  3.9758
 --------------------------------------------------------------
 
          Ground-State Mulliken Net Atomic Charges

     Atom                 Charge (a.u.)
  ----------------------------------------
      1 O                    -1.003625
      2 C                     1.429339
      3 O                    -1.142993
      4 O                    -0.835869
      5 C                     0.500382
      6 O                    -0.698163
      7 C                     1.197323
      8 C                     0.559324
      9 O                    -0.974446
     10 O                    -0.978333
     11 Li                    1.034808
     12 Li                    1.052452
     13 H                    -0.124881
     14 H                    -0.117157
     15 H                     0.044520
     16 H                     0.057318
  ----------------------------------------
  Sum of atomic charges =     0.000000

  Building new vdw surfaces
         Merz-Kollman RESP Net Atomic Charges

     Atom                 Charge (a.u.)
  ----------------------------------------
      1 O                    -0.777069
      2 C                     0.896248
      3 O                    -0.777069
      4 O                    -0.730874
      5 C                     0.721848
      6 O                    -0.730874
      7 C                     0.896248
      8 C                     0.721848
      9 O                    -0.777069
     10 O                    -0.777069
     11 Li                    0.843018
     12 Li                    0.843018
     13 H                    -0.088051
     14 H                    -0.088051
     15 H                    -0.088051
     16 H                    -0.088051
  ----------------------------------------
  Sum of atomic charges =     0.000000

  Related Dipole Moment =     6.3199 (X  1.2504 Y -2.0983 Z  5.8288)

 -----------------------------------------------------------------
                    Cartesian Multipole Moments
 -----------------------------------------------------------------
    Charge (ESU x 10^10)
                -0.0000
    Dipole Moment (Debye)
         X       2.1602      Y      -2.8574      Z       5.9007
       Tot       6.9028
    Quadrupole Moments (Debye-Ang)
        XX       2.2852     XY      -4.6631     YY     -83.4924
        XZ       0.2359     YZ       4.0443     ZZ     -47.4793
    Octopole Moments (Debye-Ang^2)
       XXX     133.7816    XXY     -50.1781    XYY     -97.9744
       YYY     126.5732    XXZ     114.7814    XYZ     -32.1076
       YYZ       0.7315    XZZ     -85.5469    YZZ      30.9752
       ZZZ      16.1774
    Hexadecapole Moments (Debye-Ang^3)
      XXXX     499.8151   XXXY    -155.3252   XXYY    -591.2028
      XYYY     839.8490   YYYY   -1223.5177   XXXZ     438.9687
      XXYZ    -129.5705   XYYZ       8.9542   YYYZ      28.3252
      XXZZ    -263.0597   XYZZ     146.0562   YYZZ    -180.2031
      XZZZ     -78.6770   YZZZ      40.4142   ZZZZ    -142.7206
 -----------------------------------------------------------------
 Calculating analytic gradient of the SCF energy
 Gradient of CDS energy
            1           2           3           4           5           6
    1  -0.0005380  -0.0000557   0.0001767   0.0006924  -0.0005862  -0.0008655
    2  -0.0001776   0.0010325  -0.0001678  -0.0008730  -0.0008174   0.0003753
    3   0.0006938  -0.0008197   0.0002265  -0.0000913  -0.0005637  -0.0001775
            7           8           9          10          11          12
    1   0.0000303   0.0004898   0.0001039   0.0004624  -0.0000169   0.0000241
    2  -0.0003146   0.0000868   0.0000571   0.0000079   0.0000152  -0.0000020
    3   0.0000233   0.0000678   0.0000467   0.0001549   0.0000180   0.0000080
           13          14          15          16
    1   0.0000372   0.0001048  -0.0000970   0.0000377
    2   0.0004867   0.0002054   0.0001300  -0.0000445
    3   0.0001170   0.0003098   0.0001076  -0.0001213
 Gradient of SCF Energy
            1           2           3           4           5           6
    1   0.0078853  -0.0027749   0.0030566  -0.0037762  -0.0001955   0.0012132
    2  -0.0000215  -0.0053836   0.0053063   0.0072572  -0.0010926  -0.0035365
    3  -0.0095531   0.0071751  -0.0057356   0.0004767   0.0003386   0.0002288
            7           8           9          10          11          12
    1   0.0034498   0.0020775  -0.0053434  -0.0072509  -0.0051995   0.0082118
[...]
 Frequency:       549.64                 625.49                 683.65
 Force Cnst:      1.2556                 1.8085                 1.6945
 Red. Mass:       7.0542                 7.8454                 6.1536
 IR Active:          YES                    YES                    YES
 IR Intens:      327.119                 27.957                 19.183
 Raman Active:       YES                    YES                    YES
               X      Y      Z        X      Y      Z        X      Y      Z
 O          0.004  0.006 -0.017    0.041  0.027 -0.075   -0.221 -0.165  0.302
 C          0.035  0.008 -0.020    0.019 -0.020  0.021    0.064  0.111 -0.072
 O         -0.030  0.048  0.033   -0.028 -0.024  0.059    0.018  0.241 -0.100
 O          0.049  0.053 -0.027    0.008  0.041  0.030    0.169 -0.164 -0.093
 C          0.180 -0.224 -0.039   -0.028 -0.126 -0.083   -0.019 -0.050 -0.023
 O         -0.124  0.037 -0.020   -0.034  0.214  0.005   -0.020  0.032  0.001
 C         -0.095 -0.010 -0.027   -0.001 -0.198  0.009   -0.009 -0.018  0.002
 C          0.036  0.079 -0.006   -0.126  0.338 -0.064   -0.053  0.027 -0.024
 O         -0.166  0.002 -0.057   -0.174 -0.159 -0.056   -0.001 -0.029 -0.001
 O         -0.123 -0.001 -0.044    0.393 -0.066  0.129    0.050  0.004  0.015
 Li        -0.135 -0.055  0.181   -0.027 -0.040  0.050    0.094  0.108 -0.144
 Li         0.719  0.001  0.242   -0.138 -0.091 -0.044   -0.015 -0.006 -0.005
 H          0.093 -0.267 -0.010   -0.173 -0.114 -0.044    0.008 -0.576 -0.022
 H          0.207 -0.079  0.174    0.148 -0.124  0.030   -0.058  0.270  0.398
 H          0.061  0.124  0.038   -0.166  0.381 -0.055   -0.008  0.095  0.050
 H         -0.100  0.041  0.028   -0.321  0.326 -0.050   -0.207 -0.036  0.029
 TransDip   0.505 -0.231  0.166   -0.152 -0.027 -0.069    0.014  0.068 -0.122

 Mode:                19                     20                     21
 Frequency:       734.74                 763.52                 812.55
 Force Cnst:      3.0004                 2.3312                 0.5255
 Red. Mass:       9.4332                 6.7872                 1.3509
 IR Active:          YES                    YES                    YES
 IR Intens:       25.508                 15.700                 20.879
 Raman Active:       YES                    YES                    YES
               X      Y      Z        X      Y      Z        X      Y      Z
 O         -0.139  0.348  0.030    0.017 -0.104  0.024   -0.013 -0.008  0.017
 C         -0.125  0.192  0.110    0.032 -0.029 -0.050    0.010  0.011 -0.014
 O          0.263 -0.098 -0.275   -0.078  0.063  0.065   -0.021  0.027  0.014
 O         -0.071 -0.342  0.212    0.032  0.023 -0.062    0.014 -0.023 -0.010
 C          0.011 -0.081 -0.040   -0.111  0.049  0.023    0.019 -0.051  0.032
 O          0.096  0.073  0.032    0.288  0.154  0.068   -0.037  0.011 -0.023
 C          0.040 -0.025  0.009    0.185 -0.053  0.046   -0.016 -0.001 -0.081
 C          0.035  0.006 -0.004    0.010 -0.047  0.051   -0.004  0.022  0.073
 O         -0.110  0.051 -0.035   -0.256  0.184 -0.083    0.014 -0.041  0.027
 O         -0.033 -0.090 -0.009   -0.095 -0.280 -0.022    0.013  0.047  0.026
 Li        -0.048  0.035  0.046    0.022 -0.003 -0.026    0.005  0.000 -0.006
 Li         0.041 -0.006  0.013    0.055 -0.010  0.018   -0.001 -0.001 -0.004
 H          0.239 -0.046 -0.118    0.056  0.376 -0.035    0.458  0.228 -0.107
 H          0.179 -0.408 -0.360   -0.426 -0.031 -0.288   -0.269 -0.195 -0.352
 H         -0.006 -0.018 -0.046   -0.242 -0.137 -0.156   -0.259 -0.261 -0.255
 H          0.017  0.075 -0.057    0.153  0.200 -0.135    0.416  0.271 -0.137
 TransDip  -0.084  0.115  0.077    0.126  0.015  0.007    0.058 -0.052 -0.124

 Mode:                22                     23                     24
 Frequency:       842.70                 855.40                 944.99
 Force Cnst:      3.5212                 5.0938                 0.7033
 Red. Mass:       8.4158                11.8154                 1.3367
 IR Active:          YES                    YES                    YES
 IR Intens:       34.504                 42.576                 30.309
 Raman Active:       YES                    YES                    YES
               X      Y      Z        X      Y      Z        X      Y      Z
 O         -0.003 -0.004  0.016   -0.163 -0.056 -0.160   -0.017 -0.009  0.018
 C         -0.011  0.003 -0.027    0.647  0.184  0.558    0.038  0.034 -0.027
 O         -0.012  0.020  0.015   -0.165 -0.065 -0.140   -0.054  0.031  0.035
 O          0.013 -0.021 -0.004   -0.175 -0.016 -0.142    0.007 -0.079 -0.023
 C          0.010 -0.029  0.028   -0.025  0.007 -0.001    0.020 -0.004  0.017
 O          0.031  0.009 -0.158    0.009 -0.014 -0.008   -0.006  0.013  0.014
 C         -0.249  0.010  0.678    0.002  0.002  0.032   -0.020 -0.001 -0.016
 C          0.010  0.009  0.021    0.006  0.007  0.019    0.064 -0.002 -0.037
 O          0.071 -0.026 -0.189    0.003  0.014 -0.008   -0.002 -0.026  0.002
 O          0.072  0.021 -0.185   -0.004 -0.010 -0.010   -0.001  0.028  0.001
 Li         0.002 -0.000 -0.004    0.026  0.007  0.024    0.005 -0.001 -0.004
 Li        -0.009 -0.000  0.030   -0.001  0.000  0.001    0.002 -0.000  0.000
 H          0.262  0.210 -0.054    0.100 -0.184 -0.035   -0.393  0.659  0.132
 H         -0.162 -0.152 -0.253   -0.026  0.058  0.066    0.220 -0.346 -0.314
 H         -0.185 -0.056 -0.137   -0.017 -0.043 -0.025    0.178  0.157  0.125
 H          0.268  0.077 -0.048    0.130  0.024 -0.001   -0.115 -0.115  0.063
 TransDip  -0.053 -0.007  0.180    0.147  0.045  0.141    0.157 -0.015 -0.080

 Mode:                25                     26                     27
 Frequency:      1014.71                1104.84                1126.17
 Force Cnst:      4.7041                 2.0776                 9.0032
 Red. Mass:       7.7544                 2.8888                12.0486
 IR Active:          YES                    YES                    YES
 IR Intens:       20.530                 57.785                 27.602
 Raman Active:       YES                    YES                    YES
               X      Y      Z        X      Y      Z        X      Y      Z
 O          0.015 -0.006 -0.016   -0.002  0.001  0.001    0.220 -0.331 -0.143
 C         -0.012 -0.024  0.031    0.003 -0.005  0.016   -0.021 -0.109  0.068
 O          0.031 -0.014 -0.041    0.001  0.003 -0.015    0.088  0.466 -0.273
 O         -0.029  0.043  0.005   -0.007  0.000 -0.013   -0.309 -0.017  0.364
 C         -0.016  0.033  0.030    0.216  0.075  0.117    0.008 -0.102  0.034
 O          0.167  0.348  0.043   -0.109  0.081 -0.026   -0.025 -0.028  0.015
 C         -0.185 -0.016 -0.065    0.055  0.000  0.016    0.004 -0.001 -0.000
 C          0.137 -0.364  0.026   -0.155 -0.171 -0.092    0.054  0.056 -0.064
 O         -0.108 -0.297 -0.031    0.013  0.046  0.004    0.009  0.015  0.004
 O          0.002  0.221 -0.002    0.043 -0.073  0.016   -0.001 -0.005 -0.001
 Li        -0.003  0.000  0.003   -0.000  0.001  0.000   -0.001 -0.010  0.006
 Li         0.021 -0.003  0.007   -0.012 -0.001 -0.004   -0.001 -0.000 -0.000
 H          0.014 -0.133  0.026    0.463  0.295  0.063    0.047  0.264  0.014
 H         -0.413  0.334  0.190    0.126  0.033 -0.025   -0.304 -0.040 -0.067
 H          0.115 -0.172  0.129   -0.407  0.097 -0.065    0.054  0.238  0.044
 H         -0.164 -0.272 -0.013   -0.554 -0.158 -0.077   -0.034 -0.122  0.068
 TransDip  -0.096 -0.105  0.029    0.221 -0.063  0.081    0.006 -0.158  0.059

 Mode:                28                     29                     30
 Frequency:      1159.67                1165.57                1211.66
 Force Cnst:      2.6834                 1.5134                 1.0594
 Red. Mass:       3.3866                 1.8907                 1.2247
 IR Active:          YES                    YES                    YES
 IR Intens:      153.469                134.721                 29.892
 Raman Active:       YES                    YES                    YES
               X      Y      Z        X      Y      Z        X      Y      Z
 O          0.010 -0.019 -0.005   -0.006  0.008  0.004    0.015 -0.030 -0.007
 C         -0.004 -0.002  0.012   -0.001  0.013 -0.004    0.002  0.030 -0.018
 O         -0.005  0.036 -0.009   -0.010 -0.025  0.020   -0.027  0.030  0.030
 O         -0.011 -0.005  0.008    0.014  0.013 -0.016   -0.010  0.013  0.020
 C          0.122  0.076 -0.030   -0.050 -0.010  0.101   -0.065  0.050 -0.011
 O          0.227 -0.131  0.050    0.077 -0.067  0.072   -0.009  0.040 -0.003
 C         -0.054  0.009 -0.016   -0.028  0.003 -0.012   -0.002  0.001 -0.001
 C         -0.214  0.070  0.043    0.003  0.086 -0.174   -0.010 -0.054 -0.004
 O         -0.043 -0.107 -0.014   -0.014 -0.034 -0.002   -0.001  0.005 -0.000
 O         -0.062  0.102 -0.022   -0.026  0.037 -0.010    0.009 -0.011  0.003
 Li         0.003 -0.000 -0.003    0.003  0.000 -0.003    0.005 -0.001 -0.005
 Li         0.014  0.002  0.005    0.008  0.001  0.003    0.000 -0.000  0.000
 H         -0.087  0.068  0.046    0.619 -0.061 -0.098    0.285 -0.417 -0.115
 H          0.588 -0.075  0.055   -0.301 -0.083 -0.172    0.636 -0.441 -0.213
 H         -0.380 -0.201 -0.199    0.030  0.482  0.087    0.140 -0.075  0.068
 H         -0.300  0.337 -0.155   -0.093 -0.364  0.148    0.162 -0.115  0.028
 TransDip  -0.309  0.240 -0.067   -0.275  0.240 -0.069   -0.080  0.155  0.004

 Mode:                31                     32                     33
 Frequency:      1271.26                1373.16                1443.21
 Force Cnst:      1.0307                 1.7700                 1.8278
 Red. Mass:       1.0825                 1.5932                 1.4894
 IR Active:          YES                    YES                    YES
 IR Intens:       13.727                181.191                342.182
 Raman Active:       YES                    YES                    YES
               X      Y      Z        X      Y      Z        X      Y      Z
 O          0.004 -0.007 -0.002    0.004 -0.009 -0.002   -0.011  0.025  0.004
 C          0.005  0.016 -0.008    0.006  0.022 -0.013   -0.011 -0.070  0.037
 O         -0.006 -0.006  0.007   -0.006 -0.004  0.010    0.007  0.024 -0.016
 O         -0.003  0.001  0.006   -0.004  0.003  0.008    0.017  0.006 -0.020
 C         -0.027 -0.006  0.051   -0.038  0.032 -0.005   -0.003 -0.012  0.008
 O          0.007 -0.012 -0.038   -0.042 -0.034 -0.007   -0.023 -0.007 -0.008
 C         -0.005 -0.001 -0.002    0.097 -0.003  0.032    0.123  0.005  0.040
 C          0.009  0.018  0.007    0.164 -0.020  0.040   -0.067 -0.057 -0.015
 O          0.004  0.006  0.001   -0.020 -0.033 -0.006   -0.030 -0.048 -0.009
 O          0.000 -0.002  0.001   -0.027  0.045 -0.010   -0.029  0.043 -0.010
 Li         0.000  0.000 -0.001   -0.001  0.001  0.001    0.002 -0.004 -0.001
 Li         0.001 -0.000  0.000   -0.010 -0.001 -0.003   -0.010  0.000 -0.003
 H          0.212 -0.002 -0.018   -0.072 -0.299 -0.002    0.034  0.061 -0.001
 H         -0.119 -0.042 -0.057   -0.017 -0.138 -0.208    0.043 -0.012  0.040
 H          0.564 -0.320  0.127   -0.558  0.324 -0.182    0.213  0.485  0.463
 H         -0.555  0.376 -0.208   -0.500  0.278 -0.127    0.370  0.427 -0.369
 TransDip  -0.080  0.080  0.037    0.414 -0.071  0.096    0.503 -0.200  0.240

 Mode:                34                     35                     36
 Frequency:      1457.01                1477.89                1507.47
 Force Cnst:      6.5578                 3.0176                 1.8002
 Red. Mass:       5.2430                 2.3449                 1.3445
 IR Active:          YES                    YES                    YES
 IR Intens:      436.479                513.912                 22.715
 Raman Active:       YES                    YES                    YES
               X      Y      Z        X      Y      Z        X      Y      Z
 O          0.050 -0.123 -0.015   -0.014  0.032  0.006   -0.005  0.012  0.002
 C          0.104  0.388 -0.261   -0.005 -0.087  0.036   -0.004 -0.033  0.015
 O         -0.026 -0.146  0.084    0.007  0.027 -0.016    0.003  0.009 -0.005
 O         -0.106 -0.053  0.145    0.018  0.004 -0.021    0.009 -0.000 -0.010
 C          0.019 -0.021 -0.066   -0.049 -0.023 -0.001   -0.111 -0.040 -0.035
 O         -0.024  0.003 -0.006   -0.053  0.015 -0.020    0.009 -0.008  0.005
 C          0.143  0.010  0.048    0.243  0.012  0.081   -0.066 -0.009 -0.022
 C         -0.056 -0.015 -0.008   -0.001  0.071 -0.007    0.073 -0.023  0.019
 O         -0.037 -0.057 -0.012   -0.062 -0.090 -0.019    0.018  0.027  0.006
 O         -0.032  0.047 -0.012   -0.055  0.079 -0.019    0.013 -0.017  0.005
 Li        -0.019  0.020  0.016    0.002 -0.005 -0.001    0.002 -0.002 -0.001
 Li        -0.011  0.001 -0.004   -0.018  0.000 -0.006    0.005 -0.001  0.002
 H          0.231  0.253 -0.133    0.177  0.251 -0.069    0.394  0.481 -0.192
 H         -0.010  0.435  0.486    0.174  0.012  0.188    0.409  0.129  0.522
 H          0.054  0.081  0.107    0.133 -0.534 -0.296   -0.175  0.150 -0.021
 H          0.250  0.024 -0.054   -0.101 -0.439  0.362   -0.116  0.133 -0.079
 TransDip   0.394  0.493 -0.223    0.607 -0.318  0.239   -0.143 -0.054 -0.007

 Mode:                37                     38                     39
 Frequency:      1634.52                1675.76                3107.37
 Force Cnst:     18.8600                21.2175                 6.0279
 Red. Mass:      11.9815                12.8239                 1.0596
 IR Active:          YES                    YES                    YES
 IR Intens:     1029.620                943.153                  9.975
 Raman Active:       YES                    YES                    YES
               X      Y      Z        X      Y      Z        X      Y      Z
 O         -0.174  0.268  0.111    0.000  0.000 -0.000    0.000 -0.000 -0.000
 C          0.538 -0.449 -0.474   -0.003 -0.002  0.004   -0.000  0.000  0.000
 O         -0.036  0.045  0.027    0.000  0.001 -0.000    0.000 -0.000 -0.000
 O         -0.186  0.005  0.218    0.002 -0.000 -0.002    0.000  0.000  0.000
 C          0.004  0.070 -0.008   -0.014 -0.009 -0.004    0.002  0.001 -0.001
 O          0.022 -0.005  0.006   -0.017 -0.063 -0.004    0.002 -0.001  0.000
 C         -0.041  0.002 -0.014   -0.033  0.873 -0.024   -0.002 -0.001 -0.001
 C         -0.011 -0.010 -0.006    0.045  0.008  0.013   -0.028 -0.061 -0.015
 O          0.008  0.009  0.003   -0.107 -0.295 -0.031    0.000  0.001  0.000
 O          0.009 -0.012  0.003    0.125 -0.323  0.047    0.000  0.000  0.000
 Li        -0.017 -0.031  0.031    0.000 -0.000 -0.000   -0.000  0.000  0.000
 Li         0.001  0.000  0.000    0.001  0.047 -0.000   -0.000 -0.000 -0.000
 H          0.077 -0.221 -0.032   -0.005  0.016 -0.009    0.002 -0.002 -0.005
 H         -0.054  0.102 -0.042   -0.001 -0.007  0.013   -0.006 -0.014  0.012
 H         -0.020  0.008 -0.001   -0.009  0.044 -0.013    0.265  0.275 -0.470
 H         -0.048  0.004 -0.011   -0.010  0.057 -0.001    0.035  0.452  0.650
 TransDip   0.610 -0.660 -0.498   -0.056  0.982 -0.028    0.052 -0.085  0.018

 Mode:                40                     41                     42
 Frequency:      3177.87                3190.40                3290.26
 Force Cnst:      6.6055                 6.3425                 7.1206
 Red. Mass:       1.1101                 1.0576                 1.1164
 IR Active:          YES                    YES                    YES
 IR Intens:        9.704                 15.590                  2.234
 Raman Active:       YES                    YES                    YES
               X      Y      Z        X      Y      Z        X      Y      Z
 O          0.000 -0.000 -0.000    0.000  0.000 -0.000   -0.000 -0.000  0.000
 C         -0.000  0.000 -0.000   -0.001 -0.000  0.001    0.001  0.001 -0.002
 O          0.000 -0.000  0.000    0.000  0.001 -0.000    0.000 -0.001  0.000
 O         -0.000 -0.000  0.000    0.001 -0.000  0.000   -0.000  0.001  0.001
 C         -0.003 -0.006  0.005   -0.041 -0.050 -0.015   -0.002  0.037 -0.092
 O         -0.000 -0.000  0.000   -0.000  0.000 -0.000   -0.000 -0.000  0.000
 C          0.000  0.000  0.000   -0.000  0.000 -0.000    0.000 -0.000  0.000
 C          0.028  0.002 -0.092    0.001 -0.001  0.006    0.003  0.002 -0.006
 O         -0.000 -0.000  0.000    0.000  0.000  0.000   -0.000 -0.000 -0.000
 O         -0.000  0.000 -0.000   -0.000  0.000 -0.000   -0.000  0.000 -0.000
 Li        -0.000  0.000  0.000    0.000  0.000 -0.000   -0.000  0.000  0.000
 Li         0.000  0.000  0.000    0.000 -0.000  0.000    0.000 -0.000  0.000
 H         -0.005 -0.002 -0.024    0.172 -0.002  0.596    0.226  0.011  0.749
 H          0.028  0.061 -0.048    0.279  0.580 -0.440   -0.221 -0.460  0.336
 H         -0.356 -0.369  0.601    0.023  0.024 -0.038   -0.030 -0.027  0.046
 H          0.037  0.350  0.484    0.001 -0.007 -0.011    0.005  0.021  0.029
 TransDip   0.058  0.004 -0.081   -0.010 -0.126  0.002   -0.004  0.034 -0.033

 STANDARD THERMODYNAMIC QUANTITIES AT   298.15 K  AND     1.00 ATM

   This Molecule has  1 Imaginary Frequencies
   Zero point vibrational energy:       59.133 kcal/mol

   Atom    1 Element O  Has Mass   15.99491
   Atom    2 Element C  Has Mass   12.00000
   Atom    3 Element O  Has Mass   15.99491
   Atom    4 Element O  Has Mass   15.99491
   Atom    5 Element C  Has Mass   12.00000
   Atom    6 Element O  Has Mass   15.99491
   Atom    7 Element C  Has Mass   12.00000
   Atom    8 Element C  Has Mass   12.00000
   Atom    9 Element O  Has Mass   15.99491
   Atom   10 Element O  Has Mass   15.99491
   Atom   11 Element Li Has Mass    7.01600
   Atom   12 Element Li Has Mass    7.01600
   Atom   13 Element H  Has Mass    1.00783
   Atom   14 Element H  Has Mass    1.00783
   Atom   15 Element H  Has Mass    1.00783
   Atom   16 Element H  Has Mass    1.00783
   Molecular Mass:   162.032780 amu
   Principal axes and moments of inertia in amu*Bohr^2:
                             1           2           3
    Eigenvalues --      577.46149  4416.08697  4506.16003
          X               0.87273     0.48656    -0.04002
          Y              -0.48763     0.87275    -0.02298
          Z               0.02374     0.03957     0.99893
   Rotational Symmetry Number is   1
   The Molecule is an Asymmetric Top
   Translational Enthalpy:        0.889 kcal/mol
   Rotational Enthalpy:           0.889 kcal/mol
   Vibrational Enthalpy:         64.725 kcal/mol
   gas constant (RT):             0.592 kcal/mol
   Translational Entropy:        41.156  cal/mol.K
   Rotational Entropy:           30.819  cal/mol.K
   Vibrational Entropy:          38.871  cal/mol.K

   Total Enthalpy:               67.095 kcal/mol
   Total Entropy:               110.847  cal/mol.K
Archival summary:
1\1\n0234.lr6\FREQ\ProcedureUnspecified\BasisUnspecified\64i24\ewcspott\SunJan1005:16:422021SunJan1005:16:422021\0\\#,FREQ,ProcedureUnspecified,BasisUnspecified,\\0,1\O\C,1,1.34964\O,2,1.25811,1,116.585\O,2,1.26057,1,119.968,3,-179.93,0\C,1,1.43335,2,116.99,3,-179.151,0\H,5,1.09789,1,110.458,2,64.9097,0\H,5,1.09951,1,110.125,2,-55.4119,0\C,5,1.50087,1,105.57,2,-174.128,0\H,8,1.08991,5,118.455,1,-99.5894,0\H,8,1.09018,5,112.801,1,35.7852,0\Li,3,1.91678,2,83.2237,1,-179.921,0\O,8,2.0375,5,88.7333,1,-179.815,0\C,12,1.27158,8,92.3165,5,-117.354,0\O,13,1.26911,12,126.699,8,-179.958,0\O,13,1.31182,12,114.432,8,0.145482,0\Li,14,1.88255,13,86.0332,12,179.884,0\\\@

 Total job time:  5186.07s(wall), 148659.85s(cpu) 
 Sun Jan 10 05:16:42 2021

        *************************************************************
        *                                                           *
        *  Thank you very much for using Q-Chem.  Have a nice day.  *
        *                                                           *
        *************************************************************


