
Running Job 1 of 1 mol.qin
qchem mol.qin_224171.0 /tmp/scratch/ 0
/clusterfs/mp/software/qchem/exe/qcprog.exe_s mol.qin_224171.0 /tmp/scratch/
                  Welcome to Q-Chem
     A Quantum Leap Into The Future Of Chemistry


 Q-Chem 5.2, Q-Chem, Inc., Pleasanton, CA (2019)

 Yihan Shao,  Zhengting Gan,  E. Epifanovsky,  A. T. B. Gilbert,  M. Wormit,  
 J. Kussmann,  A. W. Lange,  A. Behn,  Jia Deng,  Xintian Feng,  D. Ghosh,  
 M. Goldey,  P. R. Horn,  L. D. Jacobson,  I. Kaliman,  T. Kus,  A. Landau,  
 Jie Liu,  E. I. Proynov,  R. M. Richard,  R. P. Steele,  E. J. Sundstrom,  
 H. L. Woodcock III,  P. M. Zimmerman,  D. Zuev,  B. Alam,  B. Albrecht,  
 E. Alguire,  S. A. Baeppler,  D. Barton,  Z. Benda,  Y. A. Bernard,  
 E. J. Berquist,  K. B. Bravaya,  H. Burton,  K. Carter-Fenk,  D. Casanova,  
 Chun-Min Chang,  Yunqing Chen,  A. Chien,  K. D. Closser,  M. P. Coons,  
 S. Coriani,  S. Dasgupta,  A. L. Dempwolff,  M. Diedenhofen,  Hainam Do,  
 R. G. Edgar,  Po-Tung Fang,  S. Faraji,  S. Fatehi,  Qingguo Feng,  
 J. Fosso-Tande,  J. Gayvert,  Qinghui Ge,  A. Ghysels,  G. Gidofalvi,  
 J. Gomes,  J. Gonthier,  A. Gunina,  D. Hait,  M. W. D. Hanson-Heine,  
 P. H. P. Harbach,  A. W. Hauser,  M. F. Herbst,  J. E. Herr,  
 E. G. Hohenstein,  Z. C. Holden,  Kerwin Hui,  B. C. Huynh,  T.-C. Jagau,  
 Hyunjun Ji,  B. Kaduk,  K. Khistyaev,  Jaehoon Kim,  P. Klunzinger,  K. Koh,  
 D. Kosenkov,  L. Koulias,  T. Kowalczyk,  C. M. Krauter,  A. Kunitsa,  
 Ka Un Lao,  A. Laurent,  K. V. Lawler,  Joonho Lee,  D. Lefrancois,  
 S. Lehtola,  D. S. Levine,  Yi-Pei Li,  You-Sheng Lin,  Fenglai Liu,  
 Kuan-Yu Liu,  E. Livshits,  M. Loipersberger,  A. Luenser,  P. Manohar,  
 E. Mansoor,  S. F. Manzer,  Shan-Ping Mao,  Yuezhi Mao,  N. Mardirossian,  
 A. V. Marenich,  T. Markovich,  L. A. Martinez-Martinez,  S. A. Maurer,  
 N. J. Mayhall,  S. C. McKenzie,  J.-M. Mewes,  P. Morgante,  A. F. Morrison,  
 J. W. Mullinax,  K. Nanda,  T. S. Nguyen-Beck,  R. Olivares-Amaya,  
 J. A. Parkhill,  S. K. Paul,  Zheng Pei,  T. M. Perrine,  F. Plasser,  
 P. Pokhilko,  S. Prager,  A. Prociuk,  E. Ramos,  B. Rana,  D. R. Rehn,  
 F. Rob,  M. Scheurer,  M. Schneider,  N. Sergueev,  S. M. Sharada,  
 S. Sharma,  D. W. Small,  T. Stauch,  C. J. Stein,  T. Stein,  Yu-Chuan Su,  
 S. P. Veccham,  A. J. W. Thom,  A. Tkatchenko,  T. Tsuchimochi,  
 N. M. Tubman,  L. Vogt,  M. L. Vidal,  O. Vydrov,  M. A. Watson,  J. Wenzel,  
 M. de Wergifosse,  T. A. Wesolowski,  A. White,  J. Witte,  A. Yamada,  
 Jun Yang,  K. Yao,  S. Yeganeh,  S. R. Yost,  Zhi-Qiang You,  A. Zech,  
 Igor Ying Zhang,  Xing Zhang,  Yan Zhao,  Ying Zhu,  B. R. Brooks,  
 G. K. L. Chan,  C. J. Cramer,  M. S. Gordon,  W. J. Hehre,  A. Klamt,  
 M. W. Schmidt,  C. D. Sherrill,  D. G. Truhlar,  A. Aspuru-Guzik,  R. Baer,  
 A. T. Bell,  N. A. Besley,  Jeng-Da Chai,  A. E. DePrince, III,  
 R. A. DiStasio Jr.,  A. Dreuw,  B. D. Dunietz,  T. R. Furlani,  
 Chao-Ping Hsu,  Yousung Jung,  Jing Kong,  D. S. Lambrecht,  WanZhen Liang,  
 C. Ochsenfeld,  V. A. Rassolov,  L. V. Slipchenko,  J. E. Subotnik,  
 T. Van Voorhis,  J. M. Herbert,  A. I. Krylov,  P. M. W. Gill,  M. Head-Gordon

 Contributors to earlier versions of Q-Chem not listed above: 
 R. D. Adamson,  B. Austin,  J. Baker,  G. J. O. Beran,  K. Brandhorst,  
 S. T. Brown,  E. F. C. Byrd,  A. K. Chakraborty,  C.-L. Cheng,  
 Siu Hung Chien,  D. M. Chipman,  D. L. Crittenden,  H. Dachsel,  
 R. J. Doerksen,  A. D. Dutoi,  L. Fusti-Molnar,  W. A. Goddard III,  
 A. Golubeva-Zadorozhnaya,  S. R. Gwaltney,  G. Hawkins,  A. Heyden,  
 S. Hirata,  G. Kedziora,  F. J. Keil,  C. Kelley,  Jihan Kim,  R. A. King,  
 R. Z. Khaliullin,  P. P. Korambath,  W. Kurlancheek,  A. M. Lee,  M. S. Lee,  
 S. V. Levchenko,  Ching Yeh Lin,  D. Liotard,  R. C. Lochan,  I. Lotan,  
 P. E. Maslen,  N. Nair,  D. P. O'Neill,  D. Neuhauser,  E. Neuscamman,  
 C. M. Oana,  R. Olson,  B. Peters,  R. Peverati,  P. A. Pieniazek,  
 Y. M. Rhee,  J. Ritchie,  M. A. Rohrdanz,  E. Rosta,  N. J. Russ,  
 H. F. Schaefer III,  N. E. Schultz,  N. Shenvi,  A. C. Simmonett,  A. Sodt,  
 D. Stuck,  K. S. Thanthiriwatte,  V. Vanovschi,  Tao Wang,  A. Warshel,  
 C. F. Williams,  Q. Wu,  X. Xu,  W. Zhang

 Please cite Q-Chem as follows:
 Y. Shao et al., Mol. Phys. 113, 184-215 (2015)
 DOI: 10.1080/00268976.2014.952696

 Q-Chem 5.2.2 for Intel X86 EM64T Linux

 Parts of Q-Chem use Armadillo 8.300.2 (Tropical Shenanigans).
 http://arma.sourceforge.net/

 Q-Chem begins on Sun Jan 10 01:25:49 2021  

Host: 
0

     Scratch files written to /tmp/scratch//
 Nov2519 |scratch|qcdevops|jenkins|workspace|build_RNUM 6829   
Processing $rem in /clusterfs/mp/software/qchem/config/preferences:
	 MEM_TOTAL  96000 
NAlpha2: 82
NElect   82
Mult     1
Symmetry turned off for PCM/SM12/SMD calculation

Checking the input file for inconsistencies... 	...done.

--------------------------------------------------------------
User input:
--------------------------------------------------------------
$molecule
0 1
O     -1.9648500000      2.2155800000     -0.0130000000
C     -1.4762200000      1.0485300000      0.0054600000
O     -2.1906300000      0.0131300000      0.0726000000
O     -0.1586500000      0.9791100000     -0.0387100000
C      0.6177000000     -0.8959800000      0.0042900000
O      2.6525500000     -1.9583600000     -0.0077100000
C      4.0160000000     -2.0527100000     -0.0038300000
C      2.1002000000     -0.6530200000     -0.0032700000
O      4.7086800000     -1.0133300000      0.0172700000
O      4.4643700000     -3.2238700000     -0.0073700000
Li     -3.6719700000      1.2886100000      0.0618400000
Li      6.1889000000     -2.2976000000     -0.0164600000
H      0.2365400000     -1.4058800000     -0.8881300000
H      0.2630800000     -1.4179300000      0.9028900000
H      2.4095900000     -0.0832700000     -0.8871700000
H      2.4131500000     -0.1015700000      0.8920100000
$end

$rem
job_type = freq
basis = def2-svpd
max_scf_cycles = 200
gen_scfman = true
xc_grid = 3
scf_algorithm = diis
resp_charges = true
symmetry = false
sym_ignore = true
method = wb97xv
solvent_method = smd
ideriv = 1
thresh = 14
$end

$smx
solvent other
$end
--------------------------------------------------------------
 ----------------------------------------------------------------
             Standard Nuclear Orientation (Angstroms)
    I     Atom           X                Y                Z
 ----------------------------------------------------------------
    1      O      -1.9648500000     2.2155800000    -0.0130000000
    2      C      -1.4762200000     1.0485300000     0.0054600000
    3      O      -2.1906300000     0.0131300000     0.0726000000
    4      O      -0.1586500000     0.9791100000    -0.0387100000
    5      C       0.6177000000    -0.8959800000     0.0042900000
    6      O       2.6525500000    -1.9583600000    -0.0077100000
    7      C       4.0160000000    -2.0527100000    -0.0038300000
    8      C       2.1002000000    -0.6530200000    -0.0032700000
    9      O       4.7086800000    -1.0133300000     0.0172700000
   10      O       4.4643700000    -3.2238700000    -0.0073700000
   11      Li     -3.6719700000     1.2886100000     0.0618400000
   12      Li      6.1889000000    -2.2976000000    -0.0164600000
   13      H       0.2365400000    -1.4058800000    -0.8881300000
   14      H       0.2630800000    -1.4179300000     0.9028900000
   15      H       2.4095900000    -0.0832700000    -0.8871700000
   16      H       2.4131500000    -0.1015700000     0.8920100000
 ----------------------------------------------------------------
 Nuclear Repulsion Energy =         551.12505155 hartrees
 There are       41 alpha and       41 beta electrons
 Requested basis set is def2-SVPD
 There are 114 shells and 274 basis functions

 Total QAlloc Memory Limit  96000 MB
 Mega-Array Size       188 MB
 MEM_STATIC part       192 MB
 
 Citation of the SMD model:
 Marenich, A.V.; Cramer, C.J.; Truhlar, D.G.
 J. Phys. Chem. B 2009, 113, 6378-6396.
 iSolventCode=           0
 Solvent: other                                                           
 
 vradii
            1           2           3           4           5           6
    1   2.2940000   1.8500000   2.2940000   2.2940000   1.8500000   2.2940000
            7           8           9          10          11          12
    1   1.8500000   1.8500000   2.2940000   2.2940000   2.1476001   2.1476001
           13          14          15          16
    1   1.2000000   1.2000000   1.2000000   1.2000000
 Changing PCM_VDW_RADII to SMD_RADIUS
 Discretize the solute cavity surface with Lebedev spheres
	Using 110 Lebedev grid points for each H atom
	Using 194 Lebedev grid points for other atoms
	Atomic van der Waals radii will be scaled by 1.20
 Remove points where switching function is < 1.0e-08
 Keep 1181 surface tesserae and discard 1587 interior tesserae
 Molecular Surface Area = 255.389 Angst**2
 A cutoff of  1.0D-14 yielded   5975 shell pairs
 There are     34671 function pairs (     39873 Cartesian)
 Smallest overlap matrix eigenvalue = 3.57E-05
 Guess from superposition of atomic densities
 Warning:  Energy on first SCF cycle will be non-variational
 SAD guess density has 82.000000 electrons

 -----------------------------------------------------------------------
  General SCF calculation program by
  Eric Jon Sundstrom, Paul Horn, Yuezhi Mao, Dmitri Zuev, Alec White,
  David Stuck, Shaama M.S., Shane Yost, Joonho Lee, David Small,
  Daniel Levine, Susi Lehtola, Hugh Burton, Evgeny Epifanovsky,
  Bang C. Huynh
 -----------------------------------------------------------------------
 Exchange:     0.1670 Hartree-Fock + 1.0000 wB97X-V + LR-HF
 Correlation:  1.0000 wB97X-V
 Using SG-3 standard quadrature grid
 Nonlocal Correlation:  VV10 with C = 0.0100 and b = 6.00 and scale = 1.00000
 Grid used for NLC:  SG-1 standard quadrature
 
 Citation of the SMD model:
 Marenich, A.V.; Cramer, C.J.; Truhlar, D.G.
 J. Phys. Chem. B 2009, 113, 6378-6396.
 iSolventCode=           0
 Solvent: other                                                           
 
 vradii
            1           2           3           4           5           6
    1   2.2940000   1.8500000   2.2940000   2.2940000   1.8500000   2.2940000
            7           8           9          10          11          12
    1   1.8500000   1.8500000   2.2940000   2.2940000   2.1476001   2.1476001
           13          14          15          16
    1   1.2000000   1.2000000   1.2000000   1.2000000
 using 40 threads for integral computing
 -------------------------------------------------------
 OpenMP Integral computing Module                
 Release: version 1.0, May 2013, Q-Chem Inc. Pittsburgh 
 -------------------------------------------------------
 using 40 threads for integral computing
 -------------------------------------------------------
 OpenMP Integral computing Module                
 Release: version 1.0, May 2013, Q-Chem Inc. Pittsburgh 
 -------------------------------------------------------
 -------------------------------------------------------
 OpenMP BLAS3 based DFT computing Module                
 Release: version 1.0, May 2013, Q-Chem Inc. Pittsburgh 
 -------------------------------------------------------
 -------------------------------------------------------
 OpenMP BLAS3 based DFT computing Module                
 Release: version 1.0, May 2013, Q-Chem Inc. Pittsburgh 
 -------------------------------------------------------
 -------------------------------------------------------
 OpenMP BLAS3 based DFT computing Module                
 Release: version 1.0, May 2013, Q-Chem Inc. Pittsburgh 
 -------------------------------------------------------
 A restricted SCF calculation will be
 performed using DIIS
 SCF converges when DIIS error is below 1.0e-08
 ---------------------------------------
  Cycle       Energy         DIIS error
 ---------------------------------------
    1    -622.2150019943      3.64e-02  
    2    -620.3717739509      7.18e-03  
    3    -620.3569861369      7.84e-03  
    4    -620.7593890789      5.05e-04  
    5    -620.7604147534      4.06e-04  
    6    -620.7616037268      7.52e-05  
    7    -620.7616481347      4.00e-05  
    8    -620.7616613460      8.22e-06  
    9    -620.7616624650      3.80e-06  
   10    -620.7616626616      1.23e-06  
   11    -620.7616626855      5.54e-07  
   12    -620.7616626900      1.86e-07  
   13    -620.7616626905      7.82e-08  
   14    -620.7616626907      2.81e-08  
   15    -620.7616626907      9.55e-09  Convergence criterion met
 ---------------------------------------
 SCF time:   CPU 1212.46s  wall 41.00s 
(3)  G-ENP(liq) elect-nuc-pol free energy of system     -620.761662691 a.u.
(4)  G-CDS(liq) cavity-dispersion-solvent structure 
     free energy                                               -4.1314 kcal/mol
(6)  G-S(liq) free energy of system                     -620.768246426 a.u.
 SCF   energy in the final basis set =     -620.7616626907
 Total energy in the final basis set =     -620.7682464259
 
 --------------------------------------------------------------
 
                    Orbital Energies (a.u.)
 --------------------------------------------------------------
 
 Alpha MOs
 -- Occupied --
-19.2678 -19.2366 -19.2047 -19.1977 -19.1769 -19.1755 -10.4413 -10.4117
-10.3808 -10.3472  -2.1151  -2.0989  -1.2417  -1.1986  -1.1451  -1.0957
 -1.0747  -1.0626  -0.9052  -0.7572  -0.6924  -0.6252  -0.6207  -0.5993
 -0.5892  -0.5690  -0.5639  -0.5527  -0.5518  -0.5268  -0.4932  -0.4768
 -0.4388  -0.4216  -0.4111  -0.4084  -0.3929  -0.3890  -0.3836  -0.3692
 -0.3499
 -- Virtual --
  0.0136   0.0277   0.0306   0.0592   0.0614   0.0617   0.0637   0.0661
  0.0726   0.1136   0.1175   0.1316   0.1332   0.1387   0.1517   0.1617
  0.1660   0.1697   0.1805   0.1821   0.1882   0.1916   0.1937   0.1968
  0.1988   0.2072   0.2105   0.2134   0.2200   0.2257   0.2269   0.2326
  0.2419   0.2569   0.2656   0.2732   0.2772   0.2889   0.2978   0.3070
  0.3118   0.3127   0.3375   0.3470   0.3509   0.3607   0.3669   0.3752
  0.3840   0.3853   0.3914   0.3926   0.4048   0.4132   0.4272   0.4348
  0.4437   0.4470   0.4508   0.4529   0.4638   0.4748   0.4822   0.4930
  0.4966   0.5035   0.5212   0.5240   0.5411   0.5460   0.5526   0.5616
  0.5643   0.5720   0.5752   0.5825   0.5911   0.6004   0.6046   0.6085
  0.6108   0.6242   0.6347   0.6374   0.6394   0.6453   0.6524   0.6578
  0.6596   0.6658   0.6747   0.6876   0.6895   0.6962   0.7163   0.7211
  0.7232   0.7343   0.7364   0.7540   0.7548   0.7584   0.7677   0.7763
  0.7771   0.7797   0.7878   0.7912   0.8075   0.8257   0.8326   0.8335
  0.8461   0.8505   0.8547   0.8796   0.8945   0.9062   0.9114   0.9281
  0.9530   0.9545   0.9580   0.9788   0.9947   1.0035   1.0244   1.0439
  1.0609   1.0898   1.0997   1.1199   1.1302   1.1544   1.1692   1.1860
  1.2152   1.2285   1.2490   1.2751   1.2935   1.3202   1.3514   1.3729
  1.3884   1.4530   1.5485   1.5608   1.5640   1.5773   1.6072   1.6213
  1.6237   1.6418   1.6627   1.6884   1.6920   1.6990   1.7560   1.7585
  1.7797   1.7904   1.7997   1.8233   1.8403   1.8459   1.9094   1.9170
  1.9794   1.9905   2.0261   2.0415   2.0442   2.0568   2.0701   2.0756
  2.0943   2.1021   2.1110   2.1180   2.1216   2.1460   2.2001   2.2250
  2.2353   2.2695   2.2862   2.3321   2.3432   2.3769   2.3879   2.3918
  2.4474   2.4883   2.5578   2.6197   2.6468   2.6730   2.7822   2.9182
  2.9441   2.9590   2.9724   2.9842   2.9987   3.0129   3.0206   3.0318
  3.0366   3.0460   3.0683   3.0707   3.0746   3.1026   3.1257   3.1679
  3.1948   3.2228   3.2935   3.3060   3.3730   3.3806   3.3882   3.4183
  3.4404   3.5244   3.6906   3.8177   3.8442   3.8672   3.9062   3.9420
  3.9831
 --------------------------------------------------------------
 
          Ground-State Mulliken Net Atomic Charges

     Atom                 Charge (a.u.)
  ----------------------------------------
      1 O                    -0.973844
      2 C                     1.188951
      3 O                    -1.006488
      4 O                    -0.686314
      5 C                     0.224597
      6 O                    -0.648220
      7 C                     1.153616
      8 C                     0.438214
      9 O                    -0.945369
     10 O                    -0.954638
     11 Li                    1.048036
     12 Li                    1.058705
     13 H                     0.007978
     14 H                     0.033248
     15 H                     0.029351
     16 H                     0.032177
  ----------------------------------------
  Sum of atomic charges =     0.000000

  Building new vdw surfaces
         Merz-Kollman RESP Net Atomic Charges

     Atom                 Charge (a.u.)
  ----------------------------------------
      1 O                    -0.771295
      2 C                     0.949189
      3 O                    -0.771295
      4 O                    -0.844676
      5 C                     0.977346
      6 O                    -0.844676
      7 C                     0.949189
      8 C                     0.977346
      9 O                    -0.771295
     10 O                    -0.771295
     11 Li                    0.831417
     12 Li                    0.831417
     13 H                    -0.185343
     14 H                    -0.185343
     15 H                    -0.185343
     16 H                    -0.185343
  ----------------------------------------
  Sum of atomic charges =     0.000000

  Related Dipole Moment =     2.0241 (X  0.9446 Y -1.7870 Z  0.1069)

 -----------------------------------------------------------------
                    Cartesian Multipole Moments
 -----------------------------------------------------------------
    Charge (ESU x 10^10)
                -0.0000
    Dipole Moment (Debye)
         X       2.3732      Y      -2.5909      Z       0.0830
       Tot       3.5145
    Quadrupole Moments (Debye-Ang)
        XX      35.4119     XY     -22.1099     YY     -78.8514
        XZ      -1.0304     YZ       0.6282     ZZ     -58.8695
    Octopole Moments (Debye-Ang^2)
       XXX     151.6549    XXY     -76.7697    XYY     -73.3881
       YYY     119.9329    XXZ      -1.2626    XYZ      -0.7192
       YYZ       0.6427    XZZ     -73.1007    YZZ      30.5114
       ZZZ      -0.6187
    Hexadecapole Moments (Debye-Ang^3)
      XXXX    1488.2577   XXXY    -796.1110   XXYY    -450.1222
      XYYY     939.8587   YYYY   -1399.6785   XXXZ     -29.2711
      XXYZ      11.1142   XYYZ      -2.2214   YYYZ       1.3070
      XXZZ    -530.7923   XYZZ     248.2953   YYZZ    -191.6452
      XZZZ       3.0491   YZZZ       0.5677   ZZZZ     -70.3709
 -----------------------------------------------------------------
 Calculating analytic gradient of the SCF energy
 Gradient of CDS energy
            1           2           3           4           5           6
    1  -0.0004728   0.0001238  -0.0002263   0.0008481  -0.0006096  -0.0009920
    2   0.0000985   0.0000736  -0.0000364  -0.0003099  -0.0003207   0.0004036
    3   0.0000064  -0.0000058  -0.0000019  -0.0000120  -0.0000107   0.0000092
            7           8           9          10          11          12
    1   0.0002355   0.0004152   0.0000909   0.0004418  -0.0000118   0.0000183
    2  -0.0002501   0.0002628   0.0000110  -0.0000516   0.0000028  -0.0000020
    3   0.0000071  -0.0000070  -0.0000122  -0.0000088   0.0000098   0.0000130
           13          14          15          16
    1   0.0000167   0.0000129   0.0000409   0.0000685
    2   0.0000727   0.0000720  -0.0000025  -0.0000237
    3   0.0001246  -0.0001110   0.0001497  -0.0001504
 Gradient of SCF Energy
            1           2           3           4           5           6
    1   0.0218501  -0.0175570   0.0213504  -0.0461682   0.0243237  -0.0039174
    2  -0.0091846   0.0001459   0.0123360   0.0727615  -0.0362838   0.0000132
    3   0.0005705  -0.0013774  -0.0002682  -0.0017551   0.0020164   0.0013803
            7           8           9          10          11          12
    1   0.0187109   0.0029478  -0.0121234  -0.0143743  -0.0167554   0.0123950
    2   0.0103809  -0.0161714  -0.0035661  -0.0023767   0.0007488  -0.0003637
    3  -0.0027138  -0.0014328   0.0012643   0.0012355   0.0001781  -0.0004275
           13          14          15          16
    1   0.0047112   0.0063382  -0.0009899  -0.0007418
    2  -0.0118287  -0.0138607  -0.0010480  -0.0017027
    3   0.0037411  -0.0033319   0.0039417  -0.0030210
 Max gradient component =       7.276E-02
 RMS gradient           =       1.635E-02
 Computing fast CPCM-SWIG gradient
 Updating gradient with PCM contributions...
 -- total gradient after adding PCM contribution --
---------------------------------------------------
  Atom         X              Y              Z     
---------------------------------------------------
   1       0.010701      -0.006229       0.000840
   2      -0.010754       0.003165      -0.001928
   3       0.012465       0.007712       0.000121
   4      -0.041573       0.068819      -0.001716
   5       0.024302      -0.036540       0.002134
   6      -0.004783       0.003152       0.001422
   7       0.015314       0.007684      -0.002588
   8       0.002649      -0.016648      -0.001420
   9      -0.007105      -0.004592       0.001116
  10      -0.007328      -0.001018       0.001103
  11      -0.007193       0.000936      -0.000026
  12       0.003523       0.000104      -0.000272
  13       0.004758      -0.011932       0.003908
  14       0.006380      -0.013946      -0.003589
  15      -0.000824       0.000044       0.002826
  16      -0.000532      -0.000711      -0.001931
---------------------------------------------------
 Number of fixed atoms: 0
 Gradient time:  CPU 191.08 s  wall 9.73 s
 ######################################################
 ######################################################
 # Starting finite difference calculation for IDERIV  #
 Finite diff step size:  1.88973e-03 a.u.
 ----------------------------------------------------------------
             Standard Nuclear Orientation (Angstroms)
    I     Atom           X                Y                Z
 ----------------------------------------------------------------
    1      O      -1.9638500000     2.2155800000    -0.0130000000
    2      C      -1.4762200000     1.0485300000     0.0054600000
    3      O      -2.1906300000     0.0131300000     0.0726000000
    4      O      -0.1586500000     0.9791100000    -0.0387100000
    5      C       0.6177000000    -0.8959800000     0.0042900000
    6      O       2.6525500000    -1.9583600000    -0.0077100000
    7      C       4.0160000000    -2.0527100000    -0.0038300000
    8      C       2.1002000000    -0.6530200000    -0.0032700000
    9      O       4.7086800000    -1.0133300000     0.0172700000
   10      O       4.4643700000    -3.2238700000    -0.0073700000
   11      Li     -3.6719700000     1.2886100000     0.0618400000
   12      Li      6.1889000000    -2.2976000000    -0.0164600000
   13      H       0.2365400000    -1.4058800000    -0.8881300000
   14      H       0.2630800000    -1.4179300000     0.9028900000
   15      H       2.4095900000    -0.0832700000    -0.8871700000
   16      H       2.4131500000    -0.1015700000     0.8920100000
 ----------------------------------------------------------------
 Nuclear Repulsion Energy =         551.13778304 hartrees
 There are       41 alpha and       41 beta electrons
 Discretize the solute cavity surface with Lebedev spheres
	Using 110 Lebedev grid points for each H atom
	Using 194 Lebedev grid points for other atoms
	Atomic van der Waals radii will be scaled by 1.20
 Remove points where switching function is < 1.0e-08
 Keep 1181 surface tesserae and discard 1587 interior tesserae
 Molecular Surface Area = 255.389 Angst**2
 Requested basis set is def2-SVPD
 There are 114 shells and 274 basis functions
 A cutoff of  1.0D-14 yielded   5975 shell pairs
 There are     34671 function pairs (     39873 Cartesian)
 Smallest overlap matrix eigenvalue = 3.57E-05
 Guess MOs from SCF MO coefficient file

 -----------------------------------------------------------------------
  General SCF calculation program by
  Eric Jon Sundstrom, Paul Horn, Yuezhi Mao, Dmitri Zuev, Alec White,
  David Stuck, Shaama M.S., Shane Yost, Joonho Lee, David Small,
  Daniel Levine, Susi Lehtola, Hugh Burton, Evgeny Epifanovsky,
  Bang C. Huynh
 -----------------------------------------------------------------------
 Exchange:     0.1670 Hartree-Fock + 1.0000 wB97X-V + LR-HF
 Correlation:  1.0000 wB97X-V
 Using SG-3 standard quadrature grid
 Nonlocal Correlation:  VV10 with C = 0.0100 and b = 6.00 and scale = 1.00000
 Grid used for NLC:  SG-1 standard quadrature
 
 Citation of the SMD model:
 Marenich, A.V.; Cramer, C.J.; Truhlar, D.G.
 J. Phys. Chem. B 2009, 113, 6378-6396.
 iSolventCode=           0
 Solvent: other                                                           
 
 vradii
            1           2           3           4           5           6
    1   2.2940000   1.8500000   2.2940000   2.2940000   1.8500000   2.2940000
            7           8           9          10          11          12
    1   1.8500000   1.8500000   2.2940000   2.2940000   2.1476001   2.1476001
           13          14          15          16
    1   1.2000000   1.2000000   1.2000000   1.2000000
 using 40 threads for integral computing
 -------------------------------------------------------
 OpenMP Integral computing Module                
 Release: version 1.0, May 2013, Q-Chem Inc. Pittsburgh 
 -------------------------------------------------------
 using 40 threads for integral computing
 -------------------------------------------------------
 OpenMP Integral computing Module                
 Release: version 1.0, May 2013, Q-Chem Inc. Pittsburgh 
 -------------------------------------------------------
 -------------------------------------------------------
 OpenMP BLAS3 based DFT computing Module                
 Release: version 1.0, May 2013, Q-Chem Inc. Pittsburgh 
 -------------------------------------------------------
 -------------------------------------------------------
 OpenMP BLAS3 based DFT computing Module                
 Release: version 1.0, May 2013, Q-Chem Inc. Pittsburgh 
 -------------------------------------------------------
 -------------------------------------------------------
 OpenMP BLAS3 based DFT computing Module                
 Release: version 1.0, May 2013, Q-Chem Inc. Pittsburgh 
 -------------------------------------------------------
 A restricted SCF calculation will be
 performed using Roothaan-Hall, DIIS
 SCF converges when DIIS error is below 1.0e-08
 ---------------------------------------
  Cycle       Energy         DIIS error
 ---------------------------------------
    1    -619.9323462259      3.34e-04  Roothaan Step
 ---------------------------------------
  Cycle       Energy         DIIS error
 ---------------------------------------
    1    -620.7592758887      4.06e-04  
    2    -620.7602323222      4.40e-04  
    3    -620.7615498297      8.88e-05  
    4    -620.7616265420      3.14e-05  
    5    -620.7616383123      1.50e-05  
    6    -620.7616407332      4.79e-06  
    7    -620.7616411383      2.20e-06  
    8    -620.7616412071      8.43e-07  
    9    -620.7616412170      3.21e-07  
   10    -620.7616412189      8.63e-08  
   11    -620.7616412191      3.97e-08  
   12    -620.7616412191      1.46e-08  
   13    -620.7616412191      4.98e-09  Convergence criterion met
 ---------------------------------------
 SCF time:   CPU 1158.72s  wall 39.00s 
(3)  G-ENP(liq) elect-nuc-pol free energy of system     -620.761641219 a.u.
(4)  G-CDS(liq) cavity-dispersion-solvent structure 
     free energy                                               -4.1319 kcal/mol
(6)  G-S(liq) free energy of system                     -620.768225846 a.u.
 SCF   energy in the final basis set =     -620.7616412191
 Total energy in the final basis set =     -620.7682258459
 
 --------------------------------------------------------------
 
                    Orbital Energies (a.u.)
 --------------------------------------------------------------
 
 Alpha MOs
 -- Occupied --
-19.2678 -19.2365 -19.2047 -19.1977 -19.1769 -19.1755 -10.4413 -10.4116
-10.3807 -10.3472  -2.1151  -2.0990  -1.2417  -1.1986  -1.1451  -1.0957
 -1.0746  -1.0627  -0.9052  -0.7571  -0.6923  -0.6252  -0.6206  -0.5993
 -0.5892  -0.5690  -0.5639  -0.5527  -0.5518  -0.5268  -0.4932  -0.4768
 -0.4388  -0.4216  -0.4110  -0.4084  -0.3928  -0.3889  -0.3836  -0.3692
 -0.3499
 -- Virtual --
  0.0136   0.0277   0.0306   0.0592   0.0614   0.0617   0.0637   0.0661
  0.0726   0.1136   0.1175   0.1316   0.1332   0.1387   0.1517   0.1617
  0.1661   0.1698   0.1805   0.1822   0.1882   0.1916   0.1937   0.1968
  0.1988   0.2072   0.2105   0.2134   0.2200   0.2257   0.2269   0.2326
  0.2419   0.2569   0.2656   0.2732   0.2772   0.2889   0.2978   0.3070
  0.3118   0.3127   0.3375   0.3470   0.3509   0.3607   0.3669   0.3752
  0.3840   0.3853   0.3914   0.3927   0.4048   0.4132   0.4272   0.4348
  0.4437   0.4470   0.4508   0.4529   0.4638   0.4748   0.4822   0.4930
  0.4967   0.5035   0.5212   0.5241   0.5411   0.5461   0.5526   0.5616
  0.5643   0.5721   0.5752   0.5825   0.5911   0.6004   0.6046   0.6085
  0.6108   0.6242   0.6347   0.6375   0.6393   0.6453   0.6524   0.6577
  0.6596   0.6658   0.6747   0.6875   0.6895   0.6962   0.7163   0.7212
  0.7232   0.7344   0.7364   0.7540   0.7548   0.7584   0.7678   0.7763
  0.7771   0.7797   0.7878   0.7912   0.8076   0.8257   0.8326   0.8335
  0.8461   0.8506   0.8547   0.8796   0.8945   0.9062   0.9114   0.9281
  0.9530   0.9545   0.9580   0.9788   0.9947   1.0034   1.0244   1.0440
  1.0610   1.0899   1.0998   1.1199   1.1302   1.1544   1.1692   1.1860
  1.2151   1.2286   1.2490   1.2751   1.2935   1.3203   1.3514   1.3729
  1.3884   1.4529   1.5485   1.5609   1.5640   1.5774   1.6072   1.6214
  1.6237   1.6418   1.6627   1.6884   1.6920   1.6990   1.7560   1.7584
  1.7797   1.7905   1.7998   1.8233   1.8403   1.8460   1.9094   1.9170
  1.9795   1.9905   2.0261   2.0415   2.0442   2.0568   2.0701   2.0756
  2.0943   2.1020   2.1110   2.1180   2.1216   2.1461   2.2002   2.2250
  2.2354   2.2695   2.2862   2.3322   2.3434   2.3772   2.3879   2.3918
  2.4475   2.4883   2.5578   2.6197   2.6468   2.6730   2.7822   2.9182
  2.9442   2.9590   2.9724   2.9841   2.9987   3.0130   3.0206   3.0318
  3.0366   3.0461   3.0684   3.0708   3.0746   3.1026   3.1257   3.1679
  3.1948   3.2228   3.2935   3.3060   3.3735   3.3806   3.3882   3.4183
  3.4406   3.5249   3.6906   3.8177   3.8442   3.8672   3.9064   3.9426
  3.9831
 --------------------------------------------------------------
 
          Ground-State Mulliken Net Atomic Charges

     Atom                 Charge (a.u.)
  ----------------------------------------
      1 O                    -0.973111
      2 C                     1.188353
      3 O                    -1.006635
      4 O                    -0.686176
      5 C                     0.224610
      6 O                    -0.648204
      7 C                     1.153632
      8 C                     0.438187
      9 O                    -0.945382
     10 O                    -0.954648
     11 Li                    1.048124
     12 Li                    1.058703
     13 H                     0.007915
     14 H                     0.033188
     15 H                     0.029310
     16 H                     0.032134
  ----------------------------------------
  Sum of atomic charges =     0.000000

  Building new vdw surfaces
         Merz-Kollman RESP Net Atomic Charges

     Atom                 Charge (a.u.)
  ----------------------------------------
      1 O                    -0.771161
      2 C                     0.948797
      3 O                    -0.771161
      4 O                    -0.843832
      5 C                     0.975615
      6 O                    -0.843832
      7 C                     0.948797
      8 C                     0.975615
      9 O                    -0.771161
     10 O                    -0.771161
     11 Li                    0.831411
     12 Li                    0.831411
     13 H                    -0.184835
     14 H                    -0.184835
     15 H                    -0.184835
     16 H                    -0.184835
  ----------------------------------------
  Sum of atomic charges =     0.000000

  Related Dipole Moment =     2.0199 (X  0.9397 Y -1.7848 Z  0.1067)

 -----------------------------------------------------------------
                    Cartesian Multipole Moments
 -----------------------------------------------------------------
    Charge (ESU x 10^10)
                 0.0000
    Dipole Moment (Debye)
         X       2.3660      Y      -2.5864      Z       0.0829
       Tot       3.5064
    Quadrupole Moments (Debye-Ang)
        XX      35.4263     XY     -22.1215     YY     -78.8455
        XZ      -1.0303     YZ       0.6281     ZZ     -58.8693
    Octopole Moments (Debye-Ang^2)
       XXX     151.5624    XXY     -76.7196    XYY     -73.4313
       YYY     119.9649    XXZ      -1.2630    XYZ      -0.7189
       YYZ       0.6426    XZZ     -73.1113    YZZ      30.5163
       ZZZ      -0.6188
    Hexadecapole Moments (Debye-Ang^3)
      XXXX    1488.4732   XXXY    -796.2445   XXYY    -450.0244
      XYYY     939.7574   YYYY   -1399.6197   XXXZ     -29.2698
      XXYZ      11.1133   XYYZ      -2.2208   YYYZ       1.3064
      XXZZ    -530.7658   XYZZ     248.2751   YYZZ    -191.6385
      XZZZ       3.0497   YZZZ       0.5675   ZZZZ     -70.3706
 -----------------------------------------------------------------
 Calculating analytic gradient of the SCF energy
 Gradient of CDS energy
            1           2           3           4           5           6
    1  -0.0004707   0.0001220  -0.0002263   0.0008478  -0.0006096  -0.0009920
    2   0.0000969   0.0000744  -0.0000364  -0.0003089  -0.0003207   0.0004036
    3   0.0000063  -0.0000058  -0.0000019  -0.0000120  -0.0000107   0.0000092
            7           8           9          10          11          12
    1   0.0002355   0.0004152   0.0000909   0.0004418  -0.0000118   0.0000183
    2  -0.0002501   0.0002628   0.0000110  -0.0000516   0.0000027  -0.0000020
    3   0.0000071  -0.0000070  -0.0000122  -0.0000088   0.0000099   0.0000130
           13          14          15          16
    1   0.0000167   0.0000129   0.0000409   0.0000685
    2   0.0000727   0.0000720  -0.0000025  -0.0000237
    3   0.0001246  -0.0001110   0.0001497  -0.0001504
 Gradient of SCF Energy
            1           2           3           4           5           6
    1   0.0222187  -0.0178314   0.0214187  -0.0462953   0.0243349  -0.0039307
    2  -0.0094991   0.0003896   0.0122906   0.0729022  -0.0363334   0.0000125
    3   0.0005697  -0.0013810  -0.0002666  -0.0017540   0.0020173   0.0013803
            7           8           9          10          11          12
    1   0.0187228   0.0029593  -0.0121312  -0.0143821  -0.0167886   0.0123965
    2   0.0103843  -0.0161505  -0.0035720  -0.0023688   0.0007373  -0.0003640
    3  -0.0027135  -0.0014324   0.0012641   0.0012354   0.0001789  -0.0004276
           13          14          15          16
    1   0.0047087   0.0063355  -0.0009918  -0.0007439
    2  -0.0118182  -0.0138503  -0.0010530  -0.0017073
    3   0.0037519  -0.0033427   0.0039530  -0.0030328
 Max gradient component =       7.290E-02
 RMS gradient           =       1.640E-02
 Computing fast CPCM-SWIG gradient
 Updating gradient with PCM contributions...
 -- total gradient after adding PCM contribution --
---------------------------------------------------
  Atom         X              Y              Z     
---------------------------------------------------
   1       0.011080      -0.006538       0.000839
   2      -0.011027       0.003399      -0.001932
   3       0.012531       0.007670       0.000122
   4      -0.041713       0.068965      -0.001714
   5       0.024312      -0.036577       0.002135
   6      -0.004798       0.003155       0.001422
   7       0.015324       0.007683      -0.002588
   8       0.002659      -0.016638      -0.001420
   9      -0.007109      -0.004593       0.001116
  10      -0.007332      -0.001015       0.001103
  11      -0.007224       0.000920      -0.000025
  12       0.003524       0.000104      -0.000272
  13       0.004754      -0.011927       0.003907
  14       0.006376      -0.013941      -0.003587
  15      -0.000825       0.000044       0.002826
  16      -0.000532      -0.000711      -0.001931
---------------------------------------------------
 Number of fixed atoms: 0
 Gradient time:  CPU 187.35 s  wall 9.61 s
 ----------------------------------------------------------------
             Standard Nuclear Orientation (Angstroms)
    I     Atom           X                Y                Z
 ----------------------------------------------------------------
    1      O      -1.9658500000     2.2155800000    -0.0130000000
    2      C      -1.4762200000     1.0485300000     0.0054600000
    3      O      -2.1906300000     0.0131300000     0.0726000000
    4      O      -0.1586500000     0.9791100000    -0.0387100000
    5      C       0.6177000000    -0.8959800000     0.0042900000
    6      O       2.6525500000    -1.9583600000    -0.0077100000
    7      C       4.0160000000    -2.0527100000    -0.0038300000
    8      C       2.1002000000    -0.6530200000    -0.0032700000
    9      O       4.7086800000    -1.0133300000     0.0172700000
   10      O       4.4643700000    -3.2238700000    -0.0073700000
   11      Li     -3.6719700000     1.2886100000     0.0618400000
   12      Li      6.1889000000    -2.2976000000    -0.0164600000
   13      H       0.2365400000    -1.4058800000    -0.8881300000
   14      H       0.2630800000    -1.4179300000     0.9028900000
   15      H       2.4095900000    -0.0832700000    -0.8871700000
   16      H       2.4131500000    -0.1015700000     0.8920100000
 ----------------------------------------------------------------
 Nuclear Repulsion Energy =         551.11231645 hartrees
 There are       41 alpha and       41 beta electrons
 Discretize the solute cavity surface with Lebedev spheres
	Using 110 Lebedev grid points for each H atom
	Using 194 Lebedev grid points for other atoms
	Atomic van der Waals radii will be scaled by 1.20
 Remove points where switching function is < 1.0e-08
 Keep 1182 surface tesserae and discard 1586 interior tesserae
 Molecular Surface Area = 255.388 Angst**2
 Requested basis set is def2-SVPD
 There are 114 shells and 274 basis functions
 A cutoff of  1.0D-14 yielded   5975 shell pairs
 There are     34671 function pairs (     39873 Cartesian)
 Smallest overlap matrix eigenvalue = 3.57E-05
 Guess MOs from SCF MO coefficient file

 -----------------------------------------------------------------------
  General SCF calculation program by
  Eric Jon Sundstrom, Paul Horn, Yuezhi Mao, Dmitri Zuev, Alec White,
  David Stuck, Shaama M.S., Shane Yost, Joonho Lee, David Small,
  Daniel Levine, Susi Lehtola, Hugh Burton, Evgeny Epifanovsky,
  Bang C. Huynh
 -----------------------------------------------------------------------
 Exchange:     0.1670 Hartree-Fock + 1.0000 wB97X-V + LR-HF
 Correlation:  1.0000 wB97X-V
 Using SG-3 standard quadrature grid
 Nonlocal Correlation:  VV10 with C = 0.0100 and b = 6.00 and scale = 1.00000
 Grid used for NLC:  SG-1 standard quadrature
 
 Citation of the SMD model:
 Marenich, A.V.; Cramer, C.J.; Truhlar, D.G.
 J. Phys. Chem. B 2009, 113, 6378-6396.
 iSolventCode=           0
 Solvent: other                                                           
 
 vradii
            1           2           3           4           5           6
    1   2.2940000   1.8500000   2.2940000   2.2940000   1.8500000   2.2940000
            7           8           9          10          11          12
    1   1.8500000   1.8500000   2.2940000   2.2940000   2.1476001   2.1476001
           13          14          15          16
    1   1.2000000   1.2000000   1.2000000   1.2000000
 using 40 threads for integral computing
 -------------------------------------------------------
 OpenMP Integral computing Module                
 Release: version 1.0, May 2013, Q-Chem Inc. Pittsburgh 
 -------------------------------------------------------
 using 40 threads for integral computing
 -------------------------------------------------------
 OpenMP Integral computing Module                
 Release: version 1.0, May 2013, Q-Chem Inc. Pittsburgh 
 -------------------------------------------------------
 -------------------------------------------------------
 OpenMP BLAS3 based DFT computing Module                
 Release: version 1.0, May 2013, Q-Chem Inc. Pittsburgh 
 -------------------------------------------------------
 -------------------------------------------------------
 OpenMP BLAS3 based DFT computing Module                
 Release: version 1.0, May 2013, Q-Chem Inc. Pittsburgh 
 -------------------------------------------------------
 -------------------------------------------------------
 OpenMP BLAS3 based DFT computing Module                
 Release: version 1.0, May 2013, Q-Chem Inc. Pittsburgh 
 -------------------------------------------------------
 A restricted SCF calculation will be
 performed using Roothaan-Hall, DIIS
 SCF converges when DIIS error is below 1.0e-08
 ---------------------------------------
  Cycle       Energy         DIIS error
 ---------------------------------------
    1    -619.9314134512      3.33e-04  Roothaan Step
 ---------------------------------------
  Cycle       Energy         DIIS error
 ---------------------------------------
    1    -620.7593211202      4.05e-04  
    2    -620.7602956424      4.37e-04  
    3    -620.7615908845      8.94e-05  
    4    -620.7616685733      3.16e-05  
    5    -620.7616805237      1.50e-05  
    6    -620.7616829585      4.83e-06  
    7    -620.7616833692      2.21e-06  
    8    -620.7616834391      8.46e-07  
    9    -620.7616834490      3.22e-07  
   10    -620.7616834510      8.68e-08  
   11    -620.7616834512      3.97e-08  
   12    -620.7616834512      1.47e-08  
   13    -620.7616834512      5.02e-09  Convergence criterion met
 ---------------------------------------
 SCF time:   CPU 1155.24s  wall 38.00s 
(3)  G-ENP(liq) elect-nuc-pol free energy of system     -620.761683451 a.u.
(4)  G-CDS(liq) cavity-dispersion-solvent structure 
     free energy                                               -4.1308 kcal/mol
(6)  G-S(liq) free energy of system                     -620.768266291 a.u.
 SCF   energy in the final basis set =     -620.7616834512
 Total energy in the final basis set =     -620.7682662912
 
 --------------------------------------------------------------
 
                    Orbital Energies (a.u.)
 --------------------------------------------------------------
 
 Alpha MOs
 -- Occupied --
-19.2679 -19.2367 -19.2047 -19.1977 -19.1769 -19.1755 -10.4414 -10.4118
-10.3809 -10.3473  -2.1151  -2.0988  -1.2417  -1.1985  -1.1452  -1.0957
 -1.0747  -1.0625  -0.9053  -0.7572  -0.6924  -0.6252  -0.6207  -0.5993
 -0.5892  -0.5690  -0.5639  -0.5527  -0.5517  -0.5269  -0.4933  -0.4768
 -0.4388  -0.4216  -0.4111  -0.4084  -0.3929  -0.3890  -0.3836  -0.3691
 -0.3499
 -- Virtual --
  0.0135   0.0277   0.0306   0.0592   0.0614   0.0617   0.0637   0.0661
  0.0726   0.1135   0.1175   0.1316   0.1332   0.1387   0.1517   0.1617
  0.1660   0.1697   0.1805   0.1821   0.1882   0.1916   0.1937   0.1968
  0.1988   0.2072   0.2105   0.2134   0.2200   0.2257   0.2269   0.2326
  0.2419   0.2569   0.2656   0.2732   0.2772   0.2889   0.2978   0.3069
  0.3118   0.3127   0.3375   0.3470   0.3509   0.3607   0.3668   0.3752
  0.3840   0.3853   0.3913   0.3926   0.4048   0.4132   0.4271   0.4347
  0.4437   0.4470   0.4508   0.4529   0.4637   0.4748   0.4822   0.4930
  0.4966   0.5035   0.5212   0.5240   0.5411   0.5460   0.5525   0.5616
  0.5643   0.5720   0.5752   0.5825   0.5911   0.6004   0.6046   0.6085
  0.6108   0.6241   0.6347   0.6374   0.6395   0.6453   0.6523   0.6578
  0.6597   0.6658   0.6747   0.6876   0.6895   0.6961   0.7163   0.7211
  0.7232   0.7342   0.7363   0.7540   0.7547   0.7584   0.7677   0.7763
  0.7772   0.7797   0.7879   0.7912   0.8075   0.8257   0.8325   0.8334
  0.8462   0.8505   0.8547   0.8796   0.8945   0.9062   0.9113   0.9281
  0.9529   0.9545   0.9580   0.9788   0.9947   1.0035   1.0244   1.0438
  1.0609   1.0898   1.0997   1.1199   1.1301   1.1544   1.1692   1.1859
  1.2152   1.2285   1.2490   1.2751   1.2935   1.3202   1.3514   1.3729
  1.3884   1.4531   1.5485   1.5608   1.5640   1.5773   1.6072   1.6212
  1.6237   1.6419   1.6628   1.6884   1.6920   1.6990   1.7560   1.7586
  1.7797   1.7904   1.7996   1.8232   1.8403   1.8458   1.9094   1.9169
  1.9794   1.9905   2.0261   2.0415   2.0442   2.0568   2.0702   2.0757
  2.0943   2.1022   2.1110   2.1180   2.1216   2.1460   2.2001   2.2249
  2.2353   2.2695   2.2862   2.3320   2.3430   2.3767   2.3879   2.3918
  2.4473   2.4883   2.5578   2.6197   2.6468   2.6730   2.7822   2.9182
  2.9441   2.9590   2.9724   2.9842   2.9987   3.0129   3.0206   3.0318
  3.0366   3.0460   3.0682   3.0706   3.0745   3.1025   3.1257   3.1679
  3.1948   3.2227   3.2935   3.3060   3.3725   3.3806   3.3882   3.4183
  3.4403   3.5239   3.6905   3.8177   3.8442   3.8672   3.9061   3.9414
  3.9831
 --------------------------------------------------------------
 
          Ground-State Mulliken Net Atomic Charges

     Atom                 Charge (a.u.)
  ----------------------------------------
      1 O                    -0.974577
      2 C                     1.189548
      3 O                    -1.006340
      4 O                    -0.686450
      5 C                     0.224583
      6 O                    -0.648236
      7 C                     1.153600
      8 C                     0.438241
      9 O                    -0.945357
     10 O                    -0.954628
     11 Li                    1.047948
     12 Li                    1.058706
     13 H                     0.008041
     14 H                     0.033308
     15 H                     0.029392
     16 H                     0.032220
  ----------------------------------------
  Sum of atomic charges =     0.000000

  Building new vdw surfaces
         Merz-Kollman RESP Net Atomic Charges

     Atom                 Charge (a.u.)
  ----------------------------------------
      1 O                    -0.771431
      2 C                     0.949583
      3 O                    -0.771431
      4 O                    -0.845517
      5 C                     0.979071
      6 O                    -0.845517
      7 C                     0.949583
      8 C                     0.979071
      9 O                    -0.771431
     10 O                    -0.771431
     11 Li                    0.831423
     12 Li                    0.831423
     13 H                    -0.185849
     14 H                    -0.185849
     15 H                    -0.185849
     16 H                    -0.185849
  ----------------------------------------
  Sum of atomic charges =     0.000000

  Related Dipole Moment =     2.0283 (X  0.9494 Y -1.7892 Z  0.1070)

 -----------------------------------------------------------------
                    Cartesian Multipole Moments
 -----------------------------------------------------------------
    Charge (ESU x 10^10)
                 0.0000
    Dipole Moment (Debye)
         X       2.3803      Y      -2.5953      Z       0.0830
       Tot       3.5226
    Quadrupole Moments (Debye-Ang)
        XX      35.3975     XY     -22.0983     YY     -78.8574
        XZ      -1.0306     YZ       0.6283     ZZ     -58.8698
    Octopole Moments (Debye-Ang^2)
       XXX     151.7473    XXY     -76.8199    XYY     -73.3449
       YYY     119.9010    XXZ      -1.2622    XYZ      -0.7195
       YYZ       0.6429    XZZ     -73.0902    YZZ      30.5066
       ZZZ      -0.6185
    Hexadecapole Moments (Debye-Ang^3)
      XXXX    1488.0409   XXXY    -795.9770   XXYY    -450.2204
      XYYY     939.9603   YYYY   -1399.7377   XXXZ     -29.2724
      XXYZ      11.1150   XYYZ      -2.2221   YYYZ       1.3076
      XXZZ    -530.8189   XYZZ     248.3155   YYZZ    -191.6519
      XZZZ       3.0485   YZZZ       0.5679   ZZZZ     -70.3712
 -----------------------------------------------------------------
 Calculating analytic gradient of the SCF energy
 Gradient of CDS energy
            1           2           3           4           5           6
    1  -0.0004748   0.0001255  -0.0002263   0.0008483  -0.0006096  -0.0009920
    2   0.0001001   0.0000729  -0.0000364  -0.0003108  -0.0003207   0.0004036
    3   0.0000064  -0.0000058  -0.0000019  -0.0000120  -0.0000107   0.0000092
            7           8           9          10          11          12
    1   0.0002355   0.0004152   0.0000909   0.0004418  -0.0000119   0.0000183
    2  -0.0002501   0.0002628   0.0000110  -0.0000516   0.0000029  -0.0000020
    3   0.0000071  -0.0000070  -0.0000122  -0.0000088   0.0000098   0.0000130
           13          14          15          16
    1   0.0000167   0.0000129   0.0000409   0.0000685
    2   0.0000727   0.0000720  -0.0000025  -0.0000237
    3   0.0001246  -0.0001110   0.0001497  -0.0001504
 Gradient of SCF Energy
            1           2           3           4           5           6
    1   0.0214814  -0.0172823   0.0212819  -0.0460414   0.0243126  -0.0039042
    2  -0.0088711  -0.0000969   0.0123810   0.0726211  -0.0362341   0.0000140
    3   0.0005713  -0.0013739  -0.0002698  -0.0017561   0.0020156   0.0013803
            7           8           9          10          11          12
    1   0.0186990   0.0029363  -0.0121154  -0.0143665  -0.0167220   0.0123936
    2   0.0103775  -0.0161922  -0.0035602  -0.0023847   0.0007605  -0.0003634
    3  -0.0027140  -0.0014333   0.0012644   0.0012355   0.0001773  -0.0004275
           13          14          15          16
    1   0.0047137   0.0063410  -0.0009879  -0.0007397
    2  -0.0118391  -0.0138710  -0.0010430  -0.0016982
    3   0.0037302  -0.0033212   0.0039304  -0.0030093
 Max gradient component =       7.262E-02
 RMS gradient           =       1.631E-02
 Computing fast CPCM-SWIG gradient
 Updating gradient with PCM contributions...
 -- total gradient after adding PCM contribution --
---------------------------------------------------
  Atom         X              Y              Z     
---------------------------------------------------
   1       0.010323      -0.005921       0.000841
   2      -0.010480       0.002932      -0.001925
   3       0.012399       0.007755       0.000119
   4      -0.041434       0.068673      -0.001717
   5       0.024292      -0.036503       0.002133
   6      -0.004768       0.003150       0.001422
   7       0.015304       0.007684      -0.002589
   8       0.002639      -0.016658      -0.001420
   9      -0.007102      -0.004591       0.001117
  10      -0.007325      -0.001021       0.001103
  11      -0.007163       0.000952      -0.000027
  12       0.003522       0.000105      -0.000272
  13       0.004762      -0.011938       0.003910
  14       0.006384      -0.013951      -0.003590
  15      -0.000823       0.000044       0.002826
  16      -0.000531      -0.000711      -0.001931
---------------------------------------------------
 Number of fixed atoms: 0
 Gradient time:  CPU 187.09 s  wall 9.51 s
 ----------------------------------------------------------------
             Standard Nuclear Orientation (Angstroms)
    I     Atom           X                Y                Z
 ----------------------------------------------------------------
    1      O      -1.9648500000     2.2165800000    -0.0130000000
    2      C      -1.4762200000     1.0485300000     0.0054600000
    3      O      -2.1906300000     0.0131300000     0.0726000000
    4      O      -0.1586500000     0.9791100000    -0.0387100000
    5      C       0.6177000000    -0.8959800000     0.0042900000
    6      O       2.6525500000    -1.9583600000    -0.0077100000
    7      C       4.0160000000    -2.0527100000    -0.0038300000
    8      C       2.1002000000    -0.6530200000    -0.0032700000
    9      O       4.7086800000    -1.0133300000     0.0172700000
   10      O       4.4643700000    -3.2238700000    -0.0073700000
   11      Li     -3.6719700000     1.2886100000     0.0618400000
   12      Li      6.1889000000    -2.2976000000    -0.0164600000
   13      H       0.2365400000    -1.4058800000    -0.8881300000
   14      H       0.2630800000    -1.4179300000     0.9028900000
   15      H       2.4095900000    -0.0832700000    -0.8871700000
   16      H       2.4131500000    -0.1015700000     0.8920100000
 ----------------------------------------------------------------
 Nuclear Repulsion Energy =         551.09415709 hartrees
 There are       41 alpha and       41 beta electrons
 Discretize the solute cavity surface with Lebedev spheres
	Using 110 Lebedev grid points for each H atom
	Using 194 Lebedev grid points for other atoms
	Atomic van der Waals radii will be scaled by 1.20
 Remove points where switching function is < 1.0e-08
 Keep 1181 surface tesserae and discard 1587 interior tesserae
 Molecular Surface Area = 255.399 Angst**2
 Requested basis set is def2-SVPD
 There are 114 shells and 274 basis functions
 A cutoff of  1.0D-14 yielded   5975 shell pairs
 There are     34671 function pairs (     39873 Cartesian)
 Smallest overlap matrix eigenvalue = 3.57E-05
 Guess MOs from SCF MO coefficient file

 -----------------------------------------------------------------------
  General SCF calculation program by
  Eric Jon Sundstrom, Paul Horn, Yuezhi Mao, Dmitri Zuev, Alec White,
  David Stuck, Shaama M.S., Shane Yost, Joonho Lee, David Small,
  Daniel Levine, Susi Lehtola, Hugh Burton, Evgeny Epifanovsky,
  Bang C. Huynh
 -----------------------------------------------------------------------
 Exchange:     0.1670 Hartree-Fock + 1.0000 wB97X-V + LR-HF
 Correlation:  1.0000 wB97X-V
 Using SG-3 standard quadrature grid
 Nonlocal Correlation:  VV10 with C = 0.0100 and b = 6.00 and scale = 1.00000
 Grid used for NLC:  SG-1 standard quadrature
 
 Citation of the SMD model:
 Marenich, A.V.; Cramer, C.J.; Truhlar, D.G.
 J. Phys. Chem. B 2009, 113, 6378-6396.
 iSolventCode=           0
 Solvent: other                                                           
 
 vradii
            1           2           3           4           5           6
    1   2.2940000   1.8500000   2.2940000   2.2940000   1.8500000   2.2940000
            7           8           9          10          11          12
    1   1.8500000   1.8500000   2.2940000   2.2940000   2.1476001   2.1476001
           13          14          15          16
    1   1.2000000   1.2000000   1.2000000   1.2000000
 using 40 threads for integral computing
 -------------------------------------------------------
 OpenMP Integral computing Module                
 Release: version 1.0, May 2013, Q-Chem Inc. Pittsburgh 
 -------------------------------------------------------
 using 40 threads for integral computing
 -------------------------------------------------------
 OpenMP Integral computing Module                
 Release: version 1.0, May 2013, Q-Chem Inc. Pittsburgh 
 -------------------------------------------------------
 -------------------------------------------------------
 OpenMP BLAS3 based DFT computing Module                
 Release: version 1.0, May 2013, Q-Chem Inc. Pittsburgh 
 -------------------------------------------------------
 -------------------------------------------------------
 OpenMP BLAS3 based DFT computing Module                
 Release: version 1.0, May 2013, Q-Chem Inc. Pittsburgh 
 -------------------------------------------------------
 -------------------------------------------------------
 OpenMP BLAS3 based DFT computing Module                
 Release: version 1.0, May 2013, Q-Chem Inc. Pittsburgh 
 -------------------------------------------------------
 A restricted SCF calculation will be
 performed using Roothaan-Hall, DIIS
 SCF converges when DIIS error is below 1.0e-08
 ---------------------------------------
  Cycle       Energy         DIIS error
 ---------------------------------------
    1    -619.9333813296      3.34e-04  Roothaan Step
 ---------------------------------------
  Cycle       Energy         DIIS error
 ---------------------------------------
    1    -620.7593046459      4.07e-04  
    2    -620.7602614003      4.41e-04  
    3    -620.7615821867      8.88e-05  
    4    -620.7616588751      3.14e-05  
    5    -620.7616706935      1.50e-05  
    6    -620.7616731258      4.82e-06  
    7    -620.7616735340      2.20e-06  
    8    -620.7616736035      8.45e-07  
    9    -620.7616736134      3.22e-07  
   10    -620.7616736154      8.66e-08  
   11    -620.7616736156      3.96e-08  
   12    -620.7616736156      1.46e-08  
   13    -620.7616736156      5.00e-09  Convergence criterion met
 ---------------------------------------
 SCF time:   CPU 1157.50s  wall 38.00s 
(3)  G-ENP(liq) elect-nuc-pol free energy of system     -620.761673616 a.u.
(4)  G-CDS(liq) cavity-dispersion-solvent structure 
     free energy                                               -4.1312 kcal/mol
(6)  G-S(liq) free energy of system                     -620.768257159 a.u.
 SCF   energy in the final basis set =     -620.7616736156
 Total energy in the final basis set =     -620.7682571589
 
 --------------------------------------------------------------
 
                    Orbital Energies (a.u.)
 --------------------------------------------------------------
 
 Alpha MOs
 -- Occupied --
-19.2678 -19.2367 -19.2047 -19.1977 -19.1771 -19.1755 -10.4414 -10.4118
-10.3808 -10.3472  -2.1151  -2.0989  -1.2417  -1.1984  -1.1451  -1.0957
 -1.0747  -1.0624  -0.9052  -0.7572  -0.6924  -0.6252  -0.6207  -0.5993
 -0.5892  -0.5690  -0.5639  -0.5527  -0.5517  -0.5268  -0.4933  -0.4768
 -0.4388  -0.4216  -0.4111  -0.4084  -0.3929  -0.3890  -0.3836  -0.3691
 -0.3499
 -- Virtual --
  0.0135   0.0277   0.0306   0.0592   0.0614   0.0617   0.0637   0.0661
  0.0726   0.1136   0.1175   0.1316   0.1332   0.1387   0.1517   0.1617
  0.1660   0.1696   0.1805   0.1821   0.1882   0.1916   0.1937   0.1968
  0.1988   0.2072   0.2105   0.2133   0.2200   0.2257   0.2269   0.2326
  0.2419   0.2569   0.2656   0.2732   0.2772   0.2889   0.2978   0.3070
  0.3118   0.3127   0.3375   0.3470   0.3509   0.3607   0.3669   0.3752
  0.3840   0.3852   0.3914   0.3926   0.4048   0.4132   0.4272   0.4347
  0.4437   0.4470   0.4508   0.4529   0.4637   0.4748   0.4822   0.4930
  0.4966   0.5035   0.5212   0.5240   0.5411   0.5459   0.5525   0.5614
  0.5642   0.5720   0.5752   0.5825   0.5910   0.6003   0.6046   0.6085
  0.6108   0.6242   0.6347   0.6372   0.6393   0.6452   0.6523   0.6578
  0.6596   0.6658   0.6747   0.6875   0.6895   0.6961   0.7163   0.7211
  0.7232   0.7342   0.7363   0.7540   0.7547   0.7584   0.7677   0.7763
  0.7771   0.7797   0.7878   0.7912   0.8075   0.8257   0.8326   0.8334
  0.8461   0.8505   0.8546   0.8796   0.8945   0.9062   0.9113   0.9281
  0.9529   0.9545   0.9579   0.9788   0.9947   1.0034   1.0244   1.0438
  1.0610   1.0898   1.0997   1.1199   1.1302   1.1544   1.1691   1.1859
  1.2152   1.2286   1.2490   1.2751   1.2935   1.3202   1.3514   1.3729
  1.3883   1.4529   1.5485   1.5608   1.5640   1.5772   1.6071   1.6212
  1.6238   1.6419   1.6627   1.6884   1.6920   1.6990   1.7560   1.7583
  1.7797   1.7904   1.7997   1.8233   1.8403   1.8458   1.9094   1.9169
  1.9794   1.9905   2.0261   2.0415   2.0442   2.0568   2.0701   2.0757
  2.0943   2.1021   2.1110   2.1180   2.1216   2.1460   2.2001   2.2248
  2.2353   2.2695   2.2862   2.3319   2.3428   2.3768   2.3878   2.3918
  2.4472   2.4881   2.5577   2.6197   2.6468   2.6730   2.7822   2.9182
  2.9441   2.9590   2.9724   2.9843   2.9986   3.0129   3.0206   3.0317
  3.0366   3.0461   3.0682   3.0706   3.0745   3.1025   3.1256   3.1679
  3.1948   3.2228   3.2932   3.3058   3.3725   3.3806   3.3882   3.4183
  3.4397   3.5238   3.6905   3.8177   3.8432   3.8672   3.9060   3.9414
  3.9831
 --------------------------------------------------------------
 
          Ground-State Mulliken Net Atomic Charges

     Atom                 Charge (a.u.)
  ----------------------------------------
      1 O                    -0.974726
      2 C                     1.188970
      3 O                    -1.006048
      4 O                    -0.686005
      5 C                     0.224535
      6 O                    -0.648224
      7 C                     1.153613
      8 C                     0.438196
      9 O                    -0.945363
     10 O                    -0.954632
     11 Li                    1.048081
     12 Li                    1.058705
     13 H                     0.008031
     14 H                     0.033299
     15 H                     0.029371
     16 H                     0.032197
  ----------------------------------------
  Sum of atomic charges =     0.000000

  Building new vdw surfaces
         Merz-Kollman RESP Net Atomic Charges

     Atom                 Charge (a.u.)
  ----------------------------------------
      1 O                    -0.771214
      2 C                     0.949138
      3 O                    -0.771214
      4 O                    -0.845528
      5 C                     0.979108
      6 O                    -0.845528
      7 C                     0.949138
      8 C                     0.979108
      9 O                    -0.771214
     10 O                    -0.771214
     11 Li                    0.831348
     12 Li                    0.831348
     13 H                    -0.185819
     14 H                    -0.185819
     15 H                    -0.185819
     16 H                    -0.185819
  ----------------------------------------
  Sum of atomic charges =     0.000000

  Related Dipole Moment =     2.0300 (X  0.9457 Y -1.7931 Z  0.1070)

 -----------------------------------------------------------------
                    Cartesian Multipole Moments
 -----------------------------------------------------------------
    Charge (ESU x 10^10)
                 0.0000
    Dipole Moment (Debye)
         X       2.3757      Y      -2.6001      Z       0.0831
       Tot       3.5230
    Quadrupole Moments (Debye-Ang)
        XX      35.4094     XY     -22.0913     YY     -78.8761
        XZ      -1.0308     YZ       0.6281     ZZ     -58.8717
    Octopole Moments (Debye-Ang^2)
       XXX     151.6820    XXY     -76.8272    XYY     -73.3306
       YYY     119.8265    XXZ      -1.2615    XYZ      -0.7192
       YYZ       0.6428    XZZ     -73.0940    YZZ      30.4951
       ZZZ      -0.6182
    Hexadecapole Moments (Debye-Ang^3)
      XXXX    1488.2446   XXXY    -795.9585   XXYY    -450.2680
      XYYY     940.0599   YYYY   -1400.0809   XXXZ     -29.2741
      XXYZ      11.1144   XYYZ      -2.2216   YYYZ       1.3071
      XXZZ    -530.8029   XYZZ     248.3275   YYZZ    -191.6930
      XZZZ       3.0480   YZZZ       0.5679   ZZZZ     -70.3754
 -----------------------------------------------------------------
 Calculating analytic gradient of the SCF energy
 Gradient of CDS energy
            1           2           3           4           5           6
    1  -0.0004744   0.0001257  -0.0002263   0.0008480  -0.0006096  -0.0009920
    2   0.0001048   0.0000675  -0.0000364  -0.0003097  -0.0003207   0.0004036
    3   0.0000062  -0.0000057  -0.0000019  -0.0000120  -0.0000107   0.0000092
            7           8           9          10          11          12
    1   0.0002355   0.0004152   0.0000909   0.0004418  -0.0000121   0.0000183
    2  -0.0002501   0.0002628   0.0000110  -0.0000516   0.0000026  -0.0000020
    3   0.0000071  -0.0000070  -0.0000122  -0.0000088   0.0000099   0.0000130
           13          14          15          16
    1   0.0000167   0.0000129   0.0000409   0.0000685
    2   0.0000727   0.0000720  -0.0000025  -0.0000237
    3   0.0001246  -0.0001110   0.0001497  -0.0001504
 Gradient of SCF Energy
            1           2           3           4           5           6
    1   0.0215415  -0.0173130   0.0213240  -0.0460564   0.0243171  -0.0039119
    2  -0.0080672  -0.0006721   0.0121168   0.0727147  -0.0362482   0.0000147
    3   0.0005476  -0.0013649  -0.0002578  -0.0017565   0.0020164   0.0013803
            7           8           9          10          11          12
    1   0.0187037   0.0029427  -0.0121181  -0.0143690  -0.0167727   0.0123940
    2   0.0103780  -0.0161837  -0.0035614  -0.0023818   0.0007021  -0.0003639
    3  -0.0027139  -0.0014332   0.0012644   0.0012355   0.0001796  -0.0004275
           13          14          15          16
    1   0.0047101   0.0063376  -0.0009888  -0.0007407
    2  -0.0118359  -0.0138682  -0.0010444  -0.0016995
    3   0.0037277  -0.0033186   0.0039338  -0.0030127
 Max gradient component =       7.271E-02
 RMS gradient           =       1.631E-02
 Computing fast CPCM-SWIG gradient
 Updating gradient with PCM contributions...
 -- total gradient after adding PCM contribution --
---------------------------------------------------
  Atom         X              Y              Z     
---------------------------------------------------
   1       0.010394      -0.005132       0.000818
   2      -0.010520       0.002362      -0.001917
   3       0.012441       0.007484       0.000132
   4      -0.041457       0.068775      -0.001717
   5       0.024295      -0.036519       0.002134
   6      -0.004776       0.003151       0.001422
   7       0.015309       0.007684      -0.002588
   8       0.002644      -0.016652      -0.001420
   9      -0.007103      -0.004591       0.001116
  10      -0.007326      -0.001019       0.001103
  11      -0.007210       0.000901      -0.000025
  12       0.003523       0.000105      -0.000272
  13       0.004759      -0.011934       0.003910
  14       0.006381      -0.013948      -0.003590
  15      -0.000824       0.000044       0.002826
  16      -0.000531      -0.000711      -0.001931
---------------------------------------------------
 Number of fixed atoms: 0
 Gradient time:  CPU 187.30 s  wall 9.54 s
 ----------------------------------------------------------------
             Standard Nuclear Orientation (Angstroms)
    I     Atom           X                Y                Z
 ----------------------------------------------------------------
    1      O      -1.9648500000     2.2145800000    -0.0130000000
    2      C      -1.4762200000     1.0485300000     0.0054600000
    3      O      -2.1906300000     0.0131300000     0.0726000000
    4      O      -0.1586500000     0.9791100000    -0.0387100000
    5      C       0.6177000000    -0.8959800000     0.0042900000
    6      O       2.6525500000    -1.9583600000    -0.0077100000
    7      C       4.0160000000    -2.0527100000    -0.0038300000
    8      C       2.1002000000    -0.6530200000    -0.0032700000
    9      O       4.7086800000    -1.0133300000     0.0172700000
   10      O       4.4643700000    -3.2238700000    -0.0073700000
   11      Li     -3.6719700000     1.2886100000     0.0618400000
   12      Li      6.1889000000    -2.2976000000    -0.0164600000
   13      H       0.2365400000    -1.4058800000    -0.8881300000
   14      H       0.2630800000    -1.4179300000     0.9028900000
   15      H       2.4095900000    -0.0832700000    -0.8871700000
   16      H       2.4131500000    -0.1015700000     0.8920100000
 ----------------------------------------------------------------
 Nuclear Repulsion Energy =         551.15597130 hartrees
 There are       41 alpha and       41 beta electrons
 Discretize the solute cavity surface with Lebedev spheres
	Using 110 Lebedev grid points for each H atom
	Using 194 Lebedev grid points for other atoms
	Atomic van der Waals radii will be scaled by 1.20
 Remove points where switching function is < 1.0e-08
 Keep 1181 surface tesserae and discard 1587 interior tesserae
 Molecular Surface Area = 255.378 Angst**2
 Requested basis set is def2-SVPD
 There are 114 shells and 274 basis functions
 A cutoff of  1.0D-14 yielded   5975 shell pairs
 There are     34671 function pairs (     39873 Cartesian)
 Smallest overlap matrix eigenvalue = 3.57E-05
 Guess MOs from SCF MO coefficient file

 -----------------------------------------------------------------------
  General SCF calculation program by
  Eric Jon Sundstrom, Paul Horn, Yuezhi Mao, Dmitri Zuev, Alec White,
  David Stuck, Shaama M.S., Shane Yost, Joonho Lee, David Small,
  Daniel Levine, Susi Lehtola, Hugh Burton, Evgeny Epifanovsky,
  Bang C. Huynh
 -----------------------------------------------------------------------
 Exchange:     0.1670 Hartree-Fock + 1.0000 wB97X-V + LR-HF
 Correlation:  1.0000 wB97X-V
 Using SG-3 standard quadrature grid
 Nonlocal Correlation:  VV10 with C = 0.0100 and b = 6.00 and scale = 1.00000
 Grid used for NLC:  SG-1 standard quadrature
 
 Citation of the SMD model:
 Marenich, A.V.; Cramer, C.J.; Truhlar, D.G.
 J. Phys. Chem. B 2009, 113, 6378-6396.
 iSolventCode=           0
 Solvent: other                                                           
 
 vradii
            1           2           3           4           5           6
    1   2.2940000   1.8500000   2.2940000   2.2940000   1.8500000   2.2940000
            7           8           9          10          11          12
    1   1.8500000   1.8500000   2.2940000   2.2940000   2.1476001   2.1476001
           13          14          15          16
    1   1.2000000   1.2000000   1.2000000   1.2000000
 using 40 threads for integral computing
 -------------------------------------------------------
 OpenMP Integral computing Module                
 Release: version 1.0, May 2013, Q-Chem Inc. Pittsburgh 
 -------------------------------------------------------
 using 40 threads for integral computing
 -------------------------------------------------------
 OpenMP Integral computing Module                
 Release: version 1.0, May 2013, Q-Chem Inc. Pittsburgh 
 -------------------------------------------------------
 -------------------------------------------------------
 OpenMP BLAS3 based DFT computing Module                
 Release: version 1.0, May 2013, Q-Chem Inc. Pittsburgh 
 -------------------------------------------------------
 -------------------------------------------------------
 OpenMP BLAS3 based DFT computing Module                
 Release: version 1.0, May 2013, Q-Chem Inc. Pittsburgh 
 -------------------------------------------------------
 -------------------------------------------------------
 OpenMP BLAS3 based DFT computing Module                
 Release: version 1.0, May 2013, Q-Chem Inc. Pittsburgh 
 -------------------------------------------------------
 A restricted SCF calculation will be
 performed using Roothaan-Hall, DIIS
 SCF converges when DIIS error is below 1.0e-08
 ---------------------------------------
  Cycle       Energy         DIIS error
 ---------------------------------------
    1    -619.9332676034      3.34e-04  Roothaan Step
 ---------------------------------------
  Cycle       Energy         DIIS error
 ---------------------------------------
    1    -620.7592898501      4.06e-04  
    2    -620.7602516537      4.38e-04  
    3    -620.7615579941      8.90e-05  
    4    -620.7616350384      3.13e-05  
    5    -620.7616468053      1.50e-05  
    6    -620.7616492152      4.77e-06  
    7    -620.7616496182      2.20e-06  
    8    -620.7616496863      8.42e-07  
    9    -620.7616496961      3.20e-07  
   10    -620.7616496980      8.60e-08  
   11    -620.7616496982      3.97e-08  
   12    -620.7616496982      1.45e-08  
   13    -620.7616496982      4.97e-09  Convergence criterion met
 ---------------------------------------
 SCF time:   CPU 1153.07s  wall 38.00s 
(3)  G-ENP(liq) elect-nuc-pol free energy of system     -620.761649698 a.u.
(4)  G-CDS(liq) cavity-dispersion-solvent structure 
     free energy                                               -4.1315 kcal/mol
(6)  G-S(liq) free energy of system                     -620.768233614 a.u.
 SCF   energy in the final basis set =     -620.7616496982
 Total energy in the final basis set =     -620.7682336137
 
 --------------------------------------------------------------
 
                    Orbital Energies (a.u.)
 --------------------------------------------------------------
 
 Alpha MOs
 -- Occupied --
-19.2678 -19.2365 -19.2047 -19.1977 -19.1768 -19.1755 -10.4413 -10.4116
-10.3808 -10.3472  -2.1151  -2.0989  -1.2417  -1.1987  -1.1451  -1.0957
 -1.0746  -1.0628  -0.9052  -0.7572  -0.6923  -0.6252  -0.6206  -0.5993
 -0.5892  -0.5690  -0.5639  -0.5528  -0.5518  -0.5268  -0.4932  -0.4768
 -0.4388  -0.4216  -0.4111  -0.4084  -0.3928  -0.3890  -0.3836  -0.3692
 -0.3498
 -- Virtual --
  0.0136   0.0277   0.0306   0.0592   0.0614   0.0617   0.0637   0.0661
  0.0725   0.1136   0.1175   0.1316   0.1332   0.1387   0.1517   0.1617
  0.1661   0.1698   0.1805   0.1822   0.1882   0.1916   0.1937   0.1968
  0.1988   0.2072   0.2105   0.2135   0.2200   0.2257   0.2269   0.2326
  0.2419   0.2570   0.2656   0.2732   0.2772   0.2889   0.2978   0.3070
  0.3118   0.3127   0.3376   0.3470   0.3509   0.3607   0.3669   0.3752
  0.3840   0.3853   0.3914   0.3927   0.4048   0.4132   0.4272   0.4348
  0.4437   0.4470   0.4508   0.4530   0.4638   0.4748   0.4822   0.4930
  0.4967   0.5035   0.5212   0.5241   0.5411   0.5462   0.5526   0.5617
  0.5643   0.5721   0.5752   0.5825   0.5911   0.6004   0.6046   0.6085
  0.6108   0.6242   0.6347   0.6376   0.6395   0.6453   0.6525   0.6578
  0.6597   0.6658   0.6747   0.6876   0.6895   0.6962   0.7163   0.7212
  0.7232   0.7343   0.7364   0.7540   0.7548   0.7584   0.7678   0.7763
  0.7772   0.7798   0.7879   0.7913   0.8076   0.8257   0.8326   0.8336
  0.8462   0.8506   0.8547   0.8797   0.8945   0.9062   0.9114   0.9281
  0.9530   0.9546   0.9581   0.9789   0.9947   1.0036   1.0244   1.0440
  1.0609   1.0899   1.0998   1.1199   1.1302   1.1544   1.1692   1.1860
  1.2152   1.2285   1.2490   1.2751   1.2935   1.3203   1.3514   1.3730
  1.3884   1.4531   1.5485   1.5609   1.5640   1.5775   1.6073   1.6214
  1.6237   1.6418   1.6627   1.6884   1.6920   1.6990   1.7560   1.7587
  1.7797   1.7905   1.7997   1.8232   1.8404   1.8460   1.9094   1.9170
  1.9795   1.9905   2.0261   2.0415   2.0442   2.0568   2.0701   2.0756
  2.0943   2.1021   2.1110   2.1180   2.1216   2.1460   2.2002   2.2252
  2.2354   2.2695   2.2862   2.3322   2.3436   2.3771   2.3880   2.3918
  2.4476   2.4885   2.5579   2.6197   2.6468   2.6730   2.7822   2.9182
  2.9441   2.9590   2.9724   2.9840   2.9988   3.0129   3.0206   3.0319
  3.0366   3.0460   3.0684   3.0708   3.0746   3.1026   3.1259   3.1679
  3.1948   3.2228   3.2938   3.3062   3.3735   3.3806   3.3882   3.4183
  3.4411   3.5250   3.6906   3.8177   3.8452   3.8672   3.9065   3.9426
  3.9831
 --------------------------------------------------------------
 
          Ground-State Mulliken Net Atomic Charges

     Atom                 Charge (a.u.)
  ----------------------------------------
      1 O                    -0.972957
      2 C                     1.188927
      3 O                    -1.006928
      4 O                    -0.686622
      5 C                     0.224658
      6 O                    -0.648216
      7 C                     1.153619
      8 C                     0.438232
      9 O                    -0.945375
     10 O                    -0.954644
     11 Li                    1.047991
     12 Li                    1.058704
     13 H                     0.007925
     14 H                     0.033197
     15 H                     0.029330
     16 H                     0.032158
  ----------------------------------------
  Sum of atomic charges =     0.000000

  Building new vdw surfaces
         Merz-Kollman RESP Net Atomic Charges

     Atom                 Charge (a.u.)
  ----------------------------------------
      1 O                    -0.771458
      2 C                     0.949384
      3 O                    -0.771458
      4 O                    -0.843878
      5 C                     0.975645
      6 O                    -0.843878
      7 C                     0.949384
      8 C                     0.975645
      9 O                    -0.771458
     10 O                    -0.771458
     11 Li                    0.831519
     12 Li                    0.831519
     13 H                    -0.184878
     14 H                    -0.184878
     15 H                    -0.184878
     16 H                    -0.184878
  ----------------------------------------
  Sum of atomic charges =     0.000000

  Related Dipole Moment =     2.0183 (X  0.9435 Y -1.7810 Z  0.1067)

 -----------------------------------------------------------------
                    Cartesian Multipole Moments
 -----------------------------------------------------------------
    Charge (ESU x 10^10)
                 0.0000
    Dipole Moment (Debye)
         X       2.3707      Y      -2.5816      Z       0.0828
       Tot       3.5060
    Quadrupole Moments (Debye-Ang)
        XX      35.4144     XY     -22.1285     YY     -78.8268
        XZ      -1.0300     YZ       0.6282     ZZ     -58.8674
    Octopole Moments (Debye-Ang^2)
       XXX     151.6276    XXY     -76.7121    XYY     -73.4457
       YYY     120.0394    XXZ      -1.2637    XYZ      -0.7192
       YYZ       0.6427    XZZ     -73.1074    YZZ      30.5278
       ZZZ      -0.6191
    Hexadecapole Moments (Debye-Ang^3)
      XXXX    1488.2698   XXXY    -796.2632   XXYY    -449.9767
      XYYY     939.6578   YYYY   -1399.2766   XXXZ     -29.2681
      XXYZ      11.1140   XYYZ      -2.2212   YYYZ       1.3069
      XXZZ    -530.7819   XYZZ     248.2631   YYZZ    -191.5974
      XZZZ       3.0502   YZZZ       0.5675   ZZZZ     -70.3664
 -----------------------------------------------------------------
 Calculating analytic gradient of the SCF energy
 Gradient of CDS energy
            1           2           3           4           5           6
    1  -0.0004712   0.0001219  -0.0002263   0.0008481  -0.0006096  -0.0009920
    2   0.0000923   0.0000798  -0.0000364  -0.0003100  -0.0003207   0.0004036
    3   0.0000065  -0.0000058  -0.0000019  -0.0000120  -0.0000107   0.0000092
            7           8           9          10          11          12
    1   0.0002355   0.0004152   0.0000909   0.0004418  -0.0000116   0.0000183
    2  -0.0002501   0.0002628   0.0000110  -0.0000516   0.0000030  -0.0000020
    3   0.0000071  -0.0000070  -0.0000122  -0.0000088   0.0000098   0.0000130
           13          14          15          16
    1   0.0000167   0.0000129   0.0000409   0.0000685
    2   0.0000727   0.0000720  -0.0000025  -0.0000237
    3   0.0001246  -0.0001110   0.0001497  -0.0001504
 Gradient of SCF Energy
            1           2           3           4           5           6
    1   0.0221614  -0.0178036   0.0213768  -0.0462802   0.0243303  -0.0039230
    2  -0.0103083   0.0009697   0.0125556   0.0728082  -0.0363193   0.0000118
    3   0.0005935  -0.0013900  -0.0002786  -0.0017536   0.0020165   0.0013803
            7           8           9          10          11          12
    1   0.0187181   0.0029529  -0.0121286  -0.0143796  -0.0167381   0.0123961
    2   0.0103838  -0.0161590  -0.0035707  -0.0023717   0.0007955  -0.0003636
    3  -0.0027137  -0.0014325   0.0012642   0.0012355   0.0001766  -0.0004276
           13          14          15          16
[...]

 Mode:                16                     17                     18
 Frequency:       507.13                 619.51                 670.84
 Force Cnst:      1.1125                 1.8259                 3.6559
 Red. Mass:       7.3423                 8.0746                13.7883
 IR Active:          YES                    YES                    YES
 IR Intens:       68.775                 28.219                 19.910
 Raman Active:       YES                    YES                    YES
               X      Y      Z        X      Y      Z        X      Y      Z
 O          0.048 -0.012 -0.000   -0.028  0.032  0.000    0.557 -0.115 -0.015
 C          0.060 -0.000 -0.002    0.007  0.037 -0.002   -0.057 -0.278  0.011
 O          0.067  0.003 -0.002    0.080 -0.003 -0.003   -0.282 -0.228  0.019
 O          0.077 -0.020 -0.002   -0.014 -0.060  0.002   -0.089  0.552 -0.019
 C          0.081 -0.077  0.002   -0.072 -0.074  0.004   -0.027  0.001  0.008
 O         -0.131  0.034  0.000   -0.037  0.219  0.002   -0.023  0.042 -0.000
 C         -0.091 -0.007 -0.000   -0.024 -0.211 -0.003   -0.014 -0.025 -0.001
 C          0.010  0.080  0.001   -0.126  0.349  0.001   -0.090  0.043  0.001
 O         -0.171  0.021  0.001   -0.184 -0.163 -0.003   -0.007 -0.040 -0.000
 O         -0.093  0.009  0.002    0.432 -0.113  0.001    0.074 -0.005  0.000
 Li        -0.457  0.045  0.011   -0.027  0.015  0.000   -0.112 -0.075  0.005
 Li         0.775 -0.104 -0.007   -0.118 -0.054  0.001   -0.014 -0.004  0.000
 H          0.136 -0.108 -0.005    0.038 -0.138 -0.009   -0.144  0.166 -0.030
 H          0.140 -0.126 -0.002    0.040 -0.177 -0.006   -0.113  0.078  0.016
 H          0.006  0.071 -0.006   -0.247  0.382 -0.017   -0.140  0.060 -0.004
 H          0.012  0.073  0.004   -0.229  0.390  0.009   -0.127  0.063  0.002
 TransDip   0.254 -0.078  0.002   -0.160  0.059  0.000   -0.142  0.012  0.003

 Mode:                19                     20                     21
 Frequency:       737.34                 745.51                 752.54
 Force Cnst:      3.3323                 0.4145                 2.7901
 Red. Mass:      10.4028                 1.2658                 8.3619
 IR Active:          YES                    YES                    YES
 IR Intens:       28.315                  1.336                  2.174
 Raman Active:       YES                    YES                    YES
               X      Y      Z        X      Y      Z        X      Y      Z
 O         -0.212 -0.362  0.016   -0.016 -0.025  0.010    0.008  0.007  0.004
 C          0.255 -0.091 -0.000    0.019 -0.006 -0.018   -0.015 -0.001 -0.009
 O         -0.339  0.313  0.002   -0.021  0.023  0.001    0.003 -0.012  0.001
 O          0.392  0.127  0.004    0.026  0.002 -0.040   -0.010  0.007 -0.022
 C         -0.005 -0.038 -0.058    0.007  0.002  0.108   -0.107  0.033  0.061
 O          0.022  0.054  0.005   -0.032 -0.012 -0.010    0.388  0.144 -0.003
 C          0.006 -0.021  0.006   -0.016  0.008 -0.014    0.212 -0.091 -0.006
 C         -0.057  0.009 -0.012   -0.006  0.004  0.026    0.017 -0.063  0.014
 O         -0.035 -0.004 -0.003    0.025 -0.020  0.004   -0.291  0.242  0.003
 O          0.025 -0.026 -0.002    0.013  0.025  0.004   -0.151 -0.312 -0.002
 Li         0.062 -0.020  0.000    0.004 -0.001 -0.001    0.004 -0.002 -0.001
 Li        -0.000 -0.001 -0.000   -0.004  0.001 -0.001    0.035 -0.014 -0.001
 H         -0.104 -0.270  0.106    0.067  0.589 -0.229   -0.200  0.456 -0.125
 H         -0.069  0.377  0.141   -0.042 -0.588 -0.228   -0.263 -0.211 -0.130
 H         -0.020  0.111  0.068   -0.233 -0.126 -0.137   -0.256 -0.019 -0.056
 H         -0.255 -0.011  0.070    0.239  0.117 -0.130    0.013  0.127 -0.098
 TransDip   0.160 -0.058  0.001    0.018 -0.006 -0.032    0.044  0.017 -0.006

 Mode:                22                     23                     24
 Frequency:       827.33                 839.98                 842.49
 Force Cnst:      0.9100                 0.8430                 2.3370
 Red. Mass:       2.2566                 2.0278                 5.5882
 IR Active:          YES                    YES                    YES
 IR Intens:       33.332                 31.513                 24.373
 Raman Active:       YES                    YES                    YES
               X      Y      Z        X      Y      Z        X      Y      Z
 O         -0.001 -0.001  0.010   -0.001 -0.000 -0.043   -0.007 -0.006 -0.146
 C          0.001 -0.001 -0.032    0.004  0.005  0.148    0.023  0.019  0.551
 O          0.000  0.002  0.007   -0.002 -0.003 -0.037   -0.007 -0.005 -0.154
 O          0.000 -0.003 -0.019   -0.001  0.002 -0.012   -0.002 -0.006 -0.143
 C         -0.001  0.003  0.024    0.001 -0.002 -0.010   -0.001  0.002  0.015
 O         -0.001 -0.000 -0.045   -0.001  0.000 -0.059    0.000  0.000  0.035
 C         -0.001 -0.003  0.295   -0.002 -0.002  0.223    0.001  0.001 -0.125
 C         -0.001  0.001 -0.054   -0.000  0.000  0.039   -0.000 -0.000 -0.032
 O          0.002  0.002 -0.082    0.001  0.002 -0.062   -0.001 -0.001  0.037
 O          0.001 -0.001 -0.083    0.001 -0.000 -0.060   -0.000  0.000  0.031
 Li        -0.000  0.000 -0.000    0.000  0.000  0.007    0.000  0.001  0.022
 Li         0.000 -0.000  0.012    0.000 -0.000  0.009   -0.000  0.000 -0.004
 H         -0.480  0.278  0.092    0.503 -0.227 -0.116   -0.407  0.232  0.076
 H          0.478 -0.269  0.078   -0.500  0.218 -0.102    0.401 -0.220  0.065
 H          0.260  0.201  0.171   -0.307 -0.148 -0.172    0.231  0.121  0.133
 H         -0.255 -0.200  0.165    0.301  0.149 -0.166   -0.228 -0.121  0.128
 TransDip   0.003  0.002  0.185   -0.001 -0.001  0.180    0.009  0.009  0.158

 Mode:                25                     26                     27
 Frequency:       998.40                1102.83                1138.22
 Force Cnst:      4.9924                 3.7450                 1.8317
 Red. Mass:       8.5006                 5.2262                 2.3996
 IR Active:          YES                    YES                    YES
 IR Intens:       66.159                182.488                445.676
 Raman Active:       YES                    YES                    YES
               X      Y      Z        X      Y      Z        X      Y      Z
 O          0.005 -0.018  0.000   -0.077  0.234 -0.005   -0.003  0.014 -0.000
 C          0.013 -0.003  0.000   -0.158  0.017  0.003    0.032 -0.003 -0.002
 O          0.002  0.014 -0.001   -0.130 -0.228  0.013    0.003 -0.005  0.000
 O         -0.004  0.011  0.000    0.310  0.011 -0.012   -0.033 -0.036  0.002
 C          0.042  0.029  0.000    0.098  0.085  0.002    0.211 -0.013 -0.003
 O         -0.275 -0.271 -0.001    0.039  0.018  0.001   -0.124  0.121  0.000
 C          0.313 -0.014 -0.005   -0.014  0.004  0.000    0.061 -0.010 -0.000
 C         -0.171  0.282 -0.001   -0.151 -0.080 -0.001   -0.047 -0.157  0.000
 O          0.137  0.317  0.006   -0.014 -0.018 -0.000    0.012  0.025  0.000
 O         -0.019 -0.275 -0.001    0.003  0.001 -0.000    0.031 -0.047 -0.000
 Li        -0.002  0.000  0.000    0.031 -0.003 -0.001   -0.008  0.001  0.000
 Li        -0.049  0.008  0.000    0.004  0.000 -0.000   -0.015  0.001  0.000
 H          0.349 -0.225  0.006    0.450 -0.248  0.032   -0.189  0.520 -0.094
 H          0.344 -0.205 -0.008    0.462 -0.258 -0.039   -0.187  0.519  0.102
 H         -0.123  0.213 -0.024   -0.276 -0.023 -0.001   -0.359 -0.011 -0.017
 H         -0.117  0.182  0.035   -0.273 -0.035  0.009   -0.356 -0.011  0.021
 TransDip   0.259  0.027 -0.001   -0.373  0.220  0.003    0.576 -0.354  0.001

 Mode:                28                     29                     30
 Frequency:      1148.65                1169.21                1172.11
 Force Cnst:      1.9898                 1.7373                 1.4127
 Red. Mass:       2.5597                 2.1569                 1.7453
 IR Active:          YES                    YES                    YES
 IR Intens:      128.517                 11.521                  9.633
 Raman Active:       YES                    YES                    YES
               X      Y      Z        X      Y      Z        X      Y      Z
 O         -0.031  0.101 -0.002    0.008 -0.026  0.000   -0.004  0.012 -0.000
 C          0.003  0.004 -0.001   -0.017  0.001  0.001    0.009 -0.000 -0.001
 O         -0.068 -0.109  0.007    0.014  0.024 -0.001   -0.005 -0.010  0.001
 O          0.114 -0.010 -0.004   -0.010  0.020 -0.000    0.002 -0.012  0.000
 C         -0.113 -0.126 -0.004   -0.075  0.042 -0.056    0.046 -0.019 -0.086
 O         -0.099  0.023 -0.003   -0.107  0.146 -0.037    0.064 -0.085 -0.052
 C          0.028 -0.007 -0.000    0.037 -0.008  0.003   -0.022  0.005  0.004
 C          0.181  0.063  0.008    0.050 -0.143  0.114   -0.035  0.081  0.163
 O          0.029  0.045  0.001    0.015  0.036 -0.001   -0.009 -0.021 -0.003
 O          0.011 -0.030 -0.000    0.032 -0.053  0.000   -0.019  0.030  0.001
 Li        -0.002 -0.000  0.000    0.004 -0.000  0.000   -0.002  0.000  0.000
 Li        -0.006  0.001  0.000   -0.009  0.000  0.000    0.005 -0.000 -0.000
 H         -0.549  0.218 -0.010   -0.018 -0.378  0.134   -0.452  0.161  0.044
 H         -0.518  0.211  0.024    0.462 -0.331 -0.026    0.245  0.226  0.122
 H          0.326 -0.006  0.004    0.217 -0.527 -0.075   -0.151 -0.402 -0.173
 H          0.327  0.053 -0.026    0.205  0.191 -0.132   -0.118  0.583 -0.113
 TransDip   0.282 -0.229  0.003    0.057 -0.088  0.031   -0.051  0.069  0.050

 Mode:                31                     32                     33
 Frequency:      1269.99                1375.30                1439.71
 Force Cnst:      1.0502                 1.8226                 3.9609
 Red. Mass:       1.1052                 1.6355                 3.2433
 IR Active:          YES                    YES                    YES
 IR Intens:        3.557                181.204               1224.470
 Raman Active:       YES                    YES                    YES
               X      Y      Z        X      Y      Z        X      Y      Z
 O         -0.000  0.001  0.000    0.003 -0.005  0.000   -0.022  0.043 -0.001
 C          0.001 -0.000 -0.000   -0.009  0.002  0.000    0.121 -0.021 -0.004
 O         -0.000 -0.001 -0.000    0.002  0.002 -0.000   -0.030 -0.033  0.002
 O          0.000 -0.000 -0.001    0.002  0.007 -0.000   -0.029 -0.000  0.001
 C          0.003 -0.001  0.081   -0.027  0.043  0.002   -0.068 -0.034 -0.001
 O          0.002 -0.002 -0.033   -0.040 -0.028 -0.001   -0.032  0.012 -0.000
 C         -0.001  0.000 -0.001    0.115 -0.022  0.001    0.311 -0.045  0.003
 C         -0.005  0.003 -0.027    0.157 -0.038 -0.001   -0.079 -0.003  0.001
 O          0.000  0.000 -0.000   -0.033 -0.043 -0.001   -0.102 -0.122 -0.003
 O         -0.000 -0.000  0.001   -0.030  0.066  0.000   -0.070  0.142  0.000
 Li        -0.000 -0.000 -0.000    0.001 -0.000  0.000   -0.011  0.001  0.000
 Li         0.000  0.000  0.000   -0.011  0.000  0.000   -0.024  0.002  0.000
 H          0.258  0.049 -0.052   -0.115 -0.254  0.185    0.345  0.233 -0.314
 H         -0.259 -0.030 -0.037   -0.129 -0.257 -0.186    0.357  0.238  0.309
 H          0.582 -0.306 -0.010   -0.465  0.348  0.013    0.323  0.032  0.153
 H         -0.572  0.302 -0.004   -0.493  0.369 -0.008    0.334  0.033 -0.154
 TransDip  -0.004  0.005  0.060    0.400 -0.160  0.003    1.067 -0.344 -0.003

 Mode:                34                     35                     36
 Frequency:      1470.30                1483.93                1496.54
 Force Cnst:      1.8509                 3.0588                 2.3592
 Red. Mass:       1.4532                 2.3576                 1.7879
 IR Active:          YES                    YES                    YES
 IR Intens:       14.709                637.480                104.847
 Raman Active:       YES                    YES                    YES
               X      Y      Z        X      Y      Z        X      Y      Z
 O          0.001 -0.003  0.000   -0.052  0.098 -0.001   -0.033  0.062 -0.001
 C         -0.011  0.000  0.000    0.275 -0.064 -0.008    0.168 -0.045 -0.005
 O          0.003  0.004 -0.000   -0.060 -0.059  0.005   -0.035 -0.033  0.003
 O          0.000 -0.004  0.000   -0.083  0.005  0.003   -0.053  0.004  0.002
 C          0.128  0.037 -0.001    0.007  0.053  0.000   -0.007  0.019 -0.001
 O          0.002  0.007  0.000    0.012  0.008  0.000    0.018 -0.015 -0.000
 C          0.069 -0.005  0.001   -0.007  0.004 -0.000   -0.107  0.016 -0.001
 C         -0.121  0.005  0.001    0.022  0.053 -0.001   -0.020 -0.085  0.001
 O         -0.024 -0.029 -0.001   -0.001 -0.000 -0.000    0.033  0.036  0.001
 O         -0.013  0.026  0.000    0.002 -0.004  0.000    0.023 -0.043 -0.000
 Li         0.001 -0.000 -0.000   -0.021  0.000  0.001   -0.012 -0.000  0.000
 Li        -0.005  0.001  0.000    0.000  0.000 -0.000    0.007 -0.000 -0.000
 H         -0.411 -0.244  0.379   -0.056 -0.206  0.162    0.074 -0.040 -0.006
 H         -0.419 -0.245 -0.371   -0.063 -0.204 -0.162    0.078 -0.038  0.004
 H          0.290  0.005  0.144   -0.187 -0.438 -0.371    0.115  0.514  0.418
 H          0.296  0.009 -0.146   -0.190 -0.454  0.368    0.119  0.532 -0.413
 TransDip   0.113 -0.049  0.002    0.704 -0.398 -0.016    0.304 -0.124 -0.009

 Mode:                37                     38                     39
 Frequency:      1648.23                1725.53                3124.26
 Force Cnst:     20.4298                22.5711                 6.0931
 Red. Mass:      12.7638                12.8664                 1.0595
 IR Active:          YES                    YES                    YES
 IR Intens:      801.182                908.806                 13.000
 Raman Active:       YES                    YES                    YES
               X      Y      Z        X      Y      Z        X      Y      Z
 O          0.087 -0.295  0.006    0.000  0.001 -0.000   -0.000  0.000  0.000
 C          0.188  0.844 -0.037   -0.006 -0.007  0.000    0.000  0.000 -0.000
 O         -0.180 -0.316  0.019    0.002  0.003 -0.000   -0.000 -0.000 -0.000
 O         -0.057 -0.043  0.004    0.003  0.001 -0.000   -0.000  0.000  0.000
 C          0.010  0.024 -0.000   -0.014 -0.009  0.000    0.005  0.003  0.000
 O          0.010 -0.001  0.000   -0.030 -0.052 -0.000    0.001 -0.001 -0.000
 C         -0.015  0.011 -0.000    0.116  0.866  0.010   -0.002 -0.001 -0.000
 C         -0.011 -0.015  0.000    0.044  0.004 -0.000   -0.036 -0.057 -0.008
 O          0.002  0.000 -0.000   -0.164 -0.307 -0.006    0.000  0.001  0.000
 O          0.004 -0.008  0.000    0.082 -0.312 -0.001    0.000 -0.000 -0.000
 Li        -0.003  0.044 -0.001    0.000 -0.000  0.000    0.000  0.000 -0.000
 Li         0.001  0.001 -0.000    0.003  0.044  0.000   -0.000 -0.000  0.000
 H          0.051 -0.056  0.034   -0.010  0.003 -0.012   -0.012 -0.018 -0.036
 H          0.048 -0.051 -0.035   -0.009  0.003  0.012   -0.011 -0.016  0.033
 H         -0.006  0.011  0.021    0.000  0.035 -0.014    0.182  0.326 -0.533
 H         -0.006  0.012 -0.021    0.002  0.035  0.014    0.214  0.366  0.623
 TransDip   0.301  0.854 -0.040    0.117  0.958  0.012   -0.011 -0.114 -0.011

 Mode:                40                     41                     42
 Frequency:      3155.20                3188.46                3245.92
 Force Cnst:      6.2158                 6.6528                 6.9240
 Red. Mass:       1.0597                 1.1107                 1.1154
 IR Active:          YES                    YES                    YES
 IR Intens:        1.592                 14.135                  0.703
 Raman Active:       YES                    YES                    YES
               X      Y      Z        X      Y      Z        X      Y      Z
 O         -0.000 -0.000  0.000    0.000 -0.000 -0.000    0.000  0.000  0.000
 C          0.000  0.001 -0.000   -0.000  0.000  0.000    0.000 -0.000  0.000
 O          0.000 -0.000  0.000    0.000 -0.000  0.000   -0.000 -0.000 -0.000
 O         -0.001 -0.001  0.000   -0.000 -0.000 -0.000    0.000  0.000  0.001
 C          0.044  0.052 -0.010    0.002  0.002  0.015   -0.005 -0.004 -0.098
 O          0.000 -0.000 -0.000   -0.000 -0.000  0.000   -0.000 -0.000  0.000
 C          0.000 -0.000 -0.000    0.000  0.000  0.000    0.000  0.000  0.000
 C         -0.001  0.003  0.003    0.003  0.006 -0.095    0.000  0.000 -0.015
 O         -0.000 -0.000  0.000   -0.000 -0.000  0.000   -0.000 -0.000  0.000
 O          0.000 -0.000 -0.000   -0.000  0.000 -0.000   -0.000  0.000 -0.000
 Li        -0.000  0.000 -0.000   -0.000  0.000  0.000   -0.000 -0.000 -0.000
 Li        -0.000  0.000  0.000    0.000  0.000 -0.000    0.000  0.000  0.000
 H         -0.223 -0.268 -0.530   -0.046 -0.063 -0.116    0.276  0.330  0.623
 H         -0.255 -0.332  0.643    0.021  0.035 -0.062   -0.216 -0.278  0.518
 H         -0.006 -0.009  0.012   -0.220 -0.382  0.605   -0.037 -0.056  0.091
 H         -0.020 -0.033 -0.052    0.190  0.316  0.519    0.036  0.052  0.087
 TransDip   0.039 -0.008  0.004    0.004  0.007 -0.120   -0.001 -0.005 -0.026

 STANDARD THERMODYNAMIC QUANTITIES AT   298.15 K  AND     1.00 ATM

   This Molecule has  4 Imaginary Frequencies
   Zero point vibrational energy:       57.946 kcal/mol

   Atom    1 Element O  Has Mass   15.99491
   Atom    2 Element C  Has Mass   12.00000
   Atom    3 Element O  Has Mass   15.99491
   Atom    4 Element O  Has Mass   15.99491
   Atom    5 Element C  Has Mass   12.00000
   Atom    6 Element O  Has Mass   15.99491
   Atom    7 Element C  Has Mass   12.00000
   Atom    8 Element C  Has Mass   12.00000
   Atom    9 Element O  Has Mass   15.99491
   Atom   10 Element O  Has Mass   15.99491
   Atom   11 Element Li Has Mass    7.01600
   Atom   12 Element Li Has Mass    7.01600
   Atom   13 Element H  Has Mass    1.00783
   Atom   14 Element H  Has Mass    1.00783
   Atom   15 Element H  Has Mass    1.00783
   Atom   16 Element H  Has Mass    1.00783
   Molecular Mass:   162.032780 amu
   Principal axes and moments of inertia in amu*Bohr^2:
                             1           2           3
    Eigenvalues --      368.87940  5852.13664  6197.39240
          X               0.88944     0.45692     0.01114
          Y              -0.45705     0.88931     0.01520
          Z              -0.00297    -0.01861     0.99982
   Rotational Symmetry Number is   1
   The Molecule is an Asymmetric Top
   Translational Enthalpy:        0.889 kcal/mol
   Rotational Enthalpy:           0.889 kcal/mol
   Vibrational Enthalpy:         62.303 kcal/mol
   gas constant (RT):             0.592 kcal/mol
   Translational Entropy:        41.156  cal/mol.K
   Rotational Entropy:           30.970  cal/mol.K
   Vibrational Entropy:          26.753  cal/mol.K

   Total Enthalpy:               64.673 kcal/mol
   Total Entropy:                98.880  cal/mol.K
Archival summary:
1\1\n0234.lr6\FREQ\ProcedureUnspecified\BasisUnspecified\64i24\ewcspott\SunJan1002:45:122021SunJan1002:45:122021\0\\#,FREQ,ProcedureUnspecified,BasisUnspecified,\\0,1\O\C,1,1.36672\O,2,1.24922,1,119.721\O,2,1.25406,1,114.907,3,179.232,0\C,1,1.4174,2,116.893,3,0.737802,0\H,5,1.09618,1,111.479,2,60.4723,0\H,5,1.09707,1,110.751,2,-60.3594,0\C,5,1.5023,1,103.629,2,-179.473,0\H,8,1.09622,5,114.472,1,-63.6189,0\H,8,1.09803,5,113.559,1,63.0647,0\Li,4,1.95757,2,82.709,1,179.457,0\O,8,2.02991,5,103.175,1,-178.571,0\C,12,1.32014,8,115.441,5,-177.878,0\O,13,1.25974,12,121.639,8,0.149827,0\O,13,1.26535,12,115.685,8,179.593,0\Li,15,1.944,13,84.189,12,179.602,0\\\@

 Total job time:  4763.05s(wall), 134079.63s(cpu) 
 Sun Jan 10 02:45:12 2021

        *************************************************************
        *                                                           *
        *  Thank you very much for using Q-Chem.  Have a nice day.  *
        *                                                           *
        *************************************************************


