
Running Job 1 of 1 mol.qin
qchem mol.qin_224673.0 /tmp/scratch/ 0
/clusterfs/mp/software/qchem/exe/qcprog.exe_s mol.qin_224673.0 /tmp/scratch/
                  Welcome to Q-Chem
     A Quantum Leap Into The Future Of Chemistry


 Q-Chem 5.2, Q-Chem, Inc., Pleasanton, CA (2019)

 Yihan Shao,  Zhengting Gan,  E. Epifanovsky,  A. T. B. Gilbert,  M. Wormit,  
 J. Kussmann,  A. W. Lange,  A. Behn,  Jia Deng,  Xintian Feng,  D. Ghosh,  
 M. Goldey,  P. R. Horn,  L. D. Jacobson,  I. Kaliman,  T. Kus,  A. Landau,  
 Jie Liu,  E. I. Proynov,  R. M. Richard,  R. P. Steele,  E. J. Sundstrom,  
 H. L. Woodcock III,  P. M. Zimmerman,  D. Zuev,  B. Alam,  B. Albrecht,  
 E. Alguire,  S. A. Baeppler,  D. Barton,  Z. Benda,  Y. A. Bernard,  
 E. J. Berquist,  K. B. Bravaya,  H. Burton,  K. Carter-Fenk,  D. Casanova,  
 Chun-Min Chang,  Yunqing Chen,  A. Chien,  K. D. Closser,  M. P. Coons,  
 S. Coriani,  S. Dasgupta,  A. L. Dempwolff,  M. Diedenhofen,  Hainam Do,  
 R. G. Edgar,  Po-Tung Fang,  S. Faraji,  S. Fatehi,  Qingguo Feng,  
 J. Fosso-Tande,  J. Gayvert,  Qinghui Ge,  A. Ghysels,  G. Gidofalvi,  
 J. Gomes,  J. Gonthier,  A. Gunina,  D. Hait,  M. W. D. Hanson-Heine,  
 P. H. P. Harbach,  A. W. Hauser,  M. F. Herbst,  J. E. Herr,  
 E. G. Hohenstein,  Z. C. Holden,  Kerwin Hui,  B. C. Huynh,  T.-C. Jagau,  
 Hyunjun Ji,  B. Kaduk,  K. Khistyaev,  Jaehoon Kim,  P. Klunzinger,  K. Koh,  
 D. Kosenkov,  L. Koulias,  T. Kowalczyk,  C. M. Krauter,  A. Kunitsa,  
 Ka Un Lao,  A. Laurent,  K. V. Lawler,  Joonho Lee,  D. Lefrancois,  
 S. Lehtola,  D. S. Levine,  Yi-Pei Li,  You-Sheng Lin,  Fenglai Liu,  
 Kuan-Yu Liu,  E. Livshits,  M. Loipersberger,  A. Luenser,  P. Manohar,  
 E. Mansoor,  S. F. Manzer,  Shan-Ping Mao,  Yuezhi Mao,  N. Mardirossian,  
 A. V. Marenich,  T. Markovich,  L. A. Martinez-Martinez,  S. A. Maurer,  
 N. J. Mayhall,  S. C. McKenzie,  J.-M. Mewes,  P. Morgante,  A. F. Morrison,  
 J. W. Mullinax,  K. Nanda,  T. S. Nguyen-Beck,  R. Olivares-Amaya,  
 J. A. Parkhill,  S. K. Paul,  Zheng Pei,  T. M. Perrine,  F. Plasser,  
 P. Pokhilko,  S. Prager,  A. Prociuk,  E. Ramos,  B. Rana,  D. R. Rehn,  
 F. Rob,  M. Scheurer,  M. Schneider,  N. Sergueev,  S. M. Sharada,  
 S. Sharma,  D. W. Small,  T. Stauch,  C. J. Stein,  T. Stein,  Yu-Chuan Su,  
 S. P. Veccham,  A. J. W. Thom,  A. Tkatchenko,  T. Tsuchimochi,  
 N. M. Tubman,  L. Vogt,  M. L. Vidal,  O. Vydrov,  M. A. Watson,  J. Wenzel,  
 M. de Wergifosse,  T. A. Wesolowski,  A. White,  J. Witte,  A. Yamada,  
 Jun Yang,  K. Yao,  S. Yeganeh,  S. R. Yost,  Zhi-Qiang You,  A. Zech,  
 Igor Ying Zhang,  Xing Zhang,  Yan Zhao,  Ying Zhu,  B. R. Brooks,  
 G. K. L. Chan,  C. J. Cramer,  M. S. Gordon,  W. J. Hehre,  A. Klamt,  
 M. W. Schmidt,  C. D. Sherrill,  D. G. Truhlar,  A. Aspuru-Guzik,  R. Baer,  
 A. T. Bell,  N. A. Besley,  Jeng-Da Chai,  A. E. DePrince, III,  
 R. A. DiStasio Jr.,  A. Dreuw,  B. D. Dunietz,  T. R. Furlani,  
 Chao-Ping Hsu,  Yousung Jung,  Jing Kong,  D. S. Lambrecht,  WanZhen Liang,  
 C. Ochsenfeld,  V. A. Rassolov,  L. V. Slipchenko,  J. E. Subotnik,  
 T. Van Voorhis,  J. M. Herbert,  A. I. Krylov,  P. M. W. Gill,  M. Head-Gordon

 Contributors to earlier versions of Q-Chem not listed above: 
 R. D. Adamson,  B. Austin,  J. Baker,  G. J. O. Beran,  K. Brandhorst,  
 S. T. Brown,  E. F. C. Byrd,  A. K. Chakraborty,  C.-L. Cheng,  
 Siu Hung Chien,  D. M. Chipman,  D. L. Crittenden,  H. Dachsel,  
 R. J. Doerksen,  A. D. Dutoi,  L. Fusti-Molnar,  W. A. Goddard III,  
 A. Golubeva-Zadorozhnaya,  S. R. Gwaltney,  G. Hawkins,  A. Heyden,  
 S. Hirata,  G. Kedziora,  F. J. Keil,  C. Kelley,  Jihan Kim,  R. A. King,  
 R. Z. Khaliullin,  P. P. Korambath,  W. Kurlancheek,  A. M. Lee,  M. S. Lee,  
 S. V. Levchenko,  Ching Yeh Lin,  D. Liotard,  R. C. Lochan,  I. Lotan,  
 P. E. Maslen,  N. Nair,  D. P. O'Neill,  D. Neuhauser,  E. Neuscamman,  
 C. M. Oana,  R. Olson,  B. Peters,  R. Peverati,  P. A. Pieniazek,  
 Y. M. Rhee,  J. Ritchie,  M. A. Rohrdanz,  E. Rosta,  N. J. Russ,  
 H. F. Schaefer III,  N. E. Schultz,  N. Shenvi,  A. C. Simmonett,  A. Sodt,  
 D. Stuck,  K. S. Thanthiriwatte,  V. Vanovschi,  Tao Wang,  A. Warshel,  
 C. F. Williams,  Q. Wu,  X. Xu,  W. Zhang

 Please cite Q-Chem as follows:
 Y. Shao et al., Mol. Phys. 113, 184-215 (2015)
 DOI: 10.1080/00268976.2014.952696

 Q-Chem 5.2.2 for Intel X86 EM64T Linux

 Parts of Q-Chem use Armadillo 8.300.2 (Tropical Shenanigans).
 http://arma.sourceforge.net/

 Q-Chem begins on Sun Jan 10 02:45:18 2021  

Host: 
0

     Scratch files written to /tmp/scratch//
 Nov2519 |scratch|qcdevops|jenkins|workspace|build_RNUM 6829   
Processing $rem in /clusterfs/mp/software/qchem/config/preferences:
	 MEM_TOTAL  96000 
NAlpha2: 82
NElect   82
Mult     1
Symmetry turned off for PCM/SM12/SMD calculation

Checking the input file for inconsistencies... 	...done.

--------------------------------------------------------------
User input:
--------------------------------------------------------------
$molecule
0 1
O     -1.9648500000      2.2155800000     -0.0130000000
C     -1.4762200000      1.0485300000      0.0054600000
O     -2.1906300000      0.0131300000      0.0726000000
O     -0.1586500000      0.9791100000     -0.0387100000
C      0.6177000000     -0.8959800000      0.0042900000
O      2.6525500000     -1.9583600000     -0.0077100000
C      4.0160000000     -2.0527100000     -0.0038300000
C      2.1002000000     -0.6530200000     -0.0032700000
O      4.7086800000     -1.0133300000      0.0172700000
O      4.4643700000     -3.2238700000     -0.0073700000
Li     -3.6719700000      1.2886100000      0.0618400000
Li      6.1889000000     -2.2976000000     -0.0164600000
H      0.2365400000     -1.4058800000     -0.8881300000
H      0.2630800000     -1.4179300000      0.9028900000
H      2.4095900000     -0.0832700000     -0.8871700000
H      2.4131500000     -0.1015700000      0.8920100000
$end

$rem
job_type = ts
basis = def2-svpd
max_scf_cycles = 200
gen_scfman = true
xc_grid = 3
scf_algorithm = diis
resp_charges = true
symmetry = false
sym_ignore = true
method = wb97xv
solvent_method = smd
ideriv = 1
thresh = 14
scf_guess_always = True
geom_opt_max_cycles = 250
geom_opt_hessian = read
$end

$smx
solvent other
$end
--------------------------------------------------------------
 ----------------------------------------------------------------
             Standard Nuclear Orientation (Angstroms)
    I     Atom           X                Y                Z
 ----------------------------------------------------------------
    1      O      -1.9648500000     2.2155800000    -0.0130000000
    2      C      -1.4762200000     1.0485300000     0.0054600000
    3      O      -2.1906300000     0.0131300000     0.0726000000
    4      O      -0.1586500000     0.9791100000    -0.0387100000
    5      C       0.6177000000    -0.8959800000     0.0042900000
    6      O       2.6525500000    -1.9583600000    -0.0077100000
    7      C       4.0160000000    -2.0527100000    -0.0038300000
    8      C       2.1002000000    -0.6530200000    -0.0032700000
    9      O       4.7086800000    -1.0133300000     0.0172700000
   10      O       4.4643700000    -3.2238700000    -0.0073700000
   11      Li     -3.6719700000     1.2886100000     0.0618400000
   12      Li      6.1889000000    -2.2976000000    -0.0164600000
   13      H       0.2365400000    -1.4058800000    -0.8881300000
   14      H       0.2630800000    -1.4179300000     0.9028900000
   15      H       2.4095900000    -0.0832700000    -0.8871700000
   16      H       2.4131500000    -0.1015700000     0.8920100000
 ----------------------------------------------------------------
 Nuclear Repulsion Energy =         551.12505155 hartrees
 There are       41 alpha and       41 beta electrons
 Requested basis set is def2-SVPD
 There are 114 shells and 274 basis functions

 Total QAlloc Memory Limit  96000 MB
 Mega-Array Size       188 MB
 MEM_STATIC part       192 MB
 
 Citation of the SMD model:
 Marenich, A.V.; Cramer, C.J.; Truhlar, D.G.
 J. Phys. Chem. B 2009, 113, 6378-6396.
 iSolventCode=           0
 Solvent: other                                                           
 
 vradii
            1           2           3           4           5           6
    1   2.2940000   1.8500000   2.2940000   2.2940000   1.8500000   2.2940000
            7           8           9          10          11          12
    1   1.8500000   1.8500000   2.2940000   2.2940000   2.1476001   2.1476001
           13          14          15          16
    1   1.2000000   1.2000000   1.2000000   1.2000000
 Changing PCM_VDW_RADII to SMD_RADIUS
 Discretize the solute cavity surface with Lebedev spheres
	Using 110 Lebedev grid points for each H atom
	Using 194 Lebedev grid points for other atoms
	Atomic van der Waals radii will be scaled by 1.20
 Remove points where switching function is < 1.0e-08
 Keep 1181 surface tesserae and discard 1587 interior tesserae
 Molecular Surface Area = 255.389 Angst**2
 A cutoff of  1.0D-14 yielded   5975 shell pairs
 There are     34671 function pairs (     39873 Cartesian)
 Smallest overlap matrix eigenvalue = 3.57E-05

 Scale SEOQF with 1.000000e-02/1.000000e-01/1.000000e-01

 Standard Electronic Orientation quadrupole field applied
 Nucleus-field energy     =     0.0000000190 hartrees
 Guess from superposition of atomic densities
 Warning:  Energy on first SCF cycle will be non-variational
 SAD guess density has 82.000000 electrons

 -----------------------------------------------------------------------
  General SCF calculation program by
  Eric Jon Sundstrom, Paul Horn, Yuezhi Mao, Dmitri Zuev, Alec White,
  David Stuck, Shaama M.S., Shane Yost, Joonho Lee, David Small,
  Daniel Levine, Susi Lehtola, Hugh Burton, Evgeny Epifanovsky,
  Bang C. Huynh
 -----------------------------------------------------------------------
 Exchange:     0.1670 Hartree-Fock + 1.0000 wB97X-V + LR-HF
 Correlation:  1.0000 wB97X-V
 Using SG-3 standard quadrature grid
 Nonlocal Correlation:  VV10 with C = 0.0100 and b = 6.00 and scale = 1.00000
 Grid used for NLC:  SG-1 standard quadrature
 
 Citation of the SMD model:
 Marenich, A.V.; Cramer, C.J.; Truhlar, D.G.
 J. Phys. Chem. B 2009, 113, 6378-6396.
 iSolventCode=           0
 Solvent: other                                                           
 
 vradii
            1           2           3           4           5           6
    1   2.2940000   1.8500000   2.2940000   2.2940000   1.8500000   2.2940000
            7           8           9          10          11          12
    1   1.8500000   1.8500000   2.2940000   2.2940000   2.1476001   2.1476001
           13          14          15          16
    1   1.2000000   1.2000000   1.2000000   1.2000000
 using 40 threads for integral computing
 -------------------------------------------------------
 OpenMP Integral computing Module                
 Release: version 1.0, May 2013, Q-Chem Inc. Pittsburgh 
 -------------------------------------------------------
 using 40 threads for integral computing
 -------------------------------------------------------
 OpenMP Integral computing Module                
 Release: version 1.0, May 2013, Q-Chem Inc. Pittsburgh 
 -------------------------------------------------------
 -------------------------------------------------------
 OpenMP BLAS3 based DFT computing Module                
 Release: version 1.0, May 2013, Q-Chem Inc. Pittsburgh 
 -------------------------------------------------------
 -------------------------------------------------------
 OpenMP BLAS3 based DFT computing Module                
 Release: version 1.0, May 2013, Q-Chem Inc. Pittsburgh 
 -------------------------------------------------------
 -------------------------------------------------------
 OpenMP BLAS3 based DFT computing Module                
 Release: version 1.0, May 2013, Q-Chem Inc. Pittsburgh 
 -------------------------------------------------------
 A restricted SCF calculation will be
 performed using DIIS
 SCF converges when DIIS error is below 1.0e-08
 ---------------------------------------
  Cycle       Energy         DIIS error
 ---------------------------------------
    1    -622.2150019937      3.64e-02  
    2    -620.3717739505      7.18e-03  
    3    -620.3569861367      7.84e-03  
    4    -620.7593890787      5.05e-04  
    5    -620.7604147532      4.06e-04  
    6    -620.7616037266      7.52e-05  
    7    -620.7616481346      4.00e-05  
    8    -620.7616613458      8.22e-06  
    9    -620.7616624648      3.80e-06  
   10    -620.7616626614      1.23e-06  
   11    -620.7616626853      5.54e-07  
   12    -620.7616626899      1.86e-07  
   13    -620.7616626904      7.82e-08  
   14    -620.7616626905      2.81e-08  
   15    -620.7616626905      9.55e-09  Convergence criterion met
 ---------------------------------------
 SCF time:   CPU 1223.41s  wall 41.00s 
(3)  G-ENP(liq) elect-nuc-pol free energy of system     -620.761662690 a.u.
(4)  G-CDS(liq) cavity-dispersion-solvent structure 
     free energy                                               -4.1314 kcal/mol
(6)  G-S(liq) free energy of system                     -620.768246426 a.u.
 SCF   energy in the final basis set =     -620.7616626905
 Total energy in the final basis set =     -620.7682464258
 
 --------------------------------------------------------------
 
                    Orbital Energies (a.u.)
 --------------------------------------------------------------
 
 Alpha MOs
 -- Occupied --
-19.2678 -19.2366 -19.2047 -19.1977 -19.1769 -19.1755 -10.4413 -10.4117
-10.3808 -10.3472  -2.1151  -2.0989  -1.2417  -1.1986  -1.1451  -1.0957
 -1.0747  -1.0626  -0.9052  -0.7572  -0.6924  -0.6252  -0.6207  -0.5993
 -0.5892  -0.5690  -0.5639  -0.5527  -0.5518  -0.5268  -0.4932  -0.4768
 -0.4388  -0.4216  -0.4111  -0.4084  -0.3929  -0.3890  -0.3836  -0.3692
 -0.3499
 -- Virtual --
  0.0136   0.0277   0.0306   0.0592   0.0614   0.0617   0.0637   0.0661
  0.0726   0.1136   0.1175   0.1316   0.1332   0.1387   0.1517   0.1617
  0.1660   0.1697   0.1805   0.1821   0.1882   0.1916   0.1937   0.1968
  0.1988   0.2072   0.2105   0.2134   0.2200   0.2257   0.2269   0.2326
  0.2419   0.2569   0.2656   0.2732   0.2772   0.2889   0.2978   0.3070
  0.3118   0.3127   0.3375   0.3470   0.3509   0.3607   0.3669   0.3752
  0.3840   0.3853   0.3914   0.3926   0.4048   0.4132   0.4272   0.4348
  0.4437   0.4470   0.4508   0.4529   0.4638   0.4748   0.4822   0.4930
  0.4966   0.5035   0.5212   0.5240   0.5411   0.5460   0.5526   0.5616
  0.5643   0.5720   0.5752   0.5825   0.5911   0.6004   0.6046   0.6085
  0.6108   0.6242   0.6347   0.6374   0.6394   0.6453   0.6524   0.6578
  0.6596   0.6658   0.6747   0.6876   0.6895   0.6962   0.7163   0.7211
  0.7232   0.7343   0.7364   0.7540   0.7548   0.7584   0.7677   0.7763
  0.7771   0.7797   0.7878   0.7912   0.8075   0.8257   0.8326   0.8335
  0.8461   0.8505   0.8547   0.8796   0.8945   0.9062   0.9114   0.9281
  0.9530   0.9545   0.9580   0.9788   0.9947   1.0035   1.0244   1.0439
  1.0609   1.0898   1.0997   1.1199   1.1302   1.1544   1.1692   1.1860
  1.2152   1.2285   1.2490   1.2751   1.2935   1.3202   1.3514   1.3729
  1.3884   1.4530   1.5485   1.5608   1.5640   1.5773   1.6072   1.6213
  1.6237   1.6418   1.6627   1.6884   1.6920   1.6990   1.7560   1.7585
  1.7797   1.7904   1.7997   1.8233   1.8403   1.8459   1.9094   1.9170
  1.9794   1.9905   2.0261   2.0415   2.0442   2.0568   2.0701   2.0756
  2.0943   2.1021   2.1110   2.1180   2.1216   2.1460   2.2001   2.2250
  2.2353   2.2695   2.2862   2.3321   2.3432   2.3769   2.3879   2.3918
  2.4474   2.4883   2.5578   2.6197   2.6468   2.6730   2.7822   2.9182
  2.9441   2.9590   2.9724   2.9842   2.9987   3.0129   3.0206   3.0318
  3.0366   3.0460   3.0683   3.0707   3.0746   3.1026   3.1257   3.1679
  3.1948   3.2228   3.2935   3.3060   3.3730   3.3806   3.3882   3.4183
  3.4404   3.5244   3.6906   3.8177   3.8442   3.8672   3.9062   3.9420
  3.9831
 --------------------------------------------------------------
 
          Ground-State Mulliken Net Atomic Charges

     Atom                 Charge (a.u.)
  ----------------------------------------
      1 O                    -0.973844
      2 C                     1.188951
      3 O                    -1.006488
      4 O                    -0.686314
      5 C                     0.224597
      6 O                    -0.648220
      7 C                     1.153616
      8 C                     0.438214
      9 O                    -0.945369
     10 O                    -0.954638
     11 Li                    1.048036
     12 Li                    1.058705
     13 H                     0.007978
     14 H                     0.033248
     15 H                     0.029351
     16 H                     0.032177
  ----------------------------------------
  Sum of atomic charges =     0.000000

  Building new vdw surfaces
         Merz-Kollman RESP Net Atomic Charges

     Atom                 Charge (a.u.)
  ----------------------------------------
      1 O                    -0.771295
      2 C                     0.949189
      3 O                    -0.771295
      4 O                    -0.844676
      5 C                     0.977346
      6 O                    -0.844676
      7 C                     0.949189
      8 C                     0.977346
      9 O                    -0.771295
     10 O                    -0.771295
     11 Li                    0.831417
     12 Li                    0.831417
     13 H                    -0.185343
     14 H                    -0.185343
     15 H                    -0.185343
     16 H                    -0.185343
  ----------------------------------------
  Sum of atomic charges =     0.000000

  Related Dipole Moment =     2.0241 (X  0.9446 Y -1.7870 Z  0.1069)

 -----------------------------------------------------------------
                    Cartesian Multipole Moments
 -----------------------------------------------------------------
    Charge (ESU x 10^10)
                -0.0000
    Dipole Moment (Debye)
         X       2.3732      Y      -2.5909      Z       0.0830
       Tot       3.5145
    Quadrupole Moments (Debye-Ang)
        XX      35.4119     XY     -22.1099     YY     -78.8514
        XZ      -1.0304     YZ       0.6282     ZZ     -58.8695
    Octopole Moments (Debye-Ang^2)
       XXX     151.6549    XXY     -76.7697    XYY     -73.3881
       YYY     119.9329    XXZ      -1.2626    XYZ      -0.7192
       YYZ       0.6427    XZZ     -73.1007    YZZ      30.5114
       ZZZ      -0.6187
    Hexadecapole Moments (Debye-Ang^3)
      XXXX    1488.2576   XXXY    -796.1110   XXYY    -450.1222
      XYYY     939.8587   YYYY   -1399.6785   XXXZ     -29.2711
      XXYZ      11.1142   XYYZ      -2.2214   YYYZ       1.3070
      XXZZ    -530.7923   XYZZ     248.2953   YYZZ    -191.6452
      XZZZ       3.0491   YZZZ       0.5677   ZZZZ     -70.3709
 -----------------------------------------------------------------
 Calculating analytic gradient of the SCF energy
 Gradient of CDS energy
            1           2           3           4           5           6
    1  -0.0004728   0.0001238  -0.0002263   0.0008481  -0.0006096  -0.0009920
    2   0.0000985   0.0000736  -0.0000364  -0.0003099  -0.0003207   0.0004036
    3   0.0000064  -0.0000058  -0.0000019  -0.0000120  -0.0000107   0.0000092
            7           8           9          10          11          12
    1   0.0002355   0.0004152   0.0000909   0.0004418  -0.0000118   0.0000183
    2  -0.0002501   0.0002628   0.0000110  -0.0000516   0.0000028  -0.0000020
    3   0.0000071  -0.0000070  -0.0000122  -0.0000088   0.0000098   0.0000130
           13          14          15          16
    1   0.0000167   0.0000129   0.0000409   0.0000685
    2   0.0000727   0.0000720  -0.0000025  -0.0000237
    3   0.0001246  -0.0001110   0.0001497  -0.0001504
 Gradient of SCF Energy
            1           2           3           4           5           6
    1   0.0218501  -0.0175570   0.0213504  -0.0461682   0.0243237  -0.0039174
    2  -0.0091846   0.0001459   0.0123360   0.0727615  -0.0362838   0.0000132
    3   0.0005705  -0.0013774  -0.0002682  -0.0017551   0.0020164   0.0013803
            7           8           9          10          11          12
    1   0.0187109   0.0029478  -0.0121234  -0.0143743  -0.0167554   0.0123950
    2   0.0103809  -0.0161714  -0.0035661  -0.0023767   0.0007488  -0.0003637
    3  -0.0027138  -0.0014328   0.0012643   0.0012355   0.0001781  -0.0004275
           13          14          15          16
    1   0.0047112   0.0063382  -0.0009899  -0.0007418
    2  -0.0118287  -0.0138607  -0.0010480  -0.0017027
    3   0.0037411  -0.0033319   0.0039417  -0.0030210
 Max gradient component =       7.276E-02
 RMS gradient           =       1.635E-02
 Computing fast CPCM-SWIG gradient
 Updating gradient with PCM contributions...
 -- total gradient after adding PCM contribution --
---------------------------------------------------
  Atom         X              Y              Z     
---------------------------------------------------
   1       0.010701      -0.006229       0.000840
   2      -0.010754       0.003165      -0.001928
   3       0.012465       0.007712       0.000121
   4      -0.041573       0.068819      -0.001716
   5       0.024302      -0.036540       0.002134
   6      -0.004783       0.003152       0.001422
   7       0.015314       0.007684      -0.002588
   8       0.002649      -0.016648      -0.001420
   9      -0.007105      -0.004592       0.001116
  10      -0.007328      -0.001018       0.001103
  11      -0.007193       0.000936      -0.000026
  12       0.003523       0.000104      -0.000272
  13       0.004758      -0.011932       0.003908
  14       0.006380      -0.013946      -0.003589
  15      -0.000824       0.000044       0.002826
  16      -0.000532      -0.000711      -0.001931
---------------------------------------------------
 Number of fixed atoms: 0
 Gradient time:  CPU 187.86 s  wall 9.54 s
 Geometry Optimization Parameters
   NAtoms,    NIC,     NZ,  NCons,   NDum,   NFix, NCnnct, MaxDiis
       16     128       0       0       0       0       0       0

 Cartesian Hessian read from HESS file


** GEOMETRY OPTIMIZATION IN DELOCALIZED INTERNAL COORDINATES **
   Searching for a Transition State

   Optimization Cycle:   1

                       Coordinates (Angstroms)
     ATOM                X               Y               Z
      1  O        -1.9648500000    2.2155800000   -0.0130000000
      2  C        -1.4762200000    1.0485300000    0.0054600000
      3  O        -2.1906300000    0.0131300000    0.0726000000
      4  O        -0.1586500000    0.9791100000   -0.0387100000
      5  C         0.6177000000   -0.8959800000    0.0042900000
      6  O         2.6525500000   -1.9583600000   -0.0077100000
      7  C         4.0160000000   -2.0527100000   -0.0038300000
      8  C         2.1002000000   -0.6530200000   -0.0032700000
      9  O         4.7086800000   -1.0133300000    0.0172700000
     10  O         4.4643700000   -3.2238700000   -0.0073700000
     11  Li       -3.6719700000    1.2886100000    0.0618400000
     12  Li        6.1889000000   -2.2976000000   -0.0164600000
     13  H         0.2365400000   -1.4058800000   -0.8881300000
     14  H         0.2630800000   -1.4179300000    0.9028900000
     15  H         2.4095900000   -0.0832700000   -0.8871700000
     16  H         2.4131500000   -0.1015700000    0.8920100000
   Point Group: c1    Number of degrees of freedom:    42


   Energy is   -620.768246426


 Attempting to generate delocalized internal coordinates

 Transforming Cartesian Hessian to Internal Coordinates
 Hessian Transformation does not Include Derivative of B-matrix

 42 Hessian modes will be used to form the next step
  Hessian Eigenvalues:
    -0.027821   -0.007436   -0.000574    0.000359    0.003867    0.004599
     0.007282    0.008966    0.014485    0.016216    0.023513    0.023626
     0.040369    0.042694    0.042976    0.045895    0.048826    0.059935
     0.068903    0.088594    0.092887    0.098175    0.123870    0.128131
     0.130259    0.139172    0.139697    0.189726    0.222142    0.286551
     0.335996    0.340160    0.350772    0.359199    0.362827    0.367697
     0.418250    0.441310    0.503394    0.533828    0.657923    0.661151
**WARNING** Hessian does not have the desired local structure
**WARNING** Hessian does not have the desired local structure

 Transition state search - taking P-RFO step
 Searching for Lamda that Maximizes Along the Lowest mode
 Value Taken    Lamda =   0.06158895
 Searching for Lamda that Minimizes Along All other modes
 Value Taken    Lamda =  -0.02594345
 Calculated Step too Large.  Step scaled by  0.297641
 Step Taken.  Stepsize is  0.300000

                             Maximum     Tolerance    Cnvgd?
         Gradient           0.041261      0.000300      NO
         Displacement       0.202791      0.001200      NO
         Energy change     *********      0.000001      NO


 New Cartesian Coordinates Obtained by Inverse Iteration

 Displacement from previous Coordinates is:  0.283188
 ----------------------------------------------------------------
             Standard Nuclear Orientation (Angstroms)
    I     Atom           X                Y                Z
 ----------------------------------------------------------------
    1      O      -2.0305898769     2.2202621959    -0.0171964988
    2      C      -1.4783902208     1.0757882282     0.0046126126
    3      O      -2.1596544959     0.0112094590     0.0827089285
    4      O      -0.1665731362     1.0566713682    -0.0483052888
    5      C       0.6379188716    -0.9220841356     0.0002087859
    6      O       2.6607435072    -1.9646992419    -0.0098755287
    7      C       4.0220209996    -2.0670968962    -0.0018025612
    8      C       2.1124951408    -0.6530771462    -0.0052415696
    9      O       4.7202486884    -1.0293950537     0.0217833348
   10      O       4.4686639058    -3.2388069024    -0.0069688886
   11      Li     -3.6739538133     1.2248392811     0.0741356637
   12      Li      6.1921465230    -2.3215079571    -0.0088346706
   13      H       0.2216397324    -1.3734795935    -0.9044780167
   14      H       0.2444291191    -1.3879766784     0.9091790417
   15      H       2.4180522557    -0.0859625118    -0.8926046318
   16      H       2.4192427995    -0.1032444157     0.8933892876
 ----------------------------------------------------------------
 Nuclear Repulsion Energy =         549.39130813 hartrees
 There are       41 alpha and       41 beta electrons
 Discretize the solute cavity surface with Lebedev spheres
	Using 110 Lebedev grid points for each H atom
	Using 194 Lebedev grid points for other atoms
	Atomic van der Waals radii will be scaled by 1.20
 Remove points where switching function is < 1.0e-08
 Keep 1186 surface tesserae and discard 1582 interior tesserae
 Molecular Surface Area = 256.008 Angst**2
 Applying Cartesian multipole field
    Component          Value
    ---------          -----
     (2,0,0)        1.00000E-12
     (0,2,0)        2.00000E-11
     (0,0,2)       -3.00000E-11
 Nucleus-field energy     =     0.0000000193 hartrees
 Requested basis set is def2-SVPD
 There are 114 shells and 274 basis functions
 A cutoff of  1.0D-14 yielded   5968 shell pairs
 There are     34636 function pairs (     39848 Cartesian)
 Smallest overlap matrix eigenvalue = 3.59E-05
 Guess from superposition of atomic densities
 Warning:  Energy on first SCF cycle will be non-variational
 SAD guess density has 82.000000 electrons

 -----------------------------------------------------------------------
  General SCF calculation program by
  Eric Jon Sundstrom, Paul Horn, Yuezhi Mao, Dmitri Zuev, Alec White,
  David Stuck, Shaama M.S., Shane Yost, Joonho Lee, David Small,
  Daniel Levine, Susi Lehtola, Hugh Burton, Evgeny Epifanovsky,
  Bang C. Huynh
 -----------------------------------------------------------------------
 Exchange:     0.1670 Hartree-Fock + 1.0000 wB97X-V + LR-HF
 Correlation:  1.0000 wB97X-V
 Using SG-3 standard quadrature grid
 Nonlocal Correlation:  VV10 with C = 0.0100 and b = 6.00 and scale = 1.00000
 Grid used for NLC:  SG-1 standard quadrature
 
 Citation of the SMD model:
 Marenich, A.V.; Cramer, C.J.; Truhlar, D.G.
 J. Phys. Chem. B 2009, 113, 6378-6396.
 iSolventCode=           0
 Solvent: other                                                           
 
 vradii
            1           2           3           4           5           6
    1   2.2940000   1.8500000   2.2940000   2.2940000   1.8500000   2.2940000
            7           8           9          10          11          12
    1   1.8500000   1.8500000   2.2940000   2.2940000   2.1476001   2.1476001
           13          14          15          16
    1   1.2000000   1.2000000   1.2000000   1.2000000
 using 40 threads for integral computing
 -------------------------------------------------------
 OpenMP Integral computing Module                
 Release: version 1.0, May 2013, Q-Chem Inc. Pittsburgh 
 -------------------------------------------------------
 using 40 threads for integral computing
 -------------------------------------------------------
 OpenMP Integral computing Module                
 Release: version 1.0, May 2013, Q-Chem Inc. Pittsburgh 
 -------------------------------------------------------
 -------------------------------------------------------
 OpenMP BLAS3 based DFT computing Module                
 Release: version 1.0, May 2013, Q-Chem Inc. Pittsburgh 
 -------------------------------------------------------
 -------------------------------------------------------
 OpenMP BLAS3 based DFT computing Module                
 Release: version 1.0, May 2013, Q-Chem Inc. Pittsburgh 
 -------------------------------------------------------
 -------------------------------------------------------
 OpenMP BLAS3 based DFT computing Module                
 Release: version 1.0, May 2013, Q-Chem Inc. Pittsburgh 
 -------------------------------------------------------
 A restricted SCF calculation will be
 performed using DIIS
 SCF converges when DIIS error is below 1.0e-08
 ---------------------------------------
  Cycle       Energy         DIIS error
 ---------------------------------------
    1    -621.3842961115      3.63e-02  
    2    -620.3469942802      7.28e-03  
    3    -620.3135665979      8.10e-03  
    4    -620.7472435229      6.81e-04  
    5    -620.7493625156      4.77e-04  
    6    -620.7510422422      8.75e-05  
    7    -620.7511036768      4.14e-05  
    8    -620.7511189766      9.49e-06  
    9    -620.7511203981      4.33e-06  
   10    -620.7511206812      1.42e-06  
   11    -620.7511207125      6.25e-07  
   12    -620.7511207189      2.10e-07  
   13    -620.7511207195      9.02e-08  
   14    -620.7511207197      3.29e-08  
   15    -620.7511207197      1.04e-08  
   16    -620.7511207197      3.46e-09  Convergence criterion met
 ---------------------------------------
 SCF time:   CPU 1308.90s  wall 44.00s 
(3)  G-ENP(liq) elect-nuc-pol free energy of system     -620.751120720 a.u.
(4)  G-CDS(liq) cavity-dispersion-solvent structure 
     free energy                                               -4.1286 kcal/mol
(6)  G-S(liq) free energy of system                     -620.757700074 a.u.
 SCF   energy in the final basis set =     -620.7511207197
 Total energy in the final basis set =     -620.7577000741
 
 --------------------------------------------------------------
 
                    Orbital Energies (a.u.)
 --------------------------------------------------------------
 
 Alpha MOs
 -- Occupied --
-19.2708 -19.2279 -19.2054 -19.1990 -19.1728 -19.1718 -10.4429 -10.4076
-10.3891 -10.3515  -2.1152  -2.0935  -1.2433  -1.1924  -1.1467  -1.0962
 -1.0687  -1.0558  -0.9099  -0.7603  -0.6937  -0.6288  -0.6142  -0.6001
 -0.5919  -0.5713  -0.5584  -0.5488  -0.5487  -0.5308  -0.4992  -0.4808
 -0.4377  -0.4139  -0.4130  -0.4049  -0.3905  -0.3871  -0.3846  -0.3653
 -0.3443
 -- Virtual --
 -0.0045   0.0275   0.0302   0.0591   0.0617   0.0618   0.0636   0.0663
  0.0725   0.1134   0.1177   0.1314   0.1327   0.1376   0.1512   0.1609
  0.1656   0.1718   0.1802   0.1822   0.1884   0.1914   0.1938   0.1976
  0.1986   0.2072   0.2108   0.2161   0.2207   0.2254   0.2266   0.2327
  0.2419   0.2558   0.2647   0.2730   0.2770   0.2875   0.2957   0.3050
  0.3117   0.3128   0.3364   0.3427   0.3504   0.3611   0.3667   0.3759
  0.3830   0.3832   0.3897   0.3937   0.4030   0.4126   0.4237   0.4334
  0.4432   0.4460   0.4520   0.4528   0.4628   0.4748   0.4820   0.4919
  0.4973   0.5051   0.5215   0.5230   0.5412   0.5441   0.5516   0.5617
  0.5631   0.5704   0.5750   0.5808   0.5904   0.6005   0.6044   0.6085
  0.6117   0.6251   0.6331   0.6387   0.6406   0.6458   0.6487   0.6592
  0.6613   0.6662   0.6720   0.6881   0.6905   0.6938   0.7157   0.7174
  0.7221   0.7334   0.7355   0.7507   0.7516   0.7582   0.7671   0.7733
  0.7750   0.7777   0.7890   0.7941   0.8047   0.8201   0.8320   0.8342
  0.8472   0.8499   0.8520   0.8771   0.8931   0.9029   0.9064   0.9327
  0.9435   0.9576   0.9642   0.9757   0.9959   1.0017   1.0170   1.0263
  1.0637   1.0898   1.0964   1.1146   1.1303   1.1572   1.1729   1.1882
  1.2161   1.2434   1.2516   1.2599   1.2924   1.3140   1.3514   1.3640
  1.3876   1.4462   1.5335   1.5503   1.5614   1.5780   1.6054   1.6198
  1.6226   1.6449   1.6649   1.6862   1.6897   1.7051   1.7550   1.7629
  1.7842   1.7896   1.7932   1.8246   1.8451   1.8541   1.8990   1.9105
  1.9704   1.9893   2.0253   2.0429   2.0456   2.0543   2.0702   2.0817
  2.0881   2.1040   2.1099   2.1109   2.1297   2.1470   2.1872   2.2109
  2.2309   2.2628   2.2839   2.3254   2.3479   2.3513   2.3690   2.3882
  2.4359   2.4804   2.5494   2.6147   2.6422   2.6547   2.7865   2.9292
  2.9394   2.9583   2.9734   2.9877   3.0042   3.0062   3.0200   3.0349
  3.0381   3.0459   3.0680   3.0710   3.0899   3.0984   3.1361   3.1633
  3.1843   3.2200   3.2912   3.3102   3.3627   3.3765   3.3835   3.4163
  3.4434   3.5210   3.6876   3.8162   3.8522   3.8641   3.9097   3.9273
  3.9780
 --------------------------------------------------------------
 
          Ground-State Mulliken Net Atomic Charges

     Atom                 Charge (a.u.)
  ----------------------------------------
      1 O                    -0.987470
      2 C                     1.197680
      3 O                    -1.028641
      4 O                    -0.681818
      5 C                     0.254338
      6 O                    -0.655384
      7 C                     1.151575
      8 C                     0.473988
      9 O                    -0.944118
     10 O                    -0.953102
     11 Li                    1.042919
     12 Li                    1.058441
     13 H                    -0.021633
     14 H                     0.003281
     15 H                     0.043815
     16 H                     0.046129
  ----------------------------------------
  Sum of atomic charges =     0.000000

  Building new vdw surfaces
         Merz-Kollman RESP Net Atomic Charges

     Atom                 Charge (a.u.)
  ----------------------------------------
      1 O                    -0.770412
      2 C                     0.970432
      3 O                    -0.770412
      4 O                    -0.917902
      5 C                     1.182972
      6 O                    -0.917902
      7 C                     0.970432
      8 C                     1.182972
      9 O                    -0.770412
     10 O                    -0.770412
     11 Li                    0.821423
     12 Li                    0.821423
     13 H                    -0.258051
     14 H                    -0.258051
     15 H                    -0.258051
     16 H                    -0.258051
  ----------------------------------------
  Sum of atomic charges =     0.000000

  Related Dipole Moment =     3.0264 (X  1.3526 Y -2.7002 Z  0.1946)

 -----------------------------------------------------------------
                    Cartesian Multipole Moments
 -----------------------------------------------------------------
    Charge (ESU x 10^10)
                -0.0000
    Dipole Moment (Debye)
         X       2.9904      Y      -3.4470      Z       0.1465
       Tot       4.5657
    Quadrupole Moments (Debye-Ang)
        XX      34.7800     XY     -20.9293     YY     -79.6949
        XZ      -1.0315     YZ       0.6861     ZZ     -58.7487
    Octopole Moments (Debye-Ang^2)
       XXX     155.8929    XXY     -86.5718    XYY     -66.6893
       YYY     115.0955    XXZ       0.3180    XYZ      -1.3765
       YYZ       0.9943    XZZ     -72.6671    YZZ      29.9077
       ZZZ      -0.5728
    Hexadecapole Moments (Debye-Ang^3)
      XXXX    1468.6664   XXXY    -785.6305   XXYY    -456.9068
      XYYY     951.9519   YYYY   -1421.1418   XXXZ     -25.6900
      XXYZ       9.5138   XYYZ      -1.6005   YYYZ       1.6605
      XXZZ    -533.4369   XYZZ     251.4185   YYZZ    -194.4321
      XZZZ       2.8905   YZZZ       1.0746   ZZZZ     -70.3331
 -----------------------------------------------------------------
 Calculating analytic gradient of the SCF energy
 Gradient of CDS energy
            1           2           3           4           5           6
    1  -0.0005103   0.0001907  -0.0002120   0.0008295  -0.0005461  -0.0009487
    2   0.0000978   0.0000922  -0.0000842  -0.0002907  -0.0004252   0.0004799
    3   0.0000092  -0.0000030  -0.0000013  -0.0000176  -0.0000449   0.0000134
            7           8           9          10          11          12
    1   0.0002119   0.0004493   0.0000983   0.0004473  -0.0000153   0.0000188
    2  -0.0002652   0.0002315   0.0000148  -0.0000493   0.0000039  -0.0000032
    3   0.0000097   0.0000008  -0.0000115  -0.0000079   0.0000096   0.0000119
           13          14          15          16
    1  -0.0000629  -0.0000536   0.0000362   0.0000668
    2   0.0001165   0.0001107  -0.0000029  -0.0000266
    3   0.0001565  -0.0001247   0.0001481  -0.0001482
 Gradient of SCF Energy
            1           2           3           4           5           6
    1   0.0192507  -0.0128266   0.0174721  -0.0411665   0.0234773  -0.0033772
    2  -0.0067430  -0.0012102   0.0111489   0.0662375  -0.0371048  -0.0005865
    3   0.0003762  -0.0011229  -0.0003326  -0.0016180   0.0019838   0.0011236
            7           8           9          10          11          12
    1   0.0146566   0.0021740  -0.0099249  -0.0123557  -0.0154709   0.0118395
    2   0.0076807  -0.0129525  -0.0014019  -0.0029284   0.0000026  -0.0005594
    3  -0.0022653  -0.0012642   0.0010941   0.0010191   0.0002519  -0.0003606
           13          14          15          16
    1   0.0029356   0.0044164  -0.0006124  -0.0004879
    2  -0.0092411  -0.0110405  -0.0003538  -0.0009477
    3   0.0017959  -0.0015192   0.0019616  -0.0011235
 Max gradient component =       6.624E-02
 RMS gradient           =       1.471E-02
 Computing fast CPCM-SWIG gradient
 Updating gradient with PCM contributions...
 -- total gradient after adding PCM contribution --
---------------------------------------------------
  Atom         X              Y              Z     
---------------------------------------------------
   1       0.007879      -0.004325       0.000725
   2      -0.006434       0.002048      -0.001709
   3       0.009025       0.005700       0.000160
   4      -0.035767       0.062526      -0.001644
   5       0.023263      -0.038647       0.002122
   6      -0.003948       0.002169       0.001163
   7       0.011560       0.005542      -0.002151
   8       0.001871      -0.011967      -0.001204
   9      -0.005504      -0.003135       0.000957
  10      -0.005873      -0.000983       0.000921
  11      -0.006053       0.000815      -0.000018
  12       0.003096      -0.000036      -0.000244
  13       0.003228      -0.008825       0.003435
  14       0.004692      -0.010581      -0.003255
  15      -0.000601       0.000177       0.002181
  16      -0.000433      -0.000479      -0.001440
---------------------------------------------------
 Number of fixed atoms: 0
 Gradient time:  CPU 186.81 s  wall 9.53 s
 Geometry Optimization Parameters
   NAtoms,    NIC,     NZ,  NCons,   NDum,   NFix, NCnnct, MaxDiis
       16     128       0       0       0       0       0       0

 Cartesian Hessian Update
 Hessian updated using Powell/Murtagh-Sargent update
  Mixing factors:     0.987925 Powell                      0.012075 Murtagh-Sargent


** GEOMETRY OPTIMIZATION IN DELOCALIZED INTERNAL COORDINATES **
   Searching for a Transition State

   Optimization Cycle:   2

                       Coordinates (Angstroms)
     ATOM                X               Y               Z
      1  O        -2.0305898769    2.2202621959   -0.0171964988
      2  C        -1.4783902208    1.0757882282    0.0046126126
      3  O        -2.1596544959    0.0112094590    0.0827089285
      4  O        -0.1665731362    1.0566713682   -0.0483052888
      5  C         0.6379188716   -0.9220841356    0.0002087859
      6  O         2.6607435072   -1.9646992419   -0.0098755287
      7  C         4.0220209996   -2.0670968962   -0.0018025612
      8  C         2.1124951408   -0.6530771462   -0.0052415696
      9  O         4.7202486884   -1.0293950537    0.0217833348
     10  O         4.4686639058   -3.2388069024   -0.0069688886
     11  Li       -3.6739538133    1.2248392811    0.0741356637
     12  Li        6.1921465230   -2.3215079571   -0.0088346706
     13  H         0.2216397324   -1.3734795935   -0.9044780167
     14  H         0.2444291191   -1.3879766784    0.9091790417
     15  H         2.4180522557   -0.0859625118   -0.8926046318
     16  H         2.4192427995   -0.1032444157    0.8933892876
   Point Group: c1    Number of degrees of freedom:    42


   Energy is   -620.757700074

 Hessian updated using Powell/Murtagh-Sargent update
  Mixing factors:     0.999599 Powell                      0.000401 Murtagh-Sargent

 42 Hessian modes will be used to form the next step
  Hessian Eigenvalues:
    -0.028737   -0.007379   -0.000574    0.000359    0.003868    0.004599
     0.007284    0.008968    0.014485    0.016248    0.023515    0.023734
     0.039002    0.042693    0.042982    0.046194    0.048826    0.059938
     0.070358    0.088832    0.092898    0.098240    0.123866    0.128168
     0.130221    0.139171    0.139690    0.189628    0.222225    0.286335
     0.335994    0.340107    0.350772    0.359215    0.362838    0.367673
     0.418241    0.441273    0.503396    0.533823    0.657851    0.661140
**WARNING** Hessian does not have the desired local structure
**WARNING** Hessian does not have the desired local structure

 Transition state search - taking P-RFO step
 Searching for Lamda that Maximizes Along the Lowest mode
 Value Taken    Lamda =   0.05403374
 Searching for Lamda that Minimizes Along All other modes
 Value Taken    Lamda =  -0.01916859
 Calculated Step too Large.  Step scaled by  0.308272
 Step Taken.  Stepsize is  0.300000

                             Maximum     Tolerance    Cnvgd?
         Gradient           0.035831      0.000300      NO
         Displacement       0.198310      0.001200      NO
         Energy change      0.010546      0.000001      NO


 New Cartesian Coordinates Obtained by Inverse Iteration

 Displacement from previous Coordinates is:  0.289182
 ----------------------------------------------------------------
             Standard Nuclear Orientation (Angstroms)
    I     Atom           X                Y                Z
 ----------------------------------------------------------------
    1      O      -2.0493672938     2.2515076088    -0.0125457717
    2      C      -1.4753965700     1.1117147676     0.0022146722
    3      O      -2.1597420616     0.0408672629     0.0557608106
    4      O      -0.1695763249     1.1015544519    -0.0352524253
    5      C       0.6435270618    -0.9887675153     0.0148285562
    6      O       2.6760310840    -1.9910995505    -0.0012634265
    7      C       4.0385305881    -2.0701582922    -0.0047600513
    8      C       2.1086082895    -0.6843180127     0.0064211837
    9      O       4.7168569960    -1.0175390647     0.0062779481
   10      O       4.5102715747    -3.2314281920    -0.0114512624
   11      Li     -3.6650044403     1.2292720582     0.0487127519
   12      Li      6.2109611517    -2.2820662304    -0.0320320132
   13      H       0.1992595500    -1.3829293468    -0.9023177186
   14      H       0.2199899572    -1.3991458375     0.9359325487
   15      H       2.3971588365    -0.1152905542    -0.8857056691
   16      H       2.4063316010    -0.1307335531     0.9058898667
 ----------------------------------------------------------------
 Nuclear Repulsion Energy =         547.52182753 hartrees
 There are       41 alpha and       41 beta electrons
 Discretize the solute cavity surface with Lebedev spheres
	Using 110 Lebedev grid points for each H atom
	Using 194 Lebedev grid points for other atoms
	Atomic van der Waals radii will be scaled by 1.20
 Remove points where switching function is < 1.0e-08
 Keep 1197 surface tesserae and discard 1571 interior tesserae
 Molecular Surface Area = 256.595 Angst**2
 Applying Cartesian multipole field
    Component          Value
    ---------          -----
     (2,0,0)        1.00000E-12
     (0,2,0)        2.00000E-11
     (0,0,2)       -3.00000E-11
 Nucleus-field energy     =     0.0000000195 hartrees
 Requested basis set is def2-SVPD
 There are 114 shells and 274 basis functions
 A cutoff of  1.0D-14 yielded   5958 shell pairs
 There are     34522 function pairs (     39706 Cartesian)
 Smallest overlap matrix eigenvalue = 3.62E-05
 Guess from superposition of atomic densities
 Warning:  Energy on first SCF cycle will be non-variational
 SAD guess density has 82.000000 electrons

 -----------------------------------------------------------------------
  General SCF calculation program by
  Eric Jon Sundstrom, Paul Horn, Yuezhi Mao, Dmitri Zuev, Alec White,
  David Stuck, Shaama M.S., Shane Yost, Joonho Lee, David Small,
  Daniel Levine, Susi Lehtola, Hugh Burton, Evgeny Epifanovsky,
  Bang C. Huynh
 -----------------------------------------------------------------------
 Exchange:     0.1670 Hartree-Fock + 1.0000 wB97X-V + LR-HF
 Correlation:  1.0000 wB97X-V
 Using SG-3 standard quadrature grid
 Nonlocal Correlation:  VV10 with C = 0.0100 and b = 6.00 and scale = 1.00000
 Grid used for NLC:  SG-1 standard quadrature
 
 Citation of the SMD model:
 Marenich, A.V.; Cramer, C.J.; Truhlar, D.G.
 J. Phys. Chem. B 2009, 113, 6378-6396.
 iSolventCode=           0
 Solvent: other                                                           
 
 vradii
            1           2           3           4           5           6
    1   2.2940000   1.8500000   2.2940000   2.2940000   1.8500000   2.2940000
            7           8           9          10          11          12
    1   1.8500000   1.8500000   2.2940000   2.2940000   2.1476001   2.1476001
           13          14          15          16
    1   1.2000000   1.2000000   1.2000000   1.2000000
 using 40 threads for integral computing
 -------------------------------------------------------
 OpenMP Integral computing Module                
 Release: version 1.0, May 2013, Q-Chem Inc. Pittsburgh 
 -------------------------------------------------------
 using 40 threads for integral computing
 -------------------------------------------------------
 OpenMP Integral computing Module                
 Release: version 1.0, May 2013, Q-Chem Inc. Pittsburgh 
 -------------------------------------------------------
 -------------------------------------------------------
 OpenMP BLAS3 based DFT computing Module                
 Release: version 1.0, May 2013, Q-Chem Inc. Pittsburgh 
 -------------------------------------------------------
 -------------------------------------------------------
 OpenMP BLAS3 based DFT computing Module                
 Release: version 1.0, May 2013, Q-Chem Inc. Pittsburgh 
 -------------------------------------------------------
 -------------------------------------------------------
 OpenMP BLAS3 based DFT computing Module                
 Release: version 1.0, May 2013, Q-Chem Inc. Pittsburgh 
 -------------------------------------------------------
 A restricted SCF calculation will be
 performed using DIIS
 SCF converges when DIIS error is below 1.0e-08
 ---------------------------------------
  Cycle       Energy         DIIS error
 ---------------------------------------
    1    -621.4505446422      3.62e-02  
    2    -620.3220871575      7.38e-03  
    3    -620.2608317415      8.40e-03  
    4    -620.7338904950      9.17e-04  
    5    -620.7386716271      5.01e-04  
    6    -620.7405683460      1.01e-04  
    7    -620.7406543428      4.11e-05  
    8    -620.7406712850      1.20e-05  
    9    -620.7406733563      4.64e-06  
   10    -620.7406737697      1.78e-06  
   11    -620.7406738196      7.12e-07  
   12    -620.7406738299      2.28e-07  
   13    -620.7406738311      9.76e-08  
   14    -620.7406738313      3.67e-08  
   15    -620.7406738313      1.08e-08  
   16    -620.7406738313      3.69e-09  Convergence criterion met
 ---------------------------------------
 SCF time:   CPU 1294.98s  wall 43.00s 
(3)  G-ENP(liq) elect-nuc-pol free energy of system     -620.740673831 a.u.
(4)  G-CDS(liq) cavity-dispersion-solvent structure 
     free energy                                               -4.1081 kcal/mol
(6)  G-S(liq) free energy of system                     -620.747220430 a.u.
 SCF   energy in the final basis set =     -620.7406738313
 Total energy in the final basis set =     -620.7472204305
 
 --------------------------------------------------------------
 
                    Orbital Energies (a.u.)
 --------------------------------------------------------------
 
 Alpha MOs
 -- Occupied --
-19.2736 -19.2184 -19.2063 -19.2005 -19.1690 -19.1677 -10.4444 -10.4035
-10.3980 -10.3552  -2.1154  -2.0882  -1.2450  -1.1863  -1.1484  -1.0972
 -1.0631  -1.0490  -0.9145  -0.7636  -0.6952  -0.6327  -0.6085  -0.6007
 -0.5947  -0.5749  -0.5532  -0.5448  -0.5445  -0.5341  -0.5048  -0.4843
 -0.4379  -0.4163  -0.4037  -0.4013  -0.3917  -0.3857  -0.3813  -0.3615
 -0.3386
 -- Virtual --
 -0.0209   0.0274   0.0303   0.0590   0.0617   0.0620   0.0635   0.0665
  0.0725   0.1131   0.1181   0.1310   0.1323   0.1365   0.1506   0.1600
  0.1646   0.1738   0.1805   0.1824   0.1886   0.1907   0.1942   0.1980
  0.1983   0.2073   0.2108   0.2189   0.2212   0.2252   0.2264   0.2329
  0.2418   0.2551   0.2636   0.2721   0.2764   0.2860   0.2937   0.3041
  0.3118   0.3121   0.3354   0.3381   0.3498   0.3616   0.3659   0.3758
  0.3807   0.3825   0.3886   0.3935   0.3989   0.4131   0.4211   0.4331
  0.4421   0.4447   0.4514   0.4531   0.4609   0.4739   0.4816   0.4906
  0.4964   0.5063   0.5203   0.5240   0.5409   0.5440   0.5510   0.5595
  0.5630   0.5694   0.5745   0.5790   0.5887   0.6026   0.6051   0.6079
  0.6106   0.6259   0.6310   0.6400   0.6409   0.6443   0.6466   0.6589
  0.6649   0.6666   0.6692   0.6873   0.6912   0.6929   0.7125   0.7163
  0.7214   0.7321   0.7340   0.7433   0.7500   0.7581   0.7636   0.7725
  0.7738   0.7756   0.7883   0.7953   0.8042   0.8157   0.8305   0.8349
  0.8461   0.8464   0.8551   0.8759   0.8869   0.9010   0.9023   0.9343
  0.9383   0.9577   0.9636   0.9689   0.9948   0.9996   1.0073   1.0261
  1.0678   1.0865   1.0903   1.1122   1.1256   1.1565   1.1719   1.1866
  1.2134   1.2378   1.2536   1.2584   1.3013   1.3072   1.3523   1.3582
  1.3871   1.4466   1.5087   1.5491   1.5591   1.5782   1.6041   1.6199
  1.6216   1.6474   1.6650   1.6857   1.6881   1.7129   1.7546   1.7625
  1.7856   1.7898   1.7918   1.8283   1.8438   1.8513   1.8874   1.9106
  1.9614   1.9845   2.0241   2.0408   2.0491   2.0500   2.0704   2.0801
  2.0826   2.0885   2.1079   2.1143   2.1430   2.1497   2.1676   2.2038
  2.2269   2.2559   2.2844   2.3163   2.3269   2.3560   2.3633   2.3852
  2.4254   2.4692   2.5398   2.6050   2.6277   2.6334   2.7872   2.9306
  2.9452   2.9571   2.9746   2.9913   2.9978   3.0086   3.0208   3.0322
  3.0421   3.0482   3.0681   3.0695   3.0882   3.1112   3.1482   3.1591
  3.1807   3.2176   3.2857   3.3188   3.3548   3.3737   3.3799   3.4139
  3.4465   3.5182   3.6822   3.8143   3.8603   3.8606   3.9124   3.9164
  3.9746
 --------------------------------------------------------------
 
          Ground-State Mulliken Net Atomic Charges

     Atom                 Charge (a.u.)
  ----------------------------------------
      1 O                    -0.997442
      2 C                     1.198712
      3 O                    -1.053733
      4 O                    -0.683393
      5 C                     0.318044
      6 O                    -0.662225
      7 C                     1.148688
      8 C                     0.483062
      9 O                    -0.942144
     10 O                    -0.951162
     11 Li                    1.037607
     12 Li                    1.058334
     13 H                    -0.044294
     14 H                    -0.029478
     15 H                     0.060886
     16 H                     0.058538
  ----------------------------------------
  Sum of atomic charges =     0.000000

  Building new vdw surfaces
         Merz-Kollman RESP Net Atomic Charges

     Atom                 Charge (a.u.)
  ----------------------------------------
      1 O                    -0.780420
      2 C                     1.000618
      3 O                    -0.780420
      4 O                    -0.963296
      5 C                     1.307107
      6 O                    -0.963296
      7 C                     1.000618
      8 C                     1.307107
      9 O                    -0.780420
     10 O                    -0.780420
     11 Li                    0.817749
     12 Li                    0.817749
     13 H                    -0.300669
     14 H                    -0.300669
     15 H                    -0.300669
     16 H                    -0.300669
  ----------------------------------------
  Sum of atomic charges =     0.000000

  Related Dipole Moment =     3.8009 (X  1.6478 Y -3.4225 Z  0.1354)

 -----------------------------------------------------------------
                    Cartesian Multipole Moments
 -----------------------------------------------------------------
    Charge (ESU x 10^10)
                 0.0000
    Dipole Moment (Debye)
         X       3.5709      Y      -4.1240      Z       0.0703
       Tot       5.4556
    Quadrupole Moments (Debye-Ang)
        XX      34.2063     XY     -19.5844     YY     -80.6503
        XZ      -1.1259     YZ       0.5983     ZZ     -58.6150
    Octopole Moments (Debye-Ang^2)
       XXX     165.6057    XXY     -84.3745    XYY     -68.8323
       YYY     111.8106    XXZ      -3.2258    XYZ       0.2663
       YYZ       0.3825    XZZ     -72.4059    YZZ      29.0689
       ZZZ      -0.3861
    Hexadecapole Moments (Debye-Ang^3)
      XXXX    1481.7722   XXXY    -739.1578   XXYY    -496.5240
      XYYY     980.0181   YYYY   -1449.3472   XXXZ     -38.4675
      XXYZ      14.3318   XYYZ      -3.3330   YYYZ       1.6291
      XXZZ    -536.9660   XYZZ     254.3915   YYZZ    -197.1928
      XZZZ       2.9955   YZZZ       0.5340   ZZZZ     -69.9926
 -----------------------------------------------------------------
 Calculating analytic gradient of the SCF energy
 Gradient of CDS energy
            1           2           3           4           5           6
    1  -0.0005402   0.0002788  -0.0002240   0.0008069  -0.0003563  -0.0008357
    2   0.0001188   0.0000858  -0.0001069  -0.0003067  -0.0007458   0.0005090
    3   0.0000050  -0.0000016  -0.0000009  -0.0000366   0.0000078   0.0000055
            7           8           9          10          11          12
    1   0.0002115   0.0004924   0.0000997   0.0004533  -0.0000193   0.0000195
    2  -0.0002792   0.0002562   0.0000210  -0.0000343   0.0000014  -0.0000037
    3   0.0000115   0.0000115  -0.0000127  -0.0000128   0.0000070   0.0000099
           13          14          15          16
    1  -0.0002490  -0.0002236   0.0000306   0.0000556
    2   0.0002592   0.0002244   0.0000118  -0.0000108
    3   0.0002222  -0.0002124   0.0001467  -0.0001502
 Gradient of SCF Energy
            1           2           3           4           5           6
    1   0.0173595  -0.0093492   0.0141149  -0.0362940   0.0222681  -0.0029236
    2  -0.0046762  -0.0029161   0.0110014   0.0599345  -0.0371313  -0.0008161
    3   0.0002452  -0.0006409  -0.0002424  -0.0017089   0.0017818   0.0008014
            7           8           9          10          11          12
    1   0.0114896   0.0015571  -0.0082014  -0.0104144  -0.0141293   0.0112689
    2   0.0053922  -0.0104546   0.0004239  -0.0034171  -0.0009154  -0.0004984
    3  -0.0016578  -0.0009329   0.0008801   0.0008480   0.0001584  -0.0004187
           13          14          15          16
    1   0.0015095   0.0025310  -0.0004805  -0.0003062
    2  -0.0069114  -0.0086461   0.0000383  -0.0004077
    3  -0.0011391   0.0013628   0.0000697   0.0005934
 Max gradient component =       5.993E-02
 RMS gradient           =       1.328E-02
 Computing fast CPCM-SWIG gradient
 Updating gradient with PCM contributions...
 -- total gradient after adding PCM contribution --
---------------------------------------------------
  Atom         X              Y              Z     
---------------------------------------------------
   1       0.005889      -0.002573       0.000494
   2      -0.003450       0.000450      -0.001026
   3       0.005836       0.004923       0.000107
   4      -0.029938       0.056185      -0.001775
   5       0.021333      -0.039508       0.002020
   6      -0.003130       0.001558       0.000778
   7       0.008729       0.003702      -0.001533
   8       0.001339      -0.008413      -0.000861
   9      -0.004274      -0.001951       0.000735
  10      -0.004574      -0.000751       0.000693
  11      -0.004822       0.000277      -0.000032
  12       0.002646      -0.000099      -0.000230
  13       0.002136      -0.006009       0.002157
  14       0.003155      -0.007629      -0.002029
  15      -0.000534       0.000170       0.001585
  16      -0.000342      -0.000332      -0.001083
---------------------------------------------------
 Number of fixed atoms: 0
 Gradient time:  CPU 184.85 s  wall 9.62 s
 Geometry Optimization Parameters
   NAtoms,    NIC,     NZ,  NCons,   NDum,   NFix, NCnnct, MaxDiis
       16     128       0       0       0       0       0       0

 Cartesian Hessian Update
 Hessian updated using Powell/Murtagh-Sargent update
  Mixing factors:     0.991524 Powell                      0.008476 Murtagh-Sargent


** GEOMETRY OPTIMIZATION IN DELOCALIZED INTERNAL COORDINATES **
   Searching for a Transition State

   Optimization Cycle:   3

                       Coordinates (Angstroms)
     ATOM                X               Y               Z
      1  O        -2.0493672938    2.2515076088   -0.0125457717
      2  C        -1.4753965700    1.1117147676    0.0022146722
      3  O        -2.1597420616    0.0408672629    0.0557608106
      4  O        -0.1695763249    1.1015544519   -0.0352524253
      5  C         0.6435270618   -0.9887675153    0.0148285562
      6  O         2.6760310840   -1.9910995505   -0.0012634265
      7  C         4.0385305881   -2.0701582922   -0.0047600513
      8  C         2.1086082895   -0.6843180127    0.0064211837
      9  O         4.7168569960   -1.0175390647    0.0062779481
     10  O         4.5102715747   -3.2314281920   -0.0114512624
     11  Li       -3.6650044403    1.2292720582    0.0487127519
     12  Li        6.2109611517   -2.2820662304   -0.0320320132
     13  H         0.1992595500   -1.3829293468   -0.9023177186
     14  H         0.2199899572   -1.3991458375    0.9359325487
     15  H         2.3971588365   -0.1152905542   -0.8857056691
     16  H         2.4063316010   -0.1307335531    0.9058898667
   Point Group: c1    Number of degrees of freedom:    42


   Energy is   -620.747220430

 Hessian updated using Powell/Murtagh-Sargent update
  Mixing factors:     0.997482 Powell                      0.002518 Murtagh-Sargent

 42 Hessian modes will be used to form the next step
  Hessian Eigenvalues:
    -0.028590   -0.007020   -0.000572    0.000358    0.003871    0.004600
     0.007288    0.008970    0.014497    0.016491    0.023516    0.023793
     0.039487    0.042741    0.042973    0.045999    0.048825    0.059953
     0.069252    0.088938    0.092892    0.098303    0.123871    0.128058
     0.130359    0.139171    0.139701    0.188843    0.222230    0.286137
     0.335993    0.340034    0.350772    0.359203    0.362818    0.367665
     0.418201    0.441235    0.503389    0.533824    0.657821    0.661135
**WARNING** Hessian does not have the desired local structure
**WARNING** Hessian does not have the desired local structure

 Transition state search - taking P-RFO step
 Searching for Lamda that Maximizes Along the Lowest mode
 Value Taken    Lamda =   0.04648967
 Searching for Lamda that Minimizes Along All other modes
 Value Taken    Lamda =  -0.01470708
 Calculated Step too Large.  Step scaled by  0.303250
 Step Taken.  Stepsize is  0.300000

                             Maximum     Tolerance    Cnvgd?
         Gradient           0.030699      0.000300      NO
         Displacement       0.179296      0.001200      NO
         Energy change      0.010480      0.000001      NO


 New Cartesian Coordinates Obtained by Inverse Iteration

 Displacement from previous Coordinates is:  0.433688
 ----------------------------------------------------------------
             Standard Nuclear Orientation (Angstroms)
    I     Atom           X                Y                Z
 ----------------------------------------------------------------
    1      O      -2.0946410454     2.2594980702    -0.0412152470
    2      C      -1.4682706952     1.1436490518     0.0022762867
    3      O      -2.1183447559     0.0536079107     0.1486502556
    4      O      -0.1715389316     1.1679794092    -0.0956415213
    5      C       0.6496376720    -1.0271185093    -0.0273906489
    6      O       2.6810006563    -2.0070264073    -0.0257290880
    7      C       4.0434163595    -2.0781704387     0.0055774183
    8      C       2.1083566860    -0.6997604299    -0.0199674235
    9      O       4.7134924310    -1.0203029612     0.0543086691
   10      O       4.5260057882    -3.2345858439    -0.0074168828
   11      Li     -3.6497958666     1.1873623262     0.1403600391
   12      Li      6.2155517630    -2.2708065337     0.0352228125
   13      H       0.1880782018    -1.3681502960    -0.9570281357
   14      H       0.1960379728    -1.3869578946     0.8999025719
   15      H       2.4022562545    -0.1281051264    -0.9088733876
   16      H       2.3871975096    -0.1496723272     0.8876742817
 ----------------------------------------------------------------
 Nuclear Repulsion Energy =         546.32794178 hartrees
 There are       41 alpha and       41 beta electrons
 Discretize the solute cavity surface with Lebedev spheres
	Using 110 Lebedev grid points for each H atom
	Using 194 Lebedev grid points for other atoms
	Atomic van der Waals radii will be scaled by 1.20
 Remove points where switching function is < 1.0e-08
 Keep 1202 surface tesserae and discard 1566 interior tesserae
 Molecular Surface Area = 257.383 Angst**2
 Applying Cartesian multipole field
    Component          Value
    ---------          -----
     (2,0,0)        1.00000E-12
     (0,2,0)        2.00000E-11
     (0,0,2)       -3.00000E-11
 Nucleus-field energy     =     0.0000000197 hartrees
 Requested basis set is def2-SVPD
 There are 114 shells and 274 basis functions
 A cutoff of  1.0D-14 yielded   5956 shell pairs
 There are     34490 function pairs (     39668 Cartesian)
 Smallest overlap matrix eigenvalue = 3.65E-05
 Guess from superposition of atomic densities
 Warning:  Energy on first SCF cycle will be non-variational
 SAD guess density has 82.000000 electrons

 -----------------------------------------------------------------------
  General SCF calculation program by
  Eric Jon Sundstrom, Paul Horn, Yuezhi Mao, Dmitri Zuev, Alec White,
  David Stuck, Shaama M.S., Shane Yost, Joonho Lee, David Small,
  Daniel Levine, Susi Lehtola, Hugh Burton, Evgeny Epifanovsky,
  Bang C. Huynh
 -----------------------------------------------------------------------
 Exchange:     0.1670 Hartree-Fock + 1.0000 wB97X-V + LR-HF
 Correlation:  1.0000 wB97X-V
 Using SG-3 standard quadrature grid
 Nonlocal Correlation:  VV10 with C = 0.0100 and b = 6.00 and scale = 1.00000
 Grid used for NLC:  SG-1 standard quadrature
 
 Citation of the SMD model:
 Marenich, A.V.; Cramer, C.J.; Truhlar, D.G.
 J. Phys. Chem. B 2009, 113, 6378-6396.
 iSolventCode=           0
 Solvent: other                                                           
 
 vradii
            1           2           3           4           5           6
    1   2.2940000   1.8500000   2.2940000   2.2940000   1.8500000   2.2940000
            7           8           9          10          11          12
    1   1.8500000   1.8500000   2.2940000   2.2940000   2.1476001   2.1476001
           13          14          15          16
    1   1.2000000   1.2000000   1.2000000   1.2000000
 using 40 threads for integral computing
 -------------------------------------------------------
 OpenMP Integral computing Module                
 Release: version 1.0, May 2013, Q-Chem Inc. Pittsburgh 
 -------------------------------------------------------
 using 40 threads for integral computing
 -------------------------------------------------------
 OpenMP Integral computing Module                
 Release: version 1.0, May 2013, Q-Chem Inc. Pittsburgh 
 -------------------------------------------------------
 -------------------------------------------------------
 OpenMP BLAS3 based DFT computing Module                
 Release: version 1.0, May 2013, Q-Chem Inc. Pittsburgh 
 -------------------------------------------------------
 -------------------------------------------------------
 OpenMP BLAS3 based DFT computing Module                
 Release: version 1.0, May 2013, Q-Chem Inc. Pittsburgh 
 -------------------------------------------------------
 -------------------------------------------------------
 OpenMP BLAS3 based DFT computing Module                
 Release: version 1.0, May 2013, Q-Chem Inc. Pittsburgh 
 -------------------------------------------------------
 A restricted SCF calculation will be
 performed using DIIS
 SCF converges when DIIS error is below 1.0e-08
 ---------------------------------------
  Cycle       Energy         DIIS error
 ---------------------------------------
    1    -621.5165347106      3.61e-02  
    2    -620.3005083177      7.46e-03  
    3    -620.2062999606      8.71e-03  
    4    -620.7206321687      1.16e-03  
    5    -620.7293386731      4.96e-04  
    6    -620.7312283969      1.15e-04  
    7    -620.7313476181      4.06e-05  
    8    -620.7313668102      1.48e-05  
    9    -620.7313699226      5.09e-06  
   10    -620.7313705931      2.42e-06  
   11    -620.7313707024      9.93e-07  
   12    -620.7313707312      3.38e-07  
   13    -620.7313707357      1.64e-07  
   14    -620.7313707368      7.70e-08  
   15    -620.7313707370      3.02e-08  
   16    -620.7313707370      8.58e-09  Convergence criterion met
 ---------------------------------------
 SCF time:   CPU 1292.11s  wall 43.00s 
(3)  G-ENP(liq) elect-nuc-pol free energy of system     -620.731370737 a.u.
(4)  G-CDS(liq) cavity-dispersion-solvent structure 
     free energy                                               -4.0695 kcal/mol
(6)  G-S(liq) free energy of system                     -620.737855874 a.u.
 SCF   energy in the final basis set =     -620.7313707370
 Total energy in the final basis set =     -620.7378558738
 
 --------------------------------------------------------------
 
                    Orbital Energies (a.u.)
 --------------------------------------------------------------
 
 Alpha MOs
 -- Occupied --
-19.2764 -19.2092 -19.2072 -19.2018 -19.1651 -19.1642 -10.4459 -10.4061
-10.3995 -10.3586  -2.1157  -2.0835  -1.2467  -1.1807  -1.1502  -1.0982
 -1.0577  -1.0432  -0.9188  -0.7668  -0.6968  -0.6365  -0.6049  -0.6003
 -0.5971  -0.5784  -0.5492  -0.5413  -0.5402  -0.5356  -0.5093  -0.4874
 -0.4388  -0.4187  -0.3980  -0.3954  -0.3929  -0.3868  -0.3756  -0.3580
 -0.3334
 -- Virtual --
 -0.0339   0.0273   0.0305   0.0589   0.0617   0.0623   0.0634   0.0668
  0.0726   0.1129   0.1183   0.1306   0.1319   0.1355   0.1499   0.1593
  0.1640   0.1754   0.1802   0.1829   0.1887   0.1906   0.1943   0.1979
  0.1987   0.2074   0.2109   0.2212   0.2220   0.2248   0.2264   0.2334
  0.2419   0.2545   0.2633   0.2715   0.2757   0.2847   0.2922   0.3037
  0.3110   0.3130   0.3327   0.3351   0.3495   0.3614   0.3653   0.3757
  0.3782   0.3820   0.3870   0.3918   0.3977   0.4132   0.4189   0.4322
  0.4414   0.4439   0.4500   0.4554   0.4606   0.4739   0.4819   0.4898
  0.4962   0.5076   0.5193   0.5246   0.5411   0.5442   0.5495   0.5589
  0.5622   0.5693   0.5736   0.5773   0.5866   0.6034   0.6061   0.6082
  0.6110   0.6252   0.6289   0.6390   0.6407   0.6453   0.6474   0.6591
  0.6660   0.6677   0.6696   0.6862   0.6900   0.6916   0.7053   0.7174
  0.7218   0.7305   0.7354   0.7376   0.7491   0.7565   0.7615   0.7713
  0.7737   0.7756   0.7870   0.7984   0.8058   0.8114   0.8304   0.8340
  0.8422   0.8453   0.8598   0.8722   0.8819   0.8964   0.9040   0.9319
  0.9399   0.9533   0.9573   0.9736   0.9880   0.9989   1.0079   1.0268
  1.0707   1.0781   1.0925   1.1111   1.1258   1.1576   1.1728   1.1839
  1.2106   1.2222   1.2534   1.2620   1.3057   1.3126   1.3491   1.3582
  1.3860   1.4417   1.4908   1.5510   1.5581   1.5789   1.6034   1.6205
  1.6213   1.6494   1.6668   1.6848   1.6870   1.7219   1.7489   1.7580
  1.7865   1.7873   1.7962   1.8280   1.8379   1.8474   1.8796   1.9084
  1.9550   1.9754   2.0226   2.0311   2.0429   2.0541   2.0662   2.0730
  2.0780   2.0890   2.1057   2.1186   2.1507   2.1588   2.1631   2.1989
  2.2229   2.2485   2.2854   2.3076   2.3151   2.3582   2.3664   2.3823
  2.4171   2.4623   2.5278   2.5930   2.6041   2.6254   2.7887   2.9308
  2.9526   2.9559   2.9762   2.9937   2.9953   3.0116   3.0225   3.0311
  3.0466   3.0516   3.0665   3.0710   3.0835   3.1191   3.1544   3.1640
  3.1789   3.2166   3.2813   3.3272   3.3483   3.3710   3.3770   3.4119
  3.4520   3.5120   3.6762   3.8124   3.8577   3.8701   3.9034   3.9162
  3.9714
 --------------------------------------------------------------
 
          Ground-State Mulliken Net Atomic Charges

     Atom                 Charge (a.u.)
  ----------------------------------------
      1 O                    -1.010574
      2 C                     1.200905
      3 O                    -1.074514
      4 O                    -0.689874
      5 C                     0.382688
      6 O                    -0.675285
      7 C                     1.145610
      8 C                     0.494170
      9 O                    -0.940959
     10 O                    -0.948225
     11 Li                    1.032659
     12 Li                    1.058170
     13 H                    -0.078153
     14 H                    -0.042123
     15 H                     0.070671
     16 H                     0.074834
  ----------------------------------------
  Sum of atomic charges =     0.000000

  Building new vdw surfaces
         Merz-Kollman RESP Net Atomic Charges

     Atom                 Charge (a.u.)
  ----------------------------------------
      1 O                    -0.792914
      2 C                     1.031859
      3 O                    -0.792914
      4 O                    -0.992798
      5 C                     1.385616
      6 O                    -0.992798
      7 C                     1.031859
      8 C                     1.385616
      9 O                    -0.792914
     10 O                    -0.792914
     11 Li                    0.815668
     12 Li                    0.815668
     13 H                    -0.327258
     14 H                    -0.327258
     15 H                    -0.327258
     16 H                    -0.327258
  ----------------------------------------
  Sum of atomic charges =     0.000000

  Related Dipole Moment =     4.6564 (X  1.9282 Y -4.2057 Z  0.5258)

 -----------------------------------------------------------------
                    Cartesian Multipole Moments
 -----------------------------------------------------------------
    Charge (ESU x 10^10)
                 0.0000
    Dipole Moment (Debye)
         X       4.1297      Y      -4.9032      Z       0.4278
       Tot       6.4249
    Quadrupole Moments (Debye-Ang)
        XX      33.5811     XY     -18.0702     YY     -81.6194
        XZ      -0.9553     YZ       1.0413     ZZ     -58.5606
    Octopole Moments (Debye-Ang^2)
       XXX     173.0317    XXY     -88.7680    XYY     -66.5874
       YYY     108.0923    XXZ       8.5275    XYZ      -5.3743
       YYZ       3.2105    XZZ     -72.2424    YZZ      28.4428
       ZZZ      -0.5165
    Hexadecapole Moments (Debye-Ang^3)
      XXXX    1475.9902   XXXY    -701.4942   XXYY    -521.1999
      XYYY     998.6225   YYYY   -1471.8621   XXXZ      -2.6077
      XXYZ      -0.1796   XYYZ       2.2337   YYYZ       2.8029
      XXZZ    -537.5896   XYZZ     256.5925   YYZZ    -199.9935
      XZZZ       2.7116   YZZZ       3.1473   ZZZZ     -71.3292
 -----------------------------------------------------------------
 Calculating analytic gradient of the SCF energy
 Gradient of CDS energy
            1           2           3           4           5           6
    1  -0.0005773   0.0003368  -0.0002192   0.0007926  -0.0003443  -0.0008366
    2   0.0001137   0.0001186  -0.0001433  -0.0003209  -0.0007882   0.0005090
    3   0.0000227   0.0000162   0.0000006  -0.0000909   0.0000417  -0.0000110
            7           8           9          10          11          12
    1   0.0002033   0.0005185   0.0001019   0.0004573  -0.0000220   0.0000198
    2  -0.0002889   0.0002678   0.0000232  -0.0000270   0.0000024  -0.0000038
    3   0.0000148  -0.0000115  -0.0000094   0.0000003   0.0000133   0.0000110
           13          14          15          16
    1  -0.0002392  -0.0002710   0.0000168   0.0000627
    2   0.0002823   0.0002430   0.0000212  -0.0000091
    3   0.0002253  -0.0002273   0.0001505  -0.0001463
 Gradient of SCF Energy
            1           2           3           4           5           6
    1   0.0157015  -0.0068885   0.0118958  -0.0320708   0.0205833  -0.0028391
    2  -0.0034342  -0.0035992   0.0108249   0.0538894  -0.0372326  -0.0010235
    3  -0.0000622  -0.0009332  -0.0006502  -0.0010181   0.0016237   0.0007091
            7           8           9          10          11          12
    1   0.0087995   0.0011376  -0.0066227  -0.0087238  -0.0129017   0.0107368
    2   0.0040219  -0.0082865   0.0016892  -0.0040283  -0.0015609  -0.0004075
    3  -0.0017998  -0.0010722   0.0009351   0.0006407   0.0005567  -0.0001257
           13          14          15          16
    1   0.0002337   0.0015630  -0.0002034  -0.0004011
    2  -0.0048556  -0.0063617   0.0004085  -0.0000439
    3  -0.0033647   0.0038018  -0.0016102   0.0023693
 Max gradient component =       5.389E-02
 RMS gradient           =       1.210E-02
 Computing fast CPCM-SWIG gradient
 Updating gradient with PCM contributions...
 -- total gradient after adding PCM contribution --
---------------------------------------------------
  Atom         X              Y              Z     
---------------------------------------------------
   1       0.003976      -0.001837       0.000660
   2      -0.001614       0.000236      -0.001880
   3       0.004160       0.003866       0.000343
   4      -0.024839       0.050015      -0.001263
   5       0.018660      -0.039775       0.001669
   6      -0.002650       0.000954       0.000831
   7       0.006334       0.002787      -0.001772
   8       0.001045      -0.005423      -0.000790
   9      -0.003178      -0.001318       0.000816
  10      -0.003500      -0.000728       0.000718
  11      -0.003733       0.000182       0.000005
  12       0.002229      -0.000055      -0.000194
  13       0.001282      -0.003705       0.001173
  14       0.002521      -0.005074      -0.000843
  15      -0.000300       0.000178       0.001243
  16      -0.000389      -0.000304      -0.000717
---------------------------------------------------
 Number of fixed atoms: 0
 Gradient time:  CPU 185.55 s  wall 9.52 s
 Geometry Optimization Parameters
   NAtoms,    NIC,     NZ,  NCons,   NDum,   NFix, NCnnct, MaxDiis
       16     128       0       0       0       0       0       0

 Cartesian Hessian Update
 Hessian updated using Powell/Murtagh-Sargent update
  Mixing factors:     0.998316 Powell                      0.001684 Murtagh-Sargent


** GEOMETRY OPTIMIZATION IN DELOCALIZED INTERNAL COORDINATES **
   Searching for a Transition State

   Optimization Cycle:   4

                       Coordinates (Angstroms)
     ATOM                X               Y               Z
      1  O        -2.0946410454    2.2594980702   -0.0412152470
      2  C        -1.4682706952    1.1436490518    0.0022762867
      3  O        -2.1183447559    0.0536079107    0.1486502556
      4  O        -0.1715389316    1.1679794092   -0.0956415213
      5  C         0.6496376720   -1.0271185093   -0.0273906489
      6  O         2.6810006563   -2.0070264073   -0.0257290880
      7  C         4.0434163595   -2.0781704387    0.0055774183
      8  C         2.1083566860   -0.6997604299   -0.0199674235
      9  O         4.7134924310   -1.0203029612    0.0543086691
     10  O         4.5260057882   -3.2345858439   -0.0074168828
     11  Li       -3.6497958666    1.1873623262    0.1403600391
     12  Li        6.2155517630   -2.2708065337    0.0352228125
     13  H         0.1880782018   -1.3681502960   -0.9570281357
     14  H         0.1960379728   -1.3869578946    0.8999025719
     15  H         2.4022562545   -0.1281051264   -0.9088733876
     16  H         2.3871975096   -0.1496723272    0.8876742817
   Point Group: c1    Number of degrees of freedom:    42


   Energy is   -620.737855874

 Hessian updated using Powell/Murtagh-Sargent update
  Mixing factors:     0.906721 Powell                      0.093279 Murtagh-Sargent

 42 Hessian modes will be used to form the next step
  Hessian Eigenvalues:
    -0.028603   -0.003101   -0.000474    0.000444    0.003925    0.004599
     0.007312    0.008984    0.014499    0.016497    0.023516    0.023848
     0.038767    0.042928    0.043009    0.045998    0.048854    0.060035
     0.069370    0.088882    0.092996    0.098289    0.123872    0.128094
     0.130346    0.139175    0.139698    0.188791    0.222264    0.286303
     0.335995    0.340189    0.350773    0.359224    0.362828    0.367664
     0.418211    0.441252    0.503401    0.533824    0.657875    0.661134
**WARNING** Hessian does not have the desired local structure
**WARNING** Hessian does not have the desired local structure

 Transition state search - taking P-RFO step
 Searching for Lamda that Maximizes Along the Lowest mode
 Value Taken    Lamda =   0.03967247
 Searching for Lamda that Minimizes Along All other modes
 Value Taken    Lamda =  -0.01198940
 Calculated Step too Large.  Step scaled by  0.296114
 Step Taken.  Stepsize is  0.300000

                             Maximum     Tolerance    Cnvgd?
[...]
 -0.5922  -0.5861  -0.5676  -0.5589  -0.5386  -0.5204  -0.4930  -0.4737
 -0.4500  -0.4273  -0.4111  -0.4016  -0.3905  -0.3856  -0.3812  -0.3787
 -0.3406
 -- Virtual --
  0.0233   0.0267   0.0324   0.0564   0.0610   0.0635   0.0648   0.0675
  0.0825   0.1128   0.1152   0.1229   0.1358   0.1476   0.1544   0.1610
  0.1641   0.1706   0.1726   0.1824   0.1884   0.1984   0.2006   0.2031
  0.2053   0.2070   0.2101   0.2127   0.2179   0.2215   0.2440   0.2442
  0.2503   0.2596   0.2705   0.2754   0.2845   0.2933   0.2953   0.3090
  0.3159   0.3289   0.3340   0.3451   0.3492   0.3659   0.3681   0.3791
  0.3835   0.3955   0.3974   0.4012   0.4068   0.4117   0.4332   0.4465
  0.4496   0.4579   0.4658   0.4756   0.4872   0.4908   0.4911   0.4957
  0.5058   0.5150   0.5279   0.5382   0.5441   0.5477   0.5544   0.5705
  0.5776   0.5830   0.5936   0.5994   0.6028   0.6065   0.6093   0.6177
  0.6220   0.6265   0.6296   0.6331   0.6393   0.6496   0.6534   0.6641
  0.6661   0.6786   0.6824   0.6906   0.7023   0.7084   0.7149   0.7234
  0.7297   0.7360   0.7489   0.7579   0.7654   0.7686   0.7755   0.7847
  0.7896   0.7951   0.8027   0.8162   0.8275   0.8314   0.8417   0.8516
  0.8608   0.8712   0.8934   0.8956   0.9035   0.9289   0.9438   0.9505
  0.9637   0.9798   0.9874   0.9981   1.0153   1.0355   1.0436   1.0642
  1.0790   1.1096   1.1257   1.1411   1.1655   1.1754   1.2016   1.2144
  1.2165   1.2453   1.2636   1.2682   1.3101   1.3346   1.3746   1.3857
  1.4147   1.5080   1.5187   1.5688   1.5929   1.6187   1.6317   1.6435
  1.6564   1.6772   1.6974   1.6991   1.7246   1.7286   1.7480   1.7528
  1.7795   1.8038   1.8241   1.8284   1.9065   1.9173   1.9456   1.9638
  1.9968   2.0145   2.0271   2.0297   2.0516   2.0661   2.0764   2.0941
  2.1005   2.1226   2.1389   2.1737   2.2071   2.2115   2.2281   2.2403
  2.2496   2.2805   2.2947   2.3320   2.3689   2.3795   2.3927   2.4337
  2.4652   2.4833   2.5894   2.6077   2.6850   2.7446   2.7987   2.9133
  2.9589   2.9657   2.9819   2.9894   3.0095   3.0233   3.0295   3.0392
  3.0482   3.0637   3.0647   3.0703   3.0934   3.1459   3.1821   3.2127
  3.2443   3.2901   3.2995   3.3279   3.3660   3.3734   3.3995   3.4235
  3.4415   3.5104   3.6738   3.8167   3.8325   3.8726   3.9008   3.9594
  3.9751
 --------------------------------------------------------------
 
          Ground-State Mulliken Net Atomic Charges

     Atom                 Charge (a.u.)
  ----------------------------------------
      1 O                    -1.004231
      2 C                     1.429144
      3 O                    -1.142779
      4 O                    -0.835455
      5 C                     0.500310
      6 O                    -0.698170
      7 C                     1.197317
      8 C                     0.559308
      9 O                    -0.974438
     10 O                    -0.978327
     11 Li                    1.034859
     12 Li                    1.052454
     13 H                    -0.124866
     14 H                    -0.117054
     15 H                     0.044556
     16 H                     0.057373
  ----------------------------------------
  Sum of atomic charges =     0.000000

  Building new vdw surfaces
         Merz-Kollman RESP Net Atomic Charges

     Atom                 Charge (a.u.)
  ----------------------------------------
      1 O                    -0.777157
      2 C                     0.896388
      3 O                    -0.777157
      4 O                    -0.731035
      5 C                     0.722377
      6 O                    -0.731035
      7 C                     0.896388
      8 C                     0.722377
      9 O                    -0.777157
     10 O                    -0.777157
     11 Li                    0.842961
     12 Li                    0.842961
     13 H                    -0.088189
     14 H                    -0.088189
     15 H                    -0.088189
     16 H                    -0.088189
  ----------------------------------------
  Sum of atomic charges =     0.000000

  Related Dipole Moment =     6.3199 (X  1.2496 Y -2.1031 Z  5.8272)

 -----------------------------------------------------------------
                    Cartesian Multipole Moments
 -----------------------------------------------------------------
    Charge (ESU x 10^10)
                 0.0000
    Dipole Moment (Debye)
         X       2.1633      Y      -2.8649      Z       5.8990
       Tot       6.9055
    Quadrupole Moments (Debye-Ang)
        XX       2.2814     XY      -4.6527     YY     -83.5101
        XZ       0.2366     YZ       4.0397     ZZ     -47.4796
    Octopole Moments (Debye-Ang^2)
       XXX     133.8119    XXY     -50.2106    XYY     -97.9405
       YYY     126.4899    XXZ     114.7794    XYZ     -32.1029
       YYZ       0.7192    XZZ     -85.5415    YZZ      30.9608
       ZZZ      16.1702
    Hexadecapole Moments (Debye-Ang^3)
      XXXX     499.8033   XXXY    -155.2586   XXYY    -591.2736
      XYYY     839.9574   YYYY   -1223.8133   XXXZ     438.9782
      XXYZ    -129.5851   XYYZ       8.9680   YYYZ      28.2877
      XXZZ    -263.0650   XYZZ     146.0776   YYZZ    -180.2419
      XZZZ     -78.6715   YZZZ      40.3925   ZZZZ    -142.7182
 -----------------------------------------------------------------
 Calculating analytic gradient of the SCF energy
 Gradient of CDS energy
            1           2           3           4           5           6
    1  -0.0005398  -0.0000535   0.0001767   0.0006920  -0.0005862  -0.0008655
    2  -0.0001714   0.0010249  -0.0001678  -0.0008714  -0.0008174   0.0003753
    3   0.0006938  -0.0008199   0.0002265  -0.0000913  -0.0005637  -0.0001775
            7           8           9          10          11          12
    1   0.0000303   0.0004898   0.0001039   0.0004624  -0.0000169   0.0000241
    2  -0.0003146   0.0000868   0.0000571   0.0000079   0.0000150  -0.0000020
    3   0.0000233   0.0000678   0.0000467   0.0001549   0.0000183   0.0000080
           13          14          15          16
    1   0.0000372   0.0001048  -0.0000970   0.0000377
    2   0.0004867   0.0002054   0.0001300  -0.0000445
    3   0.0001170   0.0003098   0.0001076  -0.0001213
 Gradient of SCF Energy
            1           2           3           4           5           6
    1   0.0074806  -0.0024822   0.0031390  -0.0037184  -0.0002166   0.0012203
    2   0.0008714  -0.0060288   0.0051080   0.0072648  -0.0010749  -0.0035349
    3  -0.0093611   0.0069882  -0.0057406   0.0004265   0.0003644   0.0002286
            7           8           9          10          11          12
    1   0.0034415   0.0020710  -0.0053379  -0.0072443  -0.0052100   0.0082106
    2   0.0040973   0.0013840  -0.0004156  -0.0009425  -0.0026591   0.0003872
    3   0.0013243  -0.0001092  -0.0021211  -0.0027143   0.0071473   0.0030039
           13          14          15          16
    1  -0.0005433   0.0002718  -0.0011499   0.0000679
    2  -0.0003341  -0.0004817  -0.0015458  -0.0020954
    3  -0.0001671   0.0003656   0.0030505  -0.0026859
 Max gradient component =       9.361E-03
 RMS gradient           =       3.831E-03
 Computing fast CPCM-SWIG gradient
 Updating gradient with PCM contributions...
 -- total gradient after adding PCM contribution --
---------------------------------------------------
  Atom         X              Y              Z     
---------------------------------------------------
   1      -0.000000      -0.000003      -0.000001
   2       0.000014       0.000024      -0.000022
   3       0.000008      -0.000010      -0.000014
   4      -0.000012       0.000014       0.000003
   5      -0.000015      -0.000027       0.000019
   6      -0.000002       0.000001       0.000008
   7       0.000001       0.000002      -0.000003
   8      -0.000002      -0.000003       0.000006
   9      -0.000001       0.000001       0.000003
  10      -0.000001      -0.000000       0.000005
  11      -0.000001       0.000005      -0.000005
  12       0.000002       0.000002       0.000006
  13      -0.000002       0.000001       0.000000
  14       0.000011      -0.000012      -0.000006
  15      -0.000001       0.000003       0.000002
  16      -0.000000       0.000001      -0.000001
---------------------------------------------------
 Number of fixed atoms: 0
 Gradient time:  CPU 198.34 s  wall 9.85 s
 Geometry Optimization Parameters
   NAtoms,    NIC,     NZ,  NCons,   NDum,   NFix, NCnnct, MaxDiis
       16     128       0       0       0       0       0       0

 Cartesian Hessian Update
 Hessian updated using Powell/Murtagh-Sargent update
  Mixing factors:     0.996294 Powell                      0.003706 Murtagh-Sargent


** GEOMETRY OPTIMIZATION IN DELOCALIZED INTERNAL COORDINATES **
   Searching for a Transition State

   Optimization Cycle:  71

                       Coordinates (Angstroms)
     ATOM                X               Y               Z
      1  O        -1.5306266110    1.9993631841    0.4187485708
      2  C        -0.8774678940    0.9938802645    0.0027880683
      3  O        -1.0400410837   -0.1602199285    0.6048647246
      4  O        -0.0513824115    0.9711657671   -0.9636366330
      5  C         0.3220102079   -1.0152038276   -0.7061389062
      6  O         2.3997151594   -1.9247454509   -0.1423639661
      7  C         3.6799942514   -1.8754058375    0.2818631600
      8  C         1.7503899691   -0.6727084191   -0.3978752848
      9  O         4.2442175681   -0.7611864753    0.4527697096
     10  O         4.2477698242   -2.9790248282    0.4879851250
     11  Li       -2.2677036450    0.8281756840    1.6950800470
     12  Li        5.7340575264   -1.8672048566    0.9663717182
     13  H         0.0109151789   -1.0539512902   -1.7499862774
     14  H        -0.0471237014   -1.8559793269   -0.1184887140
     15  H         2.2341254465   -0.1534975305   -1.2355955992
     16  H         1.7995902147   -0.0320171284    0.4943242572
   Point Group: c1    Number of degrees of freedom:    42


   Energy is   -620.745839190

 Hessian updated using Powell/Murtagh-Sargent update
  Mixing factors:     0.988463 Powell                      0.011537 Murtagh-Sargent

 42 Hessian modes will be used to form the next step
  Hessian Eigenvalues:
    -0.198797    0.002163    0.002473    0.004580    0.006236    0.007939
     0.014764    0.015748    0.017877    0.021372    0.023941    0.025904
     0.034558    0.043778    0.048832    0.049571    0.062263    0.075396
     0.086359    0.097791    0.113819    0.119864    0.124836    0.138548
     0.139914    0.144710    0.209528    0.227509    0.276825    0.335186
     0.338130    0.350974    0.356895    0.363016    0.367820    0.373182
     0.440484    0.474134    0.508490    0.533828    0.661004    0.693665

 Transition state search - taking P-RFO step
 Searching for Lamda that Maximizes Along the Lowest mode
 Value Taken    Lamda =   0.00000001
 Searching for Lamda that Minimizes Along All other modes
 Value Taken    Lamda =  -0.00000003
 Step Taken.  Stepsize is  0.002853

                             Maximum     Tolerance    Cnvgd?
         Gradient           0.000023      0.000300     YES
         Displacement       0.001849      0.001200      NO
         Energy change     -0.000000      0.000001     YES

 Final energy is   -620.745839190333     


 ******************************
 **  OPTIMIZATION CONVERGED  **
 ******************************

                       Coordinates (Angstroms)
     ATOM                X               Y               Z
      1  O        -1.5306266110    1.9993631841    0.4187485708
      2  C        -0.8774678940    0.9938802645    0.0027880683
      3  O        -1.0400410837   -0.1602199285    0.6048647246
      4  O        -0.0513824115    0.9711657671   -0.9636366330
      5  C         0.3220102079   -1.0152038276   -0.7061389062
      6  O         2.3997151594   -1.9247454509   -0.1423639661
      7  C         3.6799942514   -1.8754058375    0.2818631600
      8  C         1.7503899691   -0.6727084191   -0.3978752848
      9  O         4.2442175681   -0.7611864753    0.4527697096
     10  O         4.2477698242   -2.9790248282    0.4879851250
     11  Li       -2.2677036450    0.8281756840    1.6950800470
     12  Li        5.7340575264   -1.8672048566    0.9663717182
     13  H         0.0109151789   -1.0539512902   -1.7499862774
     14  H        -0.0471237014   -1.8559793269   -0.1184887140
     15  H         2.2341254465   -0.1534975305   -1.2355955992
     16  H         1.7995902147   -0.0320171284    0.4943242572

Z-matrix Print:
$molecule
0 1
O 
C  1 1.349636
O  2 1.258106 1 116.585410
O  2 1.260572 1 119.968309 3 -179.929945 0
C  1 1.433355 2 116.989673 3 -179.150908 0
H  5 1.097887 1 110.457593 2 64.909689 0
H  5 1.099512 1 110.125197 2 -55.411866 0
C  5 1.500866 1 105.569885 2 -174.127804 0
H  8 1.089908 5 118.455133 1 -99.589396 0
H  8 1.090182 5 112.800555 1 35.785199 0
Li 3 1.916781 2 83.223710 1 -179.921444 0
O  8 2.037496 5 88.733345 1 -179.815152 0
C  12 1.271578 8 92.316524 5 -117.353689 0
O  13 1.269108 12 126.698636 8 -179.957983 0
O  13 1.311821 12 114.432224 8 0.145482 0
Li 14 1.882547 13 86.033219 12 179.884184 0
$end

 
 --------------------------------------------------------------
 
                    Orbital Energies (a.u.)
 --------------------------------------------------------------
 
 Alpha MOs
 -- Occupied --
-19.2648 -19.2037 -19.1998 -19.1990 -19.1947 -19.1837 -10.4387 -10.4156
-10.3808 -10.3459  -2.1066  -2.1003  -1.2385  -1.2077  -1.1400  -1.0874
 -1.0852  -1.0652  -0.9023  -0.7580  -0.6904  -0.6273  -0.6174  -0.5989
 -0.5922  -0.5861  -0.5676  -0.5589  -0.5386  -0.5204  -0.4930  -0.4737
 -0.4500  -0.4273  -0.4111  -0.4016  -0.3905  -0.3856  -0.3812  -0.3787
 -0.3406
 -- Virtual --
  0.0233   0.0267   0.0324   0.0564   0.0610   0.0635   0.0648   0.0675
  0.0825   0.1128   0.1152   0.1229   0.1358   0.1476   0.1544   0.1610
  0.1641   0.1706   0.1726   0.1824   0.1884   0.1984   0.2006   0.2031
  0.2053   0.2070   0.2101   0.2127   0.2179   0.2215   0.2440   0.2442
  0.2503   0.2596   0.2705   0.2754   0.2845   0.2933   0.2953   0.3090
  0.3159   0.3289   0.3340   0.3451   0.3492   0.3659   0.3681   0.3791
  0.3835   0.3955   0.3974   0.4012   0.4068   0.4117   0.4332   0.4465
  0.4496   0.4579   0.4658   0.4756   0.4872   0.4908   0.4911   0.4957
  0.5058   0.5150   0.5279   0.5382   0.5441   0.5477   0.5544   0.5705
  0.5776   0.5830   0.5936   0.5994   0.6028   0.6065   0.6093   0.6177
  0.6220   0.6265   0.6296   0.6331   0.6393   0.6496   0.6534   0.6641
  0.6661   0.6786   0.6824   0.6906   0.7023   0.7084   0.7149   0.7234
  0.7297   0.7360   0.7489   0.7579   0.7654   0.7686   0.7755   0.7847
  0.7896   0.7951   0.8027   0.8162   0.8275   0.8314   0.8417   0.8516
  0.8608   0.8712   0.8934   0.8956   0.9035   0.9289   0.9438   0.9505
  0.9637   0.9798   0.9874   0.9981   1.0153   1.0355   1.0436   1.0642
  1.0790   1.1096   1.1257   1.1411   1.1655   1.1754   1.2016   1.2144
  1.2165   1.2453   1.2636   1.2682   1.3101   1.3346   1.3746   1.3857
  1.4147   1.5080   1.5187   1.5688   1.5929   1.6187   1.6317   1.6435
  1.6564   1.6772   1.6974   1.6991   1.7246   1.7286   1.7480   1.7528
  1.7795   1.8038   1.8241   1.8284   1.9065   1.9173   1.9456   1.9638
  1.9968   2.0145   2.0271   2.0297   2.0516   2.0661   2.0764   2.0941
  2.1005   2.1226   2.1389   2.1737   2.2071   2.2115   2.2281   2.2403
  2.2496   2.2805   2.2947   2.3320   2.3689   2.3795   2.3927   2.4337
  2.4652   2.4833   2.5894   2.6077   2.6850   2.7446   2.7987   2.9133
  2.9589   2.9657   2.9819   2.9894   3.0095   3.0233   3.0295   3.0392
  3.0482   3.0637   3.0647   3.0703   3.0934   3.1459   3.1821   3.2127
  3.2443   3.2901   3.2995   3.3279   3.3660   3.3734   3.3995   3.4235
  3.4415   3.5104   3.6738   3.8167   3.8325   3.8726   3.9008   3.9594
  3.9751
 --------------------------------------------------------------
 
          Ground-State Mulliken Net Atomic Charges

     Atom                 Charge (a.u.)
  ----------------------------------------
      1 O                    -1.004231
      2 C                     1.429144
      3 O                    -1.142779
      4 O                    -0.835455
      5 C                     0.500310
      6 O                    -0.698170
      7 C                     1.197317
      8 C                     0.559308
      9 O                    -0.974438
     10 O                    -0.978327
     11 Li                    1.034859
     12 Li                    1.052454
     13 H                    -0.124866
     14 H                    -0.117054
     15 H                     0.044556
     16 H                     0.057373
  ----------------------------------------
  Sum of atomic charges =     0.000000

         Merz-Kollman RESP Net Atomic Charges

     Atom                 Charge (a.u.)
  ----------------------------------------
      1 O                    -0.777157
      2 C                     0.896388
      3 O                    -0.777157
      4 O                    -0.731035
      5 C                     0.722377
      6 O                    -0.731035
      7 C                     0.896388
      8 C                     0.722377
      9 O                    -0.777157
     10 O                    -0.777157
     11 Li                    0.842961
     12 Li                    0.842961
     13 H                    -0.088189
     14 H                    -0.088189
     15 H                    -0.088189
     16 H                    -0.088189
  ----------------------------------------
  Sum of atomic charges =     0.000000

  Related Dipole Moment =     6.3199 (X  1.2496 Y -2.1031 Z  5.8272)

 -----------------------------------------------------------------
                    Cartesian Multipole Moments
 -----------------------------------------------------------------
    Charge (ESU x 10^10)
                 0.0000
    Dipole Moment (Debye)
         X       2.1633      Y      -2.8649      Z       5.8990
       Tot       6.9055
    Quadrupole Moments (Debye-Ang)
        XX       2.2814     XY      -4.6527     YY     -83.5101
        XZ       0.2366     YZ       4.0397     ZZ     -47.4796
    Octopole Moments (Debye-Ang^2)
       XXX     133.8119    XXY     -50.2106    XYY     -97.9405
       YYY     126.4899    XXZ     114.7794    XYZ     -32.1029
       YYZ       0.7192    XZZ     -85.5415    YZZ      30.9608
       ZZZ      16.1702
    Hexadecapole Moments (Debye-Ang^3)
      XXXX     499.8033   XXXY    -155.2586   XXYY    -591.2736
      XYYY     839.9574   YYYY   -1223.8133   XXXZ     438.9782
      XXYZ    -129.5851   XYYZ       8.9680   YYYZ      28.2877
      XXZZ    -263.0650   XYZZ     146.0776   YYZZ    -180.2419
      XZZZ     -78.6715   YZZZ      40.3925   ZZZZ    -142.7182
 -----------------------------------------------------------------
Archival summary:
1\1\n0234.lr6\TS\ProcedureUnspecified\BasisUnspecified\64i24\ewcspott\SunJan1003:50:092021SunJan1003:50:092021\0\\#,TS,ProcedureUnspecified,BasisUnspecified,\\0,1\O\C,1,1.34964\O,2,1.25811,1,116.585\O,2,1.26057,1,119.968,3,-179.93,0\C,1,1.43335,2,116.99,3,-179.151,0\H,5,1.09789,1,110.458,2,64.9097,0\H,5,1.09951,1,110.125,2,-55.4119,0\C,5,1.50087,1,105.57,2,-174.128,0\H,8,1.08991,5,118.455,1,-99.5894,0\H,8,1.09018,5,112.801,1,35.7852,0\Li,3,1.91678,2,83.2237,1,-179.921,0\O,8,2.0375,5,88.7333,1,-179.815,0\C,12,1.27158,8,92.3165,5,-117.354,0\O,13,1.26911,12,126.699,8,-179.958,0\O,13,1.31182,12,114.432,8,0.145482,0\Li,14,1.88255,13,86.0332,12,179.884,0\\\@

 Total job time:  3890.99s(wall), 111425.90s(cpu) 
 Sun Jan 10 03:50:09 2021

        *************************************************************
        *                                                           *
        *  Thank you very much for using Q-Chem.  Have a nice day.  *
        *                                                           *
        *************************************************************


