 vasp.6.0.8 29Jun18 (build Jun 13 2019 12:54:44) complex                        
  
 executed on      IFC18_CrayMPICH date 2019.12.19  12:51:37
 running   32 mpi-ranks, with    4 threads/rank
 distrk:  each k-point on   32 cores,    1 groups
 distr:  one band on NCORES_PER_BAND=   1 cores,   32 groups


--------------------------------------------------------------------------------------------------------


 INCAR:
 POTCAR:    PAW_PBE Li_sv 10Sep2004               
 POTCAR:    PAW_PBE F 08Apr2002                   
 POTCAR:    PAW_PBE Li_sv 10Sep2004               
   VRHFIN =Li: 1s2s2p                                                           
   LEXCH  = PE                                                                  
   EATOM  =   202.7858 eV,   14.9043 Ry                                         
                                                                                
   TITEL  = PAW_PBE Li_sv 10Sep2004                                             
   LULTRA =        F    use ultrasoft PP ?                                      
   IUNSCR =        0    unscreen: 0-lin 1-nonlin 2-no                           
   RPACOR =    0.000    partial core radius                                     
   POMASS =    7.010; ZVAL   =    3.000    mass and valenz                      
   RCORE  =    1.700    outmost cutoff radius                                   
   RWIGS  =    2.050; RWIGS  =    1.085    wigner-seitz radius (au A)           
   ENMAX  =  499.034; ENMIN  =  374.276 eV                                      
   ICORE  =        2    local potential                                         
   LCOR   =        T    correct aug charges                                     
   LPAW   =        T    paw PP                                                  
   EAUG   =  628.945                                                            
   RMAX   =    1.732    core radius for proj-oper                               
   RAUG   =    1.300    factor for augmentation sphere                          
   RDEP   =    1.728    radius for radial grids                                 
   RDEPT  =    1.329    core radius for aug-charge                              
                                                                                
   Atomic configuration                                                         
    4 entries                                                                   
     n  l   j            E        occ.                                          
     1  0  0.50       -51.8549   2.0000                                         
     2  0  0.50        -2.8742   1.0000                                         
     2  1  0.50        -1.3606   0.0000                                         
     3  2  1.50        -1.3606   0.0000                                         
   Description                                                                  
     l       E           TYP  RCUT    TYP  RCUT                                 
     0    -51.8548813     23  1.400                                             
     0     -2.8742052     23  1.700                                             
     1     -1.3605826     23  1.400                                             
     2     -1.3605826     23  1.400                                             
  local pseudopotential read in
  atomic valenz-charges read in
  non local Contribution for L=           0  read in
    real space projection operators read in
  non local Contribution for L=           0  read in
    real space projection operators read in
  non local Contribution for L=           1  read in
    real space projection operators read in
    PAW grid and wavefunctions read in
 
   number of l-projection  operators is LMAX  =           3
   number of lm-projection operators is LMMAX =           5
 
 POTCAR:    PAW_PBE F 08Apr2002                   
   VRHFIN =F: s2p5                                                              
   LEXCH  = PE                                                                  
   EATOM  =   659.6475 eV,   48.4827 Ry                                         
                                                                                
   TITEL  = PAW_PBE F 08Apr2002                                                 
   LULTRA =        F    use ultrasoft PP ?                                      
   IUNSCR =        1    unscreen: 0-lin 1-nonlin 2-no                           
   RPACOR =    1.200    partial core radius                                     
   POMASS =   18.998; ZVAL   =    7.000    mass and valenz                      
   RCORE  =    1.520    outmost cutoff radius                                   
   RWIGS  =    1.500; RWIGS  =    0.794    wigner-seitz radius (au A)           
   ENMAX  =  400.000; ENMIN  =  300.000 eV                                      
   ICORE  =        2    local potential                                         
   LCOR   =        T    correct aug charges                                     
   LPAW   =        T    paw PP                                                  
   EAUG   =  613.614                                                            
   RMAX   =    1.555    core radius for proj-oper                               
   RAUG   =    1.300    factor for augmentation sphere                          
   RDEP   =    1.539    radius for radial grids                                 
   RDEPT  =    1.299    core radius for aug-charge                              
                                                                                
   Atomic configuration                                                         
    4 entries                                                                   
     n  l   j            E        occ.                                          
     1  0  0.50      -663.3661   2.0000                                         
     2  0  0.50       -29.8995   2.0000                                         
     2  1  0.50       -11.1114   5.0000                                         
     3  2  1.50       -10.8847   0.0000                                         
   Description                                                                  
     l       E           TYP  RCUT    TYP  RCUT                                 
     0    -29.8995018     23  1.200                                             
     0     -9.5240782     23  1.200                                             
     1    -11.1113914     23  1.520                                             
     1      1.3605826     23  1.520                                             
     2    -10.8846608      7  1.500                                             
  local pseudopotential read in
  partial core-charges read in
  partial kinetic energy density read in
  atomic valenz-charges read in
  non local Contribution for L=           0  read in
    real space projection operators read in
  non local Contribution for L=           0  read in
    real space projection operators read in
  non local Contribution for L=           1  read in
    real space projection operators read in
  non local Contribution for L=           1  read in
    real space projection operators read in
    PAW grid and wavefunctions read in
 
   number of l-projection  operators is LMAX  =           4
   number of lm-projection operators is LMMAX =           8
 
  PAW_PBE Li_sv 10Sep2004               :
 energy of atom  1       EATOM= -202.7858
 kinetic energy error for atom=    0.0055 (will be added to EATOM!!)
  PAW_PBE F 08Apr2002                   :
 energy of atom  2       EATOM= -659.6475
 kinetic energy error for atom=    0.0162 (will be added to EATOM!!)
 
 
 POSCAR: Li1 F1
  positions in direct lattice
  No initial velocities read in
 exchange correlation table for  LEXCH =        8
   RHO(1)=    0.500       N(1)  =     2000
   RHO(2)=  100.500       N(2)  =     4000
 


--------------------------------------------------------------------------------------------------------


 ion  position               nearest neighbor table
   1  0.000  0.000  0.000-   2 2.04   2 2.04   2 2.04   2 2.04   2 2.04   2 2.04
   2  0.500  0.500  0.500-   1 2.04   1 2.04   1 2.04   1 2.04   1 2.04   1 2.04
 
  LATTYP: Found a face centered cubic cell.
 ALAT       =     4.0834271101
  
  Lattice vectors:
  
 A1 = (   2.5005780000,   0.0000000000,   1.4437100000)
 A2 = (   0.8335260000,   2.3575680000,   1.4437100000)
 A3 = (   0.0000000000,   0.0000000000,   2.8874190000)


Analysis of symmetry for initial positions (statically):
=====================================================================
 Subroutine PRICEL returns:
 Original cell was already a primitive cell.
 

 Routine SETGRP: Setting up the symmetry group for a 
 face centered cubic supercell.


 Subroutine GETGRP returns: Found 48 space group operations
 (whereof 48 operations were pure point group operations)
 out of a pool of 48 trial point group operations.


The static configuration has the point symmetry O_h .


Analysis of symmetry for dynamics (positions and initial velocities):
=====================================================================
 Subroutine PRICEL returns:
 Original cell was already a primitive cell.
 

 Routine SETGRP: Setting up the symmetry group for a 
 face centered cubic supercell.


 Subroutine GETGRP returns: Found 48 space group operations
 (whereof 48 operations were pure point group operations)
 out of a pool of 48 trial point group operations.


The dynamic configuration has the point symmetry O_h .


Analysis of structural, dynamic, and magnetic symmetry:
=====================================================================
 Subroutine PRICEL returns:
 Original cell was already a primitive cell.
 

 Routine SETGRP: Setting up the symmetry group for a 
 face centered cubic supercell.


 Subroutine GETGRP returns: Found 48 space group operations
 (whereof 48 operations were pure point group operations)
 out of a pool of 48 trial point group operations.


The magnetic configuration has the point symmetry O_h .


 Subroutine INISYM returns: Found 48 space group operations
 (whereof 48 operations are pure point group operations),
 and found     1 'primitive' translations


----------------------------------------------------------------------------------------

                                     Primitive cell                                     

  volume of cell :      17.0222

  direct lattice vectors                    reciprocal lattice vectors
     2.500578000  0.000000000  1.443710000     0.399907541 -0.141388640  0.000000000
     0.833526000  2.357568000  1.443710000     0.000000000  0.424165920  0.000000000
     0.000000000  0.000000000  2.887419000    -0.199953840 -0.141388689  0.346330062

  length of vectors
     2.887419072  2.887419442  2.887419000     0.424165992  0.424165920  0.424166018

  position of ions in fractional coordinates (direct lattice)
     0.000000000  0.000000000  0.000000000
     0.500000000  0.500000000  0.500000000

  ion indices of the primitive-cell ions
   primitive index   ion index
                 1           1
                 2           2

----------------------------------------------------------------------------------------

 
 

Automatic generation of k-mesh.
 generate k-points for:   13   13   13
Space group operators:
 irot       det(A)        alpha          n_x          n_y          n_z        tau_x        tau_y        tau_z
    1     1.000000     0.000000     1.000000     0.000000     0.000000     0.000000     0.000000     0.000000
    2    -1.000000     0.000000     1.000000     0.000000     0.000000     0.000000     0.000000     0.000000
    3     1.000000   120.000000    -0.471404    -0.333333    -0.816497     0.000000     0.000000     0.000000
    4    -1.000000   120.000000    -0.471404    -0.333333    -0.816497     0.000000     0.000000     0.000000
    5     1.000000   120.000000     0.471405     0.333333     0.816497     0.000000     0.000000     0.000000
    6    -1.000000   120.000000     0.471405     0.333333     0.816497     0.000000     0.000000     0.000000
    7     1.000000    90.000000    -0.816497    -0.577350    -0.000000     0.000000     0.000000     0.000000
    8    -1.000000    90.000000    -0.816497    -0.577350    -0.000000     0.000000     0.000000     0.000000
    9     1.000000   180.000000     0.866025    -0.000000     0.500000     0.000000     0.000000     0.000000
   10    -1.000000   180.000000     0.866025    -0.000000     0.500000     0.000000     0.000000     0.000000
   11     1.000000    90.000000     0.408248    -0.577350     0.707107     0.000000     0.000000     0.000000
   12    -1.000000    90.000000     0.408248    -0.577350     0.707107     0.000000     0.000000     0.000000
   13     1.000000   180.000000     0.816497     0.577350     0.000000     0.000000     0.000000     0.000000
   14    -1.000000   180.000000     0.816497     0.577350     0.000000     0.000000     0.000000     0.000000
   15     1.000000   120.000000     0.942809    -0.333333     0.000000     0.000000     0.000000     0.000000
   16    -1.000000   120.000000     0.942809    -0.333333     0.000000     0.000000     0.000000     0.000000
   17     1.000000   120.000000    -0.000000    -1.000000    -0.000000     0.000000     0.000000     0.000000
   18    -1.000000   120.000000    -0.000000    -1.000000    -0.000000     0.000000     0.000000     0.000000
   19     1.000000    90.000000     0.816497     0.577350     0.000000     0.000000     0.000000     0.000000
   20    -1.000000    90.000000     0.816497     0.577350     0.000000     0.000000     0.000000     0.000000
   21     1.000000    90.000000     0.408248    -0.577350    -0.707107     0.000000     0.000000     0.000000
   22    -1.000000    90.000000     0.408248    -0.577350    -0.707107     0.000000     0.000000     0.000000
   23     1.000000   180.000000     0.288675     0.816497     0.500000     0.000000     0.000000     0.000000
   24    -1.000000   180.000000     0.288675     0.816497     0.500000     0.000000     0.000000     0.000000
   25     1.000000   120.000000    -0.000000     1.000000     0.000000     0.000000     0.000000     0.000000
   26    -1.000000   120.000000    -0.000000     1.000000     0.000000     0.000000     0.000000     0.000000
   27     1.000000   120.000000     0.471405     0.333333    -0.816497     0.000000     0.000000     0.000000
   28    -1.000000   120.000000     0.471405     0.333333    -0.816497     0.000000     0.000000     0.000000
   29     1.000000   180.000000    -0.408248     0.577350     0.707107     0.000000     0.000000     0.000000
   30    -1.000000   180.000000    -0.408248     0.577350     0.707107     0.000000     0.000000     0.000000
   31     1.000000    90.000000    -0.408248     0.577350    -0.707107     0.000000     0.000000     0.000000
   32    -1.000000    90.000000    -0.408248     0.577350    -0.707107     0.000000     0.000000     0.000000
   33     1.000000   180.000000    -0.000000    -0.000000     1.000000     0.000000     0.000000     0.000000
   34    -1.000000   180.000000    -0.000000    -0.000000     1.000000     0.000000     0.000000     0.000000
   35     1.000000    90.000000    -0.408248     0.577350     0.707107     0.000000     0.000000     0.000000
   36    -1.000000    90.000000    -0.408248     0.577350     0.707107     0.000000     0.000000     0.000000
   37     1.000000   120.000000    -0.942809     0.333333     0.000000     0.000000     0.000000     0.000000
   38    -1.000000   120.000000    -0.942809     0.333333     0.000000     0.000000     0.000000     0.000000
   39     1.000000   180.000000    -0.408248     0.577350    -0.707107     0.000000     0.000000     0.000000
   40    -1.000000   180.000000    -0.408248     0.577350    -0.707107     0.000000     0.000000     0.000000
   41     1.000000   120.000000    -0.471405    -0.333334     0.816496     0.000000     0.000000     0.000000
   42    -1.000000   120.000000    -0.471405    -0.333334     0.816496     0.000000     0.000000     0.000000
   43     1.000000   180.000000     0.288675     0.816497    -0.500000     0.000000     0.000000     0.000000
   44    -1.000000   180.000000     0.288675     0.816497    -0.500000     0.000000     0.000000     0.000000
   45     1.000000   180.000000     0.577350    -0.816497     0.000000     0.000000     0.000000     0.000000
   46    -1.000000   180.000000     0.577350    -0.816497     0.000000     0.000000     0.000000     0.000000
   47     1.000000   180.000000     0.866025     0.000000    -0.500000     0.000000     0.000000     0.000000
   48    -1.000000   180.000000     0.866025     0.000000    -0.500000     0.000000     0.000000     0.000000
 
 Subroutine IBZKPT returns following result:
 ===========================================
 
 Found     84 irreducible k-points:
 
 Following reciprocal coordinates:
            Coordinates               Weight
  0.000000  0.000000  0.000000      1.000000
  0.076923 -0.000000  0.000000      8.000000
  0.153846 -0.000000  0.000000      8.000000
  0.230769 -0.000000  0.000000      8.000000
  0.307692 -0.000000  0.000000      8.000000
  0.384615  0.000000  0.000000      8.000000
  0.461538 -0.000000  0.000000      8.000000
  0.076923  0.076923  0.000000      6.000000
  0.153846  0.076923  0.000000     24.000000
  0.230769  0.076923  0.000000     24.000000
  0.307692  0.076923  0.000000     24.000000
  0.384615  0.076923  0.000000     24.000000
  0.461538  0.076923  0.000000     24.000000
 -0.461538  0.076923  0.000000     24.000000
 -0.384615  0.076923  0.000000     24.000000
 -0.307692  0.076923  0.000000     24.000000
 -0.230769  0.076923  0.000000     24.000000
 -0.153846  0.076923  0.000000     24.000000
 -0.076923  0.076923  0.000000     12.000000
  0.153846  0.153846  0.000000      6.000000
  0.230769  0.153846  0.000000     24.000000
  0.307692  0.153846  0.000000     24.000000
  0.384615  0.153846  0.000000     24.000000
  0.461538  0.153846  0.000000     24.000000
 -0.461538  0.153846  0.000000     24.000000
 -0.384615  0.153846  0.000000     24.000000
 -0.307692  0.153846  0.000000     24.000000
 -0.230769  0.153846  0.000000     24.000000
 -0.153846  0.153846  0.000000     12.000000
  0.230769  0.230769  0.000000      6.000000
  0.307692  0.230769  0.000000     24.000000
  0.384615  0.230769  0.000000     24.000000
  0.461538  0.230769  0.000000     24.000000
 -0.461538  0.230769  0.000000     24.000000
 -0.384615  0.230769  0.000000     24.000000
 -0.307692  0.230769  0.000000     24.000000
 -0.230769  0.230769  0.000000     12.000000
  0.307692  0.307692  0.000000      6.000000
  0.384615  0.307692  0.000000     24.000000
  0.461538  0.307692  0.000000     24.000000
 -0.461538  0.307692  0.000000     24.000000
 -0.384615  0.307692  0.000000     24.000000
 -0.307692  0.307692  0.000000     12.000000
  0.384615  0.384615  0.000000      6.000000
  0.461538  0.384615  0.000000     24.000000
 -0.461538  0.384615  0.000000     24.000000
 -0.384615  0.384615  0.000000     12.000000
  0.461538  0.461538  0.000000      6.000000
 -0.461538  0.461538  0.000000     12.000000
  0.230769  0.153846  0.076923     24.000000
  0.307692  0.153846  0.076923     48.000000
  0.384615  0.153846  0.076923     48.000000
  0.461538  0.153846  0.076923     48.000000
 -0.461538  0.153846  0.076923     48.000000
  0.307692  0.230769  0.076923     24.000000
  0.384615  0.230769  0.076923     48.000000
  0.461538  0.230769  0.076923     48.000000
 -0.461538  0.230769  0.076923     48.000000
 -0.384615  0.230769  0.076923     48.000000
 -0.307692  0.230769  0.076923     48.000000
 -0.230769  0.230769  0.076923     48.000000
 -0.153846  0.230769  0.076923     24.000000
  0.384615  0.307692  0.076923     24.000000
  0.461538  0.307692  0.076923     48.000000
 -0.461538  0.307692  0.076923     48.000000
 -0.384615  0.307692  0.076923     48.000000
 -0.307692  0.307692  0.076923     48.000000
 -0.230769  0.307692  0.076923     24.000000
  0.461538  0.384615  0.076923     24.000000
 -0.461538  0.384615  0.076923     48.000000
 -0.384615  0.384615  0.076923     48.000000
 -0.307692  0.384615  0.076923     24.000000
 -0.461538  0.461538  0.076923     24.000000
 -0.384615  0.461538  0.076923     24.000000
  0.461538  0.307692  0.153846     24.000000
 -0.461538  0.307692  0.153846     48.000000
 -0.384615  0.307692  0.153846     48.000000
 -0.461538  0.384615  0.153846     24.000000
 -0.384615  0.384615  0.153846     48.000000
 -0.307692  0.384615  0.153846     48.000000
 -0.230769  0.384615  0.153846     24.000000
 -0.384615  0.461538  0.153846     24.000000
 -0.307692  0.461538  0.153846     24.000000
 -0.307692  0.461538  0.230769     24.000000
 
 Following cartesian coordinates:
            Coordinates               Weight
  0.000000  0.000000  0.000000      1.000000
  0.030762 -0.010876  0.000000      8.000000
  0.061524 -0.021752  0.000000      8.000000
  0.092286 -0.032628  0.000000      8.000000
  0.123048 -0.043504  0.000000      8.000000
  0.153811 -0.054380  0.000000      8.000000
  0.184573 -0.065256  0.000000      8.000000
  0.030762  0.021752  0.000000      6.000000
  0.061524  0.010876  0.000000     24.000000
  0.092286  0.000000  0.000000     24.000000
  0.123048 -0.010876  0.000000     24.000000
  0.153811 -0.021752  0.000000     24.000000
  0.184573 -0.032628  0.000000     24.000000
 -0.184573  0.097884  0.000000     24.000000
 -0.153811  0.087008  0.000000     24.000000
 -0.123048  0.076132  0.000000     24.000000
 -0.092286  0.065256  0.000000     24.000000
 -0.061524  0.054380  0.000000     24.000000
 -0.030762  0.043504  0.000000     12.000000
  0.061524  0.043504  0.000000      6.000000
  0.092286  0.032628  0.000000     24.000000
  0.123048  0.021752  0.000000     24.000000
  0.153811  0.010876  0.000000     24.000000
  0.184573 -0.000000  0.000000     24.000000
 -0.184573  0.130513  0.000000     24.000000
 -0.153811  0.119637  0.000000     24.000000
 -0.123048  0.108760  0.000000     24.000000
 -0.092286  0.097884  0.000000     24.000000
 -0.061524  0.087008  0.000000     12.000000
  0.092286  0.065256  0.000000      6.000000
  0.123048  0.054380  0.000000     24.000000
  0.153811  0.043504  0.000000     24.000000
  0.184573  0.032628  0.000000     24.000000
 -0.184573  0.163141  0.000000     24.000000
 -0.153811  0.152265  0.000000     24.000000
 -0.123048  0.141389  0.000000     24.000000
 -0.092286  0.130513  0.000000     12.000000
  0.123048  0.087008  0.000000      6.000000
  0.153811  0.076132  0.000000     24.000000
  0.184573  0.065256  0.000000     24.000000
 -0.184573  0.195769  0.000000     24.000000
 -0.153811  0.184893  0.000000     24.000000
 -0.123048  0.174017  0.000000     12.000000
  0.153811  0.108760  0.000000      6.000000
  0.184573  0.097884  0.000000     24.000000
 -0.184573  0.228397  0.000000     24.000000
 -0.153811  0.217521  0.000000     12.000000
  0.184573  0.130513  0.000000      6.000000
 -0.184573  0.261025  0.000000     12.000000
  0.076905  0.021752  0.026641     24.000000
  0.107667  0.010876  0.026641     48.000000
  0.138430 -0.000000  0.026641     48.000000
  0.169192 -0.010876  0.026641     48.000000
 -0.199954  0.119637  0.026641     48.000000
  0.107667  0.043504  0.026641     24.000000
  0.138430  0.032628  0.026641     48.000000
  0.169192  0.021752  0.026641     48.000000
 -0.199954  0.152265  0.026641     48.000000
 -0.169192  0.141389  0.026641     48.000000
 -0.138430  0.130513  0.026641     48.000000
 -0.107667  0.119637  0.026641     48.000000
 -0.076905  0.108760  0.026641     24.000000
  0.138430  0.065256  0.026641     24.000000
  0.169192  0.054380  0.026641     48.000000
 -0.199954  0.184893  0.026641     48.000000
 -0.169192  0.174017  0.026641     48.000000
 -0.138430  0.163141  0.026641     48.000000
 -0.107667  0.152265  0.026641     24.000000
  0.169192  0.087008  0.026641     24.000000
 -0.199954  0.217521  0.026641     48.000000
 -0.169192  0.206645  0.026641     48.000000
 -0.138430  0.195769  0.026641     24.000000
 -0.199954  0.250149  0.026641     24.000000
 -0.169192  0.239273  0.026641     24.000000
  0.153811  0.043504  0.053282     24.000000
 -0.215335  0.174017  0.053282     48.000000
 -0.184573  0.163141  0.053282     48.000000
 -0.215335  0.206645  0.053282     24.000000
 -0.184573  0.195769  0.053282     48.000000
 -0.153811  0.184893  0.053282     48.000000
 -0.123048  0.174017  0.053282     24.000000
 -0.184573  0.228397  0.053282     24.000000
 -0.153811  0.217521  0.053282     24.000000
 -0.169192  0.206645  0.079922     24.000000
 


--------------------------------------------------------------------------------------------------------




 Dimension of arrays:
   k-points           NKPTS =     84   k-points in BZ     NKDIM =     84   number of bands    NBANDS=     32
   number of dos      NEDOS =    301   number of ions     NIONS =      2
   non local maximal  LDIM  =      4   non local SUM 2l+1 LMDIM =      8
   total plane-waves  NPLWV =  21952
   max r-space proj   IRMAX =      1   max aug-charges    IRDMAX= 131353
   dimension x,y,z NGX =    28 NGY =   28 NGZ =   28
   dimension x,y,z NGXF=    56 NGYF=   56 NGZF=   56
   support grid    NGXF=   112 NGYF=  112 NGZF=  112
   ions per type =               1   1
   NGX,Y,Z   is equivalent  to a cutoff of  16.12, 16.12, 16.12 a.u.
   NGXF,Y,Z  is equivalent  to a cutoff of  32.24, 32.24, 32.24 a.u.

 SYSTEM =  unknown system                          
 POSCAR =  Li1 F1                                  

 Startparameter for this run:
   NWRITE =      2    write-flag & timer
   PREC   = accura    normal or accurate (medium, high low for compatibility)
   ISTART =      0    job   : 0-new  1-cont  2-samecut
   ICHARG =      2    charge: 1-file 2-atom 10-const
   ISPIN  =      2    spin polarized calculation?
   LNONCOLLINEAR =      F non collinear calculations
   LSORBIT =      F    spin-orbit coupling
   INIWAV =      1    electr: 0-lowe 1-rand  2-diag
   LASPH  =      T    aspherical Exc in radial PAW
   METAGGA=      F    non-selfconsistent MetaGGA calc.

 Electronic Relaxation 1
   ENCUT  =  680.0 eV  49.98 Ry    7.07 a.u.   6.14  6.14  6.14*2*pi/ulx,y,z
   ENINI  =  680.0     initial cutoff
   ENAUG  =  628.9 eV  augmentation charge cutoff
   NELM   =    200;   NELMIN=  2; NELMDL= -5     # of ELM steps 
   EDIFF  = 0.1E-04   stopping-criterion for ELM
   LREAL  =      F    real-space projection
   NLSPLINE    = F    spline interpolate recip. space projectors
   LCOMPAT=      F    compatible to vasp.4.4
   GGA_COMPAT  = T    GGA compatible to vasp.4.4-vasp.4.6
   LMAXPAW     = -100 max onsite density
   LMAXMIX     =    2 max onsite mixed and CHGCAR
   VOSKOWN=      0    Vosko Wilk Nusair interpolation
   ROPT   =    0.00000   0.00000
 Ionic relaxation
   EDIFFG = -.5E-01   stopping-criterion for IOM
   NSW    =     99    number of steps for IOM
   NBLOCK =      1;   KBLOCK =     99    inner block; outer block 
   IBRION =      2    ionic relax: 0-MD 1-quasi-New 2-CG
   NFREE  =      1    steps in history (QN), initial steepest desc. (CG)
   ISIF   =      3    stress and relaxation
   IWAVPR =     11    prediction:  0-non 1-charg 2-wave 3-comb
   ISYM   =      2    0-nonsym 1-usesym 2-fastsym
   LCORR  =      T    Harris-Foulkes like correction to forces

   POTIM  = 0.5000    time-step for ionic-motion
   TEIN   =    0.0    initial temperature
   TEBEG  =    0.0;   TEEND  =   0.0 temperature during run
   SMASS  =  -3.00    Nose mass-parameter (am)
   estimated Nose-frequenzy (Omega)   =  0.10E-29 period in steps = 0.13E+47 mass=  -0.191E-27a.u.
   SCALEE = 1.0000    scale energy and forces
   NPACO  =    256;   APACO  = 16.0  distance and # of slots for P.C.
   PSTRESS=    0.0 pullay stress

  Mass of Ions in am
   POMASS =   7.01 19.00
  Ionic Valenz
   ZVAL   =   3.00  7.00
  Atomic Wigner-Seitz radii
   RWIGS  =  -1.00 -1.00
  virtual crystal weights 
   VCA    =   1.00  1.00
   NELECT =      10.0000    total number of electrons
   NUPDOWN=      -1.0000    fix difference up-down

 DOS related values:
   EMIN   =  10.00;   EMAX   =-10.00  energy-range for DOS
   EFERMI =   0.00
   ISMEAR =     2;   SIGMA  =   0.20  broadening in eV -4-tet -1-fermi 0-gaus

 Electronic relaxation 2 (details)
   IALGO  =     58    algorithm
   LDIAG  =      T    sub-space diagonalisation (order eigenvalues)
   LSUBROT=      F    optimize rotation matrix (better conditioning)
   TURBO    =      0    0=normal 1=particle mesh
   IRESTART =      0    0=no restart 2=restart with 2 vectors
   NREBOOT  =      0    no. of reboots
   NMIN     =      0    reboot dimension
   EREF     =   0.00    reference energy to select bands
   IMIX   =      4    mixing-type and parameters
     AMIX     =   0.40;   BMIX     =  1.00
     AMIX_MAG =   1.60;   BMIX_MAG =  1.00
     AMIN     =   0.10
     WC   =   100.;   INIMIX=   1;  MIXPRE=   1;  MAXMIX= -45

 Intra band minimization:
   WEIMIN = 0.0010     energy-eigenvalue tresh-hold
   EBREAK =  0.78E-07  absolut break condition
   DEPER  =   0.30     relativ break condition  

   TIME   =   0.40     timestep for ELM

  volume/ion in A,a.u.               =       8.51        57.44
  Fermi-wavevector in a.u.,A,eV,Ry     =   1.371103  2.591009 25.577904  1.879923
  Thomas-Fermi vector in A             =   2.496830
 
 Write flags
   LWAVE        =      T    write WAVECAR
   LDOWNSAMPLE  =      F    k-point downsampling of WAVECAR
   LCHARG       =      T    write CHGCAR
   LVTOT        =      T    write LOCPOT, total local potential
   LVHAR        =      F    write LOCPOT, Hartree potential only
   LELF         =      T    write electronic localiz. function (ELF)
   LORBIT       =     11    0 simple, 1 ext, 2 COOP (PROOUT), +10 PAW based schemes


 Dipole corrections
   LMONO  =      F    monopole corrections only (constant potential shift)
   LDIPOL =      F    correct potential (dipole corrections)
   IDIPOL =      0    1-x, 2-y, 3-z, 4-all directions 
   EPSILON=  1.0000000 bulk dielectric constant

 Exchange correlation treatment:
   GGA     =    --    GGA type
   LEXCH   =     8    internal setting for exchange type
   VOSKOWN=      0    Vosko Wilk Nusair interpolation
   LHFCALC =     F    Hartree Fock is set to
   LHFONE  =     F    Hartree Fock one center treatment
   AEXX    =    0.0000 exact exchange contribution

 Linear response parameters
   LEPSILON=     F    determine dielectric tensor
   LRPA    =     F    only Hartree local field effects (RPA)
   LNABLA  =     F    use nabla operator in PAW spheres
   LVEL    =     F    velocity operator in full k-point grid
   LINTERFAST=   F  fast interpolation
   KINTER  =     0    interpolate to denser k-point grid
   CSHIFT  =0.1000    complex shift for real part using Kramers Kronig
   OMEGAMAX=  -1.0    maximum frequency
   DEG_THRESHOLD= 0.2000000E-02 threshold for treating states as degnerate
   RTIME   =   -0.100 relaxation time in fs
  (WPLASMAI=    0.000 imaginary part of plasma frequency in eV, 0.658/RTIME)
   DFIELD  = 0.0000000 0.0000000 0.0000000 field for delta impulse in time
 
 Orbital magnetization related:
   ORBITALMAG=     F  switch on orbital magnetization
   LCHIMAG   =     F  perturbation theory with respect to B field
   DQ        =  0.001000  dq finite difference perturbation B field
   LLRAUG    =     F  two centre corrections for induced B field



--------------------------------------------------------------------------------------------------------


 conjugate gradient relaxation of ions
 charge density and potential will be updated during run
 spin polarized calculation
 Conjugate gradient for all bands (Freysoldt, et al. PRB 79, 241103 (2009))
 preconditioned conjugated gradient                                        
 perform sub-space diagonalisation
    before iterative eigenvector-optimisation
 modified Broyden-mixing scheme, WC =      100.0
 initial mixing is a Kerker type mixing with AMIX =  0.4000 and BMIX =      1.0000
 Hartree-type preconditioning will be used
 using additional bands           27
 reciprocal scheme for non local part
 use partial core corrections
 no Harris-corrections to forces 
 use gradient corrections 
 use of overlap-Matrix (Vanderbilt PP)
 Methfessel and Paxton  Order N= 2 SIGMA  =   0.20


--------------------------------------------------------------------------------------------------------


  energy-cutoff  :      680.00
  volume of cell :       17.02
      direct lattice vectors                 reciprocal lattice vectors
     2.500578000  0.000000000  1.443710000     0.399907541 -0.141388640  0.000000000
     0.833526000  2.357568000  1.443710000     0.000000000  0.424165920  0.000000000
     0.000000000  0.000000000  2.887419000    -0.199953840 -0.141388689  0.346330062

  length of vectors
     2.887419072  2.887419442  2.887419000     0.424165992  0.424165920  0.424166018


 
 k-points in units of 2pi/SCALE and weight: read from INCAR                         
   0.00000000  0.00000000  0.00000000       0.000
   0.03076212 -0.01087605  0.00000000       0.004
   0.06152424 -0.02175210  0.00000000       0.004
   0.09228636 -0.03262815  0.00000000       0.004
   0.12304847 -0.04350420  0.00000000       0.004
   0.15381059 -0.05438025  0.00000000       0.004
   0.18457271 -0.06525630  0.00000000       0.004
   0.03076212  0.02175210  0.00000000       0.003
   0.06152424  0.01087605  0.00000000       0.011
   0.09228636  0.00000000  0.00000000       0.011
   0.12304847 -0.01087605  0.00000000       0.011
   0.15381059 -0.02175210  0.00000000       0.011
   0.18457271 -0.03262815  0.00000000       0.011
  -0.18457271  0.09788444  0.00000000       0.011
  -0.15381059  0.08700839  0.00000000       0.011
  -0.12304847  0.07613234  0.00000000       0.011
  -0.09228636  0.06525630  0.00000000       0.011
  -0.06152424  0.05438025  0.00000000       0.011
  -0.03076212  0.04350420  0.00000000       0.005
   0.06152424  0.04350420  0.00000000       0.003
   0.09228636  0.03262815  0.00000000       0.011
   0.12304847  0.02175210  0.00000000       0.011
   0.15381059  0.01087605  0.00000000       0.011
   0.18457271 -0.00000000  0.00000000       0.011
  -0.18457271  0.13051259  0.00000000       0.011
  -0.15381059  0.11963654  0.00000000       0.011
  -0.12304847  0.10876049  0.00000000       0.011
  -0.09228636  0.09788444  0.00000000       0.011
  -0.06152424  0.08700839  0.00000000       0.005
   0.09228636  0.06525630  0.00000000       0.003
   0.12304847  0.05438025  0.00000000       0.011
   0.15381059  0.04350420  0.00000000       0.011
   0.18457271  0.03262815  0.00000000       0.011
  -0.18457271  0.16314074  0.00000000       0.011
  -0.15381059  0.15226469  0.00000000       0.011
  -0.12304847  0.14138864  0.00000000       0.011
  -0.09228636  0.13051259  0.00000000       0.005
   0.12304847  0.08700839  0.00000000       0.003
   0.15381059  0.07613234  0.00000000       0.011
   0.18457271  0.06525630  0.00000000       0.011
  -0.18457271  0.19576889  0.00000000       0.011
  -0.15381059  0.18489284  0.00000000       0.011
  -0.12304847  0.17401679  0.00000000       0.005
   0.15381059  0.10876049  0.00000000       0.003
   0.18457271  0.09788444  0.00000000       0.011
  -0.18457271  0.22839703  0.00000000       0.011
  -0.15381059  0.21752098  0.00000000       0.005
   0.18457271  0.13051259  0.00000000       0.003
  -0.18457271  0.26102518  0.00000000       0.005
   0.07690529  0.02175209  0.02664077       0.011
   0.10766741  0.01087605  0.02664077       0.022
   0.13842953 -0.00000000  0.02664077       0.022
   0.16919165 -0.01087605  0.02664077       0.022
  -0.19995378  0.11963654  0.02664077       0.022
   0.10766741  0.04350419  0.02664077       0.011
   0.13842953  0.03262814  0.02664077       0.022
   0.16919165  0.02175209  0.02664077       0.022
  -0.19995378  0.15226469  0.02664077       0.022
  -0.16919166  0.14138864  0.02664077       0.022
  -0.13842954  0.13051259  0.02664077       0.022
  -0.10766742  0.11963654  0.02664077       0.022
  -0.07690530  0.10876049  0.02664077       0.011
   0.13842953  0.06525629  0.02664077       0.011
   0.16919165  0.05438024  0.02664077       0.022
  -0.19995378  0.18489283  0.02664077       0.022
  -0.16919166  0.17401678  0.02664077       0.022
  -0.13842954  0.16314073  0.02664077       0.022
  -0.10766742  0.15226469  0.02664077       0.011
   0.16919165  0.08700839  0.02664077       0.011
  -0.19995378  0.21752098  0.02664077       0.022
  -0.16919166  0.20664493  0.02664077       0.022
  -0.13842954  0.19576888  0.02664077       0.011
  -0.19995378  0.25014913  0.02664077       0.011
  -0.16919166  0.23927308  0.02664077       0.011
   0.15381058  0.04350419  0.05328155       0.011
  -0.21533484  0.17401678  0.05328155       0.022
  -0.18457272  0.16314073  0.05328155       0.022
  -0.21533484  0.20664493  0.05328155       0.011
  -0.18457272  0.19576888  0.05328155       0.022
  -0.15381060  0.18489283  0.05328155       0.022
  -0.12304848  0.17401678  0.05328155       0.011
  -0.18457272  0.22839703  0.05328155       0.011
  -0.15381060  0.21752098  0.05328155       0.011
  -0.16919167  0.20664492  0.07992232       0.011
 
 k-points in reciprocal lattice and weights: read from INCAR                         
   0.00000000  0.00000000  0.00000000       0.000
   0.07692308 -0.00000000  0.00000000       0.004
   0.15384615 -0.00000000  0.00000000       0.004
   0.23076923 -0.00000000  0.00000000       0.004
   0.30769231 -0.00000000  0.00000000       0.004
   0.38461538  0.00000000  0.00000000       0.004
   0.46153846 -0.00000000  0.00000000       0.004
   0.07692308  0.07692308  0.00000000       0.003
   0.15384615  0.07692308  0.00000000       0.011
   0.23076923  0.07692308  0.00000000       0.011
   0.30769231  0.07692308  0.00000000       0.011
   0.38461538  0.07692308  0.00000000       0.011
   0.46153846  0.07692308  0.00000000       0.011
  -0.46153846  0.07692308  0.00000000       0.011
  -0.38461538  0.07692308  0.00000000       0.011
  -0.30769231  0.07692308  0.00000000       0.011
  -0.23076923  0.07692308  0.00000000       0.011
  -0.15384615  0.07692308  0.00000000       0.011
  -0.07692308  0.07692308  0.00000000       0.005
   0.15384615  0.15384615  0.00000000       0.003
   0.23076923  0.15384615  0.00000000       0.011
   0.30769231  0.15384615  0.00000000       0.011
   0.38461538  0.15384615  0.00000000       0.011
   0.46153846  0.15384615  0.00000000       0.011
  -0.46153846  0.15384615  0.00000000       0.011
  -0.38461538  0.15384615  0.00000000       0.011
  -0.30769231  0.15384615  0.00000000       0.011
  -0.23076923  0.15384615  0.00000000       0.011
  -0.15384615  0.15384615  0.00000000       0.005
   0.23076923  0.23076923  0.00000000       0.003
   0.30769231  0.23076923  0.00000000       0.011
   0.38461538  0.23076923  0.00000000       0.011
   0.46153846  0.23076923  0.00000000       0.011
  -0.46153846  0.23076923  0.00000000       0.011
  -0.38461538  0.23076923  0.00000000       0.011
  -0.30769231  0.23076923  0.00000000       0.011
  -0.23076923  0.23076923  0.00000000       0.005
   0.30769231  0.30769231  0.00000000       0.003
   0.38461538  0.30769231  0.00000000       0.011
   0.46153846  0.30769231  0.00000000       0.011
  -0.46153846  0.30769231  0.00000000       0.011
  -0.38461538  0.30769231  0.00000000       0.011
  -0.30769231  0.30769231  0.00000000       0.005
   0.38461538  0.38461538  0.00000000       0.003
   0.46153846  0.38461538  0.00000000       0.011
  -0.46153846  0.38461538  0.00000000       0.011
  -0.38461538  0.38461538  0.00000000       0.005
   0.46153846  0.46153846  0.00000000       0.003
  -0.46153846  0.46153846  0.00000000       0.005
   0.23076923  0.15384615  0.07692308       0.011
   0.30769231  0.15384615  0.07692308       0.022
   0.38461538  0.15384615  0.07692308       0.022
   0.46153846  0.15384615  0.07692308       0.022
  -0.46153846  0.15384615  0.07692308       0.022
   0.30769231  0.23076923  0.07692308       0.011
   0.38461538  0.23076923  0.07692308       0.022
   0.46153846  0.23076923  0.07692308       0.022
  -0.46153846  0.23076923  0.07692308       0.022
  -0.38461538  0.23076923  0.07692308       0.022
  -0.30769231  0.23076923  0.07692308       0.022
  -0.23076923  0.23076923  0.07692308       0.022
  -0.15384615  0.23076923  0.07692308       0.011
   0.38461538  0.30769231  0.07692308       0.011
   0.46153846  0.30769231  0.07692308       0.022
  -0.46153846  0.30769231  0.07692308       0.022
  -0.38461538  0.30769231  0.07692308       0.022
  -0.30769231  0.30769231  0.07692308       0.022
  -0.23076923  0.30769231  0.07692308       0.011
   0.46153846  0.38461538  0.07692308       0.011
  -0.46153846  0.38461538  0.07692308       0.022
  -0.38461538  0.38461538  0.07692308       0.022
  -0.30769231  0.38461538  0.07692308       0.011
  -0.46153846  0.46153846  0.07692308       0.011
  -0.38461538  0.46153846  0.07692308       0.011
   0.46153846  0.30769231  0.15384615       0.011
  -0.46153846  0.30769231  0.15384615       0.022
  -0.38461538  0.30769231  0.15384615       0.022
  -0.46153846  0.38461538  0.15384615       0.011
  -0.38461538  0.38461538  0.15384615       0.022
  -0.30769231  0.38461538  0.15384615       0.022
  -0.23076923  0.38461538  0.15384615       0.011
  -0.38461538  0.46153846  0.15384615       0.011
  -0.30769231  0.46153846  0.15384615       0.011
  -0.30769231  0.46153846  0.23076923       0.011
 
 position of ions in fractional coordinates (direct lattice) 
   0.00000000  0.00000000  0.00000000
   0.50000000  0.50000000  0.50000000
 
 position of ions in cartesian coordinates  (Angst):
   0.00000000  0.00000000  0.00000000
   1.66705200  1.17878400  2.88741950
 


--------------------------------------------------------------------------------------------------------


 k-point  1 :   0.0000 0.0000 0.0000  plane waves:     701
 k-point  2 :   0.0769-0.0000 0.0000  plane waves:     685
 k-point  3 :   0.1538-0.0000 0.0000  plane waves:     679
 k-point  4 :   0.2308-0.0000 0.0000  plane waves:     679
 k-point  5 :   0.3077-0.0000 0.0000  plane waves:     682
 k-point  6 :   0.3846 0.0000 0.0000  plane waves:     679
 k-point  7 :   0.4615-0.0000 0.0000  plane waves:     694
 k-point  8 :   0.0769 0.0769 0.0000  plane waves:     689
 k-point  9 :   0.1538 0.0769 0.0000  plane waves:     682
 k-point 10 :   0.2308 0.0769 0.0000  plane waves:     683
 k-point 11 :   0.3077 0.0769 0.0000  plane waves:     682
 k-point 12 :   0.3846 0.0769 0.0000  plane waves:     683
 k-point 13 :   0.4615 0.0769 0.0000  plane waves:     690
 k-point 14 :  -0.4615 0.0769 0.0000  plane waves:     687
 k-point 15 :  -0.3846 0.0769 0.0000  plane waves:     686
 k-point 16 :  -0.3077 0.0769 0.0000  plane waves:     676
 k-point 17 :  -0.2308 0.0769 0.0000  plane waves:     677
 k-point 18 :  -0.1538 0.0769 0.0000  plane waves:     678
 k-point 19 :  -0.0769 0.0769 0.0000  plane waves:     684
 k-point 20 :   0.1538 0.1538 0.0000  plane waves:     681
 k-point 21 :   0.2308 0.1538 0.0000  plane waves:     680
 k-point 22 :   0.3077 0.1538 0.0000  plane waves:     681
 k-point 23 :   0.3846 0.1538 0.0000  plane waves:     688
 k-point 24 :   0.4615 0.1538 0.0000  plane waves:     683
 k-point 25 :  -0.4615 0.1538 0.0000  plane waves:     686
 k-point 26 :  -0.3846 0.1538 0.0000  plane waves:     686
 k-point 27 :  -0.3077 0.1538 0.0000  plane waves:     682
 k-point 28 :  -0.2308 0.1538 0.0000  plane waves:     679
 k-point 29 :  -0.1538 0.1538 0.0000  plane waves:     678
 k-point 30 :   0.2308 0.2308 0.0000  plane waves:     681
 k-point 31 :   0.3077 0.2308 0.0000  plane waves:     684
 k-point 32 :   0.3846 0.2308 0.0000  plane waves:     682
 k-point 33 :   0.4615 0.2308 0.0000  plane waves:     689
 k-point 34 :  -0.4615 0.2308 0.0000  plane waves:     688
 k-point 35 :  -0.3846 0.2308 0.0000  plane waves:     690
 k-point 36 :  -0.3077 0.2308 0.0000  plane waves:     687
 k-point 37 :  -0.2308 0.2308 0.0000  plane waves:     676
 k-point 38 :   0.3077 0.3077 0.0000  plane waves:     689
 k-point 39 :   0.3846 0.3077 0.0000  plane waves:     685
 k-point 40 :   0.4615 0.3077 0.0000  plane waves:     686
 k-point 41 :  -0.4615 0.3077 0.0000  plane waves:     692
 k-point 42 :  -0.3846 0.3077 0.0000  plane waves:     689
 k-point 43 :  -0.3077 0.3077 0.0000  plane waves:     684
 k-point 44 :   0.3846 0.3846 0.0000  plane waves:     684
 k-point 45 :   0.4615 0.3846 0.0000  plane waves:     686
 k-point 46 :  -0.4615 0.3846 0.0000  plane waves:     690
 k-point 47 :  -0.3846 0.3846 0.0000  plane waves:     688
 k-point 48 :   0.4615 0.4615 0.0000  plane waves:     692
 k-point 49 :  -0.4615 0.4615 0.0000  plane waves:     686
 k-point 50 :   0.2308 0.1538 0.0769  plane waves:     678
 k-point 51 :   0.3077 0.1538 0.0769  plane waves:     678
 k-point 52 :   0.3846 0.1538 0.0769  plane waves:     689
 k-point 53 :   0.4615 0.1538 0.0769  plane waves:     681
 k-point 54 :  -0.4615 0.1538 0.0769  plane waves:     686
 k-point 55 :   0.3077 0.2308 0.0769  plane waves:     681
 k-point 56 :   0.3846 0.2308 0.0769  plane waves:     681
 k-point 57 :   0.4615 0.2308 0.0769  plane waves:     685
 k-point 58 :  -0.4615 0.2308 0.0769  plane waves:     686
 k-point 59 :  -0.3846 0.2308 0.0769  plane waves:     687
 k-point 60 :  -0.3077 0.2308 0.0769  plane waves:     681
 k-point 61 :  -0.2308 0.2308 0.0769  plane waves:     685
 k-point 62 :  -0.1538 0.2308 0.0769  plane waves:     675
 k-point 63 :   0.3846 0.3077 0.0769  plane waves:     684
 k-point 64 :   0.4615 0.3077 0.0769  plane waves:     679
 k-point 65 :  -0.4615 0.3077 0.0769  plane waves:     685
 k-point 66 :  -0.3846 0.3077 0.0769  plane waves:     693
 k-point 67 :  -0.3077 0.3077 0.0769  plane waves:     691
 k-point 68 :  -0.2308 0.3077 0.0769  plane waves:     686
 k-point 69 :   0.4615 0.3846 0.0769  plane waves:     683
 k-point 70 :  -0.4615 0.3846 0.0769  plane waves:     688
 k-point 71 :  -0.3846 0.3846 0.0769  plane waves:     693
 k-point 72 :  -0.3077 0.3846 0.0769  plane waves:     694
 k-point 73 :  -0.4615 0.4615 0.0769  plane waves:     685
 k-point 74 :  -0.3846 0.4615 0.0769  plane waves:     693
 k-point 75 :   0.4615 0.3077 0.1538  plane waves:     677
 k-point 76 :  -0.4615 0.3077 0.1538  plane waves:     683
 k-point 77 :  -0.3846 0.3077 0.1538  plane waves:     687
 k-point 78 :  -0.4615 0.3846 0.1538  plane waves:     682
 k-point 79 :  -0.3846 0.3846 0.1538  plane waves:     692
 k-point 80 :  -0.3077 0.3846 0.1538  plane waves:     691
 k-point 81 :  -0.2308 0.3846 0.1538  plane waves:     690
 k-point 82 :  -0.3846 0.4615 0.1538  plane waves:     690
 k-point 83 :  -0.3077 0.4615 0.1538  plane waves:     689
 k-point 84 :  -0.3077 0.4615 0.2308  plane waves:     692

 maximum and minimum number of plane-waves per node :       701      675

 maximum number of plane-waves:       701
 maximum index in each direction: 
   IXMAX=    6   IYMAX=    6   IZMAX=    6
   IXMIN=   -6   IYMIN=   -6   IZMIN=   -6


 serial   3D FFT for wavefunctions
 parallel 3D FFT for charge:
    minimum data exchange during FFTs selected (reduces bandwidth)


 total amount of memory used by VASP MPI-rank0    46830. kBytes
=======================================================================

   base      :      30000. kBytes
   nonl-proj :       7591. kBytes
   fftplans  :        996. kBytes
   grid      :       2297. kBytes
   one-center:         12. kBytes
   wavefun   :       5934. kBytes
 
     INWAV:  cpu time    0.0028: real time    0.0008
 Broyden mixing: mesh for mixing (old mesh)
   NGX = 13   NGY = 13   NGZ = 13
  (NGX  = 56   NGY  = 56   NGZ  = 56)
  gives a total of   2197 points

 initial charge density was supplied:
 charge density of overlapping atoms calculated
 number of electron      10.0000000 magnetization       0.0000000
 keeping initial charge density in first step


--------------------------------------------------------------------------------------------------------


 Maximum index for augmentation-charges         5107 (set IRDMAX)


--------------------------------------------------------------------------------------------------------


 First call to EWALD:  gamma=   0.689
 Maximum number of real-space cells 3x 3x 3
 Maximum number of reciprocal cells 3x 3x 3

    FEWALD:  cpu time    0.0200: real time    0.0050


--------------------------------------- Iteration      1(   1)  ---------------------------------------


    POTLOK:  cpu time    0.1685: real time    0.0425
    SETDIJ:  cpu time    1.3106: real time    0.7283
    TRIAL :  cpu time   20.7994: real time    5.2204
    CORREC:  cpu time    0.0139: real time    0.0035
    --------------------------------------------
      LOOP:  cpu time   22.3725: real time    6.0195

 eigenvalue-minimisations  : 11232
 total energy-change (2. order) : 0.5124405E+01  (-0.9362616E+03)
 number of electron      10.0000000 magnetization       0.0000000
 augmentation part       10.0000000 magnetization       0.0000000

 Free energy of the ion-electron system (eV)
  ---------------------------------------------------
  alpha Z        PSCENC =        19.24756325
  Ewald energy   TEWEN  =      -549.57279523
  -Hartree energ DENC   =      -217.48181860
  -exchange      EXHF   =         0.00000000
  -V(xc)+E(xc)   XCENC  =        49.79845604
  PAW double counting   =       618.96943640     -639.47645653
  entropy T*S    EENTRO =         0.00010828
  eigenvalues    EBANDS =      -138.77160958
  atomic energy  EATOM  =       862.41152047
  ---------------------------------------------------
  free energy    TOTEN  =         5.12440451 eV

  energy without entropy =        5.12429623  energy(sigma->0) =        5.12437744


--------------------------------------------------------------------------------------------------------




--------------------------------------- Iteration      1(   2)  ---------------------------------------


    TRIAL :  cpu time   31.6573: real time    7.9148
    CORREC:  cpu time    0.0075: real time    0.0019
    --------------------------------------------
      LOOP:  cpu time   31.6749: real time    7.9193

 eigenvalue-minimisations  : 15968
 total energy-change (2. order) :-0.1526948E+02  (-0.1526932E+02)
 number of electron      10.0000000 magnetization       0.0000000
 augmentation part       10.0000000 magnetization       0.0000000

 Free energy of the ion-electron system (eV)
  ---------------------------------------------------
  alpha Z        PSCENC =        19.24756325
  Ewald energy   TEWEN  =      -549.57279523
  -Hartree energ DENC   =      -217.48181860
  -exchange      EXHF   =         0.00000000
  -V(xc)+E(xc)   XCENC  =        49.79845604
  PAW double counting   =       618.96943640     -639.47645653
  entropy T*S    EENTRO =        -0.00000000
  eigenvalues    EBANDS =      -154.04098142
  atomic energy  EATOM  =       862.41152047
  ---------------------------------------------------
  free energy    TOTEN  =       -10.14507561 eV

  energy without entropy =      -10.14507561  energy(sigma->0) =      -10.14507561


--------------------------------------------------------------------------------------------------------




--------------------------------------- Iteration      1(   3)  ---------------------------------------


    TRIAL :  cpu time   20.4048: real time    5.1026
    CORREC:  cpu time    0.0097: real time    0.0043
    --------------------------------------------
      LOOP:  cpu time   20.4230: real time    5.1093

 eigenvalue-minimisations  : 11104
 total energy-change (2. order) :-0.8448706E-02  (-0.9918522E-02)
 number of electron      10.0000000 magnetization       0.0000000
 augmentation part       10.0000000 magnetization       0.0000000

 Free energy of the ion-electron system (eV)
  ---------------------------------------------------
  alpha Z        PSCENC =        19.24756325
  Ewald energy   TEWEN  =      -549.57279523
  -Hartree energ DENC   =      -217.48181860
  -exchange      EXHF   =         0.00000000
  -V(xc)+E(xc)   XCENC  =        49.79845604
  PAW double counting   =       618.96943640     -639.47645653
  entropy T*S    EENTRO =         0.00414165
  eigenvalues    EBANDS =      -154.05357177
  atomic energy  EATOM  =       862.41152047
  ---------------------------------------------------
  free energy    TOTEN  =       -10.15352432 eV

  energy without entropy =      -10.15766596  energy(sigma->0) =      -10.15455973


--------------------------------------------------------------------------------------------------------




--------------------------------------- Iteration      1(   4)  ---------------------------------------


    TRIAL :  cpu time   43.0449: real time   10.7600
    CORREC:  cpu time    0.0179: real time    0.0045
    --------------------------------------------
      LOOP:  cpu time   43.0768: real time   10.7669

 eigenvalue-minimisations  : 19616
 total energy-change (2. order) :-0.2786612E-05  (-0.2787073E-05)
 number of electron      10.0000000 magnetization       0.0000000
 augmentation part       10.0000000 magnetization       0.0000000

 Free energy of the ion-electron system (eV)
  ---------------------------------------------------
  alpha Z        PSCENC =        19.24756325
  Ewald energy   TEWEN  =      -549.57279523
  -Hartree energ DENC   =      -217.48181860
  -exchange      EXHF   =         0.00000000
  -V(xc)+E(xc)   XCENC  =        49.79845604
  PAW double counting   =       618.96943640     -639.47645653
  entropy T*S    EENTRO =         0.00414165
  eigenvalues    EBANDS =      -154.05357456
  atomic energy  EATOM  =       862.41152047
  ---------------------------------------------------
  free energy    TOTEN  =       -10.15352710 eV

  energy without entropy =      -10.15766875  energy(sigma->0) =      -10.15456251


--------------------------------------------------------------------------------------------------------




--------------------------------------- Iteration      1(   5)  ---------------------------------------


    TRIAL :  cpu time   20.9450: real time    5.2366
    CORREC:  cpu time    0.0187: real time    0.0047
    CHARGE:  cpu time    0.4225: real time    0.1069
    --------------------------------------------
      LOOP:  cpu time   21.3957: real time    5.3508

 eigenvalue-minimisations  : 11072
 total energy-change (2. order) : 0.6070877E-10  (-0.1146762E-10)
 number of electron      10.0000000 magnetization       0.0000000
 augmentation part        2.4040269 magnetization       0.0000000

 Free energy of the ion-electron system (eV)
  ---------------------------------------------------
  alpha Z        PSCENC =        19.24756325
  Ewald energy   TEWEN  =      -549.57279523
  -Hartree energ DENC   =      -217.48181860
  -exchange      EXHF   =         0.00000000
  -V(xc)+E(xc)   XCENC  =        49.79845604
  PAW double counting   =       618.96943640     -639.47645653
  entropy T*S    EENTRO =         0.00414165
  eigenvalues    EBANDS =      -154.05357456
  atomic energy  EATOM  =       862.41152047
  ---------------------------------------------------
  free energy    TOTEN  =       -10.15352710 eV

  energy without entropy =      -10.15766875  energy(sigma->0) =      -10.15456251


--------------------------------------------------------------------------------------------------------




--------------------------------------- Iteration      1(   6)  ---------------------------------------


    POTLOK:  cpu time    0.1927: real time    0.0487
    SETDIJ:  cpu time    1.3554: real time    0.7706
    TRIAL :  cpu time   14.4744: real time    3.6214
    CORREC:  cpu time   11.6126: real time    3.3361
    CHARGE:  cpu time    0.3845: real time    0.0962
    --------------------------------------------
      LOOP:  cpu time   28.0344: real time    7.8758

 eigenvalue-minimisations  :     0
 total energy-change (2. order) : 0.1384886E+01  (-0.8581527E+00)
 number of electron      10.0000000 magnetization       0.0000000
 augmentation part        2.2706726 magnetization      -0.0000001

 Free energy of the ion-electron system (eV)
  ---------------------------------------------------
  alpha Z        PSCENC =        19.24756325
  Ewald energy   TEWEN  =      -549.57279523
  -Hartree energ DENC   =      -253.19040669
  -exchange      EXHF   =         0.00000000
  -V(xc)+E(xc)   XCENC  =        52.07821636
  PAW double counting   =       739.66889988     -761.83156291
  entropy T*S    EENTRO =        -0.00000000
  eigenvalues    EBANDS =      -117.58421740
  atomic energy  EATOM  =       862.41152047
  ---------------------------------------------------
  free energy    TOTEN  =        -8.76864062 eV

  energy without entropy =       -8.76864062  energy(sigma->0) =       -8.76864062


--------------------------------------------------------------------------------------------------------




--------------------------------------- Iteration      1(   7)  ---------------------------------------


    POTLOK:  cpu time    0.1852: real time    0.0463
    SETDIJ:  cpu time    1.3508: real time    0.7701
    TRIAL :  cpu time   13.2446: real time    3.3124
    CORREC:  cpu time   10.3191: real time    3.0125
    CHARGE:  cpu time    0.3358: real time    0.0840
    --------------------------------------------
      LOOP:  cpu time   25.4461: real time    7.2282

 eigenvalue-minimisations  :     0
 total energy-change (2. order) :-0.8338530E+00  (-0.3565845E-01)
 number of electron      10.0000000 magnetization       0.0000004
 augmentation part        2.2677432 magnetization       0.0000001

 Free energy of the ion-electron system (eV)
  ---------------------------------------------------
  alpha Z        PSCENC =        19.24756325
  Ewald energy   TEWEN  =      -549.57279523
  -Hartree energ DENC   =      -231.06215251
  -exchange      EXHF   =         0.00000000
  -V(xc)+E(xc)   XCENC  =        50.65335295
  PAW double counting   =       726.97620249     -748.00141127
  entropy T*S    EENTRO =         0.00239915
  eigenvalues    EBANDS =      -140.25477377
  atomic energy  EATOM  =       862.41152047
  ---------------------------------------------------
  free energy    TOTEN  =        -9.60249362 eV

  energy without entropy =       -9.60489277  energy(sigma->0) =       -9.60309341


--------------------------------------------------------------------------------------------------------




--------------------------------------- Iteration      1(   8)  ---------------------------------------


    POTLOK:  cpu time    0.1443: real time    0.0361
    SETDIJ:  cpu time    1.3487: real time    0.7692
    TRIAL :  cpu time   12.1276: real time    3.0331
    CORREC:  cpu time    2.2846: real time    1.0037
    CHARGE:  cpu time    0.3376: real time    0.0844
    --------------------------------------------
      LOOP:  cpu time   16.2529: real time    4.9293

 eigenvalue-minimisations  :     0
 total energy-change (2. order) :-0.3940338E-01  ( 0.6952583E-03)
 number of electron      10.0000000 magnetization       0.0000000
 augmentation part        2.2677586 magnetization      -0.0000000

 Free energy of the ion-electron system (eV)
  ---------------------------------------------------
  alpha Z        PSCENC =        19.24756325
  Ewald energy   TEWEN  =      -549.57279523
  -Hartree energ DENC   =      -231.19057364
  -exchange      EXHF   =         0.00000000
  -V(xc)+E(xc)   XCENC  =        50.65618697
  PAW double counting   =       715.37044560     -736.46441399
  entropy T*S    EENTRO =        -0.00000000
  eigenvalues    EBANDS =      -140.10222958
  atomic energy  EATOM  =       862.41152047
  ---------------------------------------------------
  free energy    TOTEN  =        -9.64189699 eV

  energy without entropy =       -9.64189699  energy(sigma->0) =       -9.64189699


--------------------------------------------------------------------------------------------------------




--------------------------------------- Iteration      1(   9)  ---------------------------------------


    POTLOK:  cpu time    0.1450: real time    0.0363
    SETDIJ:  cpu time    1.3483: real time    0.7691
    TRIAL :  cpu time   12.1544: real time    3.0398
    CORREC:  cpu time   10.2850: real time    3.0043
    CHARGE:  cpu time    0.3358: real time    0.0840
    --------------------------------------------
      LOOP:  cpu time   24.2780: real time    6.9361

 eigenvalue-minimisations  :     0
 total energy-change (2. order) :-0.2108323E-02  (-0.5810650E-03)
 number of electron      10.0000000 magnetization       0.0000002
 augmentation part        2.2666995 magnetization       0.0000000

 Free energy of the ion-electron system (eV)
  ---------------------------------------------------
  alpha Z        PSCENC =        19.24756325
  Ewald energy   TEWEN  =      -549.57279523
  -Hartree energ DENC   =      -231.24157774
  -exchange      EXHF   =         0.00000000
  -V(xc)+E(xc)   XCENC  =        50.65940900
  PAW double counting   =       714.07428246     -735.18690305
  entropy T*S    EENTRO =         0.00246208
  eigenvalues    EBANDS =      -140.03550448
  atomic energy  EATOM  =       862.41152047
  ---------------------------------------------------
  free energy    TOTEN  =        -9.64400532 eV

  energy without entropy =       -9.64646739  energy(sigma->0) =       -9.64462084


--------------------------------------------------------------------------------------------------------




--------------------------------------- Iteration      1(  10)  ---------------------------------------


    POTLOK:  cpu time    0.1442: real time    0.0360
    SETDIJ:  cpu time    1.3480: real time    0.7691
    TRIAL :  cpu time   12.1322: real time    3.0343
    CORREC:  cpu time   10.3009: real time    3.0076
    CHARGE:  cpu time    0.3350: real time    0.0838
    --------------------------------------------
      LOOP:  cpu time   24.2696: real time    6.9333

 eigenvalue-minimisations  :     0
 total energy-change (2. order) : 0.4804930E-03  (-0.4482223E-04)
 number of electron      10.0000000 magnetization       0.0000001
 augmentation part        2.2657165 magnetization       0.0000000

 Free energy of the ion-electron system (eV)
  ---------------------------------------------------
  alpha Z        PSCENC =        19.24756325
  Ewald energy   TEWEN  =      -549.57279523
  -Hartree energ DENC   =      -231.16951392
  -exchange      EXHF   =         0.00000000
  -V(xc)+E(xc)   XCENC  =        50.65515240
  PAW double counting   =       712.29545692     -733.43045622
  entropy T*S    EENTRO =         0.00267789
  eigenvalues    EBANDS =      -140.08291458
  atomic energy  EATOM  =       862.41152047
  ---------------------------------------------------
  free energy    TOTEN  =        -9.64352482 eV

  energy without entropy =       -9.64620272  energy(sigma->0) =       -9.64419430


--------------------------------------------------------------------------------------------------------




--------------------------------------- Iteration      1(  11)  ---------------------------------------


    POTLOK:  cpu time    0.1449: real time    0.0362
    SETDIJ:  cpu time    1.3493: real time    0.7697
    TRIAL :  cpu time   12.1406: real time    3.0367
    CORREC:  cpu time   10.3049: real time    3.0090
    CHARGE:  cpu time    0.3370: real time    0.0843
    --------------------------------------------
      LOOP:  cpu time   24.2854: real time    6.9384

 eigenvalue-minimisations  :     0
 total energy-change (2. order) :-0.4630624E-04  (-0.7088773E-05)
 number of electron      10.0000000 magnetization       0.0000001
 augmentation part        2.2656065 magnetization       0.0000000

 Free energy of the ion-electron system (eV)
  ---------------------------------------------------
  alpha Z        PSCENC =        19.24756325
  Ewald energy   TEWEN  =      -549.57279523
  -Hartree energ DENC   =      -231.11019057
  -exchange      EXHF   =         0.00000000
  -V(xc)+E(xc)   XCENC  =        50.65188081
  PAW double counting   =       712.36360786     -733.49583115
  entropy T*S    EENTRO =         0.00288392
  eigenvalues    EBANDS =      -140.14200447
  atomic energy  EATOM  =       862.41152047
  ---------------------------------------------------
  free energy    TOTEN  =        -9.64357113 eV

  energy without entropy =       -9.64645506  energy(sigma->0) =       -9.64429211


--------------------------------------------------------------------------------------------------------




--------------------------------------- Iteration      1(  12)  ---------------------------------------


    POTLOK:  cpu time    0.1439: real time    0.0360
    SETDIJ:  cpu time    1.3480: real time    0.7689
    TRIAL :  cpu time   12.1409: real time    3.0364
    CORREC:  cpu time   10.3490: real time    3.0201
    EDDIAG:  cpu time    7.9278: real time    1.9821
    CHARGE:  cpu time    0.3339: real time    0.0835
    --------------------------------------------
      LOOP:  cpu time   32.2535: real time    8.9298

 eigenvalue-minimisations  :     0
 total energy-change (2. order) :-0.7742183E-05  (-0.9040089E-06)
 number of electron      10.0000000 magnetization       0.0000000
 augmentation part        2.2656348 magnetization       0.0000000

 Free energy of the ion-electron system (eV)
  ---------------------------------------------------
  alpha Z        PSCENC =        19.24756325
  Ewald energy   TEWEN  =      -549.57279523
  -Hartree energ DENC   =      -231.14203107
  -exchange      EXHF   =         0.00000000
  -V(xc)+E(xc)   XCENC  =        50.65429555
  PAW double counting   =       712.55240245     -733.68589744
  entropy T*S    EENTRO =         0.00297009
  eigenvalues    EBANDS =      -140.11152078
  atomic energy  EATOM  =       862.41152047
  ---------------------------------------------------
  free energy    TOTEN  =        -9.64357887 eV

  energy without entropy =       -9.64654896  energy(sigma->0) =       -9.64432140


--------------------------------------------------------------------------------------------------------


  average scaling for gradient   1.3155


 average (electrostatic) potential at core
  the test charge radii are     0.7079  0.7167
  (the norm of the test charge is              1.0000)
       1 -61.3101       2 -76.9832
 
 
 
 E-fermi :  -1.2298     XC(G=0):  -9.7871     alpha+bet :-12.5784


 spin component 1

 k-point     1 :       0.0000    0.0000    0.0000
  band No.  band energies     occupation 
      1     -42.2737      1.00000
      2     -21.1320      1.00000
      3      -1.2693      0.71642
      4      -1.2693      0.71642
      5      -1.2693      0.71641
      6       7.4575      0.00000
      7      22.1645      0.00000
      8      22.1645      0.00000
      9      22.1645      0.00000
     10      22.6567      0.00000
     11      22.6567      0.00000
     12      22.6567      0.00000
     13      25.5599      0.00000
     14      29.6250      0.00000
     15      29.6250      0.00000
     16      42.4887      0.00000
     17      42.4887      0.00000
     18      42.4887      0.00000
     19      44.7468      0.00000
     20      62.1987      0.00000
     21      62.1987      0.00000
     22      62.1987      0.00000
     23      63.1084      0.00000
     24      65.7355      0.00000
     25      65.7356      0.00000
     26      66.3838      0.00000
     27      66.3839      0.00000
     28      66.3839      0.00000
     29      66.5026      0.00000
     30      66.5027      0.00000
     31      66.5027      0.00000
     32      81.6244      0.00000

 k-point     2 :       0.0769   -0.0000    0.0000
  band No.  band energies     occupation 
      1     -42.2708      1.00000
      2     -21.1101      1.00000
      3      -1.4362      1.04928
      4      -1.2820      0.77486
      5      -1.2820      0.77484
      6       7.6369      0.00000
      7      20.2775      0.00000
      8      21.3213      0.00000
      9      21.3213      0.00000
     10      23.3768      0.00000
     11      23.3768      0.00000
     12      23.4535      0.00000
     13      27.2860      0.00000
     14      30.1174      0.00000
     15      30.1174      0.00000
     16      41.6545      0.00000
     17      42.5946      0.00000
     18      42.5946      0.00000
     19      45.0374      0.00000
     20      59.8439      0.00000
     21      59.8439      0.00000
     22      61.5111      0.00000
     23      63.2744      0.00000
     24      64.4034      0.00000
     25      64.4034      0.00000
     26      66.1380      0.00000
     27      66.1380      0.00000
     28      66.6610      0.00000
     29      67.5582      0.00000
     30      70.6752      0.00000
     31      70.6755      0.00000
     32      81.1961      0.00000

 k-point     3 :       0.1538   -0.0000    0.0000
  band No.  band energies     occupation 
      1     -42.2630      1.00000
      2     -21.0490      1.00000
      3      -1.8720      0.99991
      4      -1.3174      0.91029
      5      -1.3174      0.91026
      6       8.0899      0.00000
      7      18.2110      0.00000
      8      20.1997      0.00000
      9      20.1997      0.00000
     10      24.0840      0.00000
     11      24.3200      0.00000
     12      24.3200      0.00000
     13      30.6001      0.00000
     14      31.3416      0.00000
     15      31.3416      0.00000
     16      39.9019      0.00000
     17      42.9145      0.00000
     18      42.9145      0.00000
     19      45.3351      0.00000
     20      55.9000      0.00000
     21      55.9000      0.00000
     22      60.4133      0.00000
     23      63.6080      0.00000
     24      64.6459      0.00000
     25      64.6459      0.00000
     26      65.4133      0.00000
     27      65.4133      0.00000
     28      67.1353      0.00000
     29      69.9649      0.00000
     30      75.6412      0.00000
     31      75.6420      0.00000
     32      79.3501      0.00000

 k-point     4 :       0.2308   -0.0000    0.0000
  band No.  band energies     occupation 
      1     -42.2521      1.00000
      2     -20.9607      1.00000
      3      -2.4337      1.00000
      4      -1.3663      1.02011
      5      -1.3663      1.02011
      6       8.6254      0.00000
      7      16.6167      0.00000
      8      19.1408      0.00000
      9      19.1408      0.00000
     10      24.9174      0.00000
     11      25.4371      0.00000
     12      25.4371      0.00000
     13      32.8093      0.00000
     14      32.8093      0.00000
     15      34.2190      0.00000
     16      38.0883      0.00000
     17      43.4199      0.00000
     18      43.4199      0.00000
     19      45.3633      0.00000
     20      52.3834      0.00000
     21      52.3834      0.00000
     22      59.5639      0.00000
     23      63.6849      0.00000
     24      64.2325      0.00000
     25      64.2325      0.00000
     26      65.3761      0.00000
     27      65.3761      0.00000
     28      67.9238      0.00000
     29      72.2190      0.00000
     30      75.0928      0.00000
     31      75.0928      0.00000
     32      77.6034      0.00000

 k-point     5 :       0.3077   -0.0000    0.0000
  band No.  band energies     occupation 
      1     -42.2405      1.00000
      2     -20.8640      1.00000
      3      -2.9806      1.00000
      4      -1.4168      1.05160
      5      -1.4168      1.05160
      6       9.0432      0.00000
      7      15.6041      0.00000
      8      18.2700      0.00000
      9      18.2700      0.00000
     10      25.9613      0.00000
     11      26.7213      0.00000
     12      26.7213      0.00000
     13      34.0637      0.00000
     14      34.0637      0.00000
     15      34.8798      0.00000
     16      39.5962      0.00000
     17      43.8554      0.00000
     18      43.8554      0.00000
     19      45.1717      0.00000
     20      49.9609      0.00000
     21      49.9609      0.00000
     22      58.9320      0.00000
     23      62.6467      0.00000
     24      62.6467      0.00000
     25      63.0412      0.00000
     26      66.3725      0.00000
     27      66.3725      0.00000
     28      69.0207      0.00000
     29      71.4753      0.00000
     30      71.7582      0.00000
     31      71.7582      0.00000
     32      73.4539      0.00000

 k-point     6 :       0.3846    0.0000    0.0000
  band No.  band energies     occupation 
      1     -42.2309      1.00000
      2     -20.7814      1.00000
      3      -3.4056      1.00000
      4      -1.4575      1.04192
      5      -1.4575      1.04192
      6       9.2444      0.00000
      7      15.1308      0.00000
      8      17.6586      0.00000
      9      17.6587      0.00000
     10      27.1289      0.00000
     11      28.0085      0.00000
     12      28.0086      0.00000
     13      33.1351      0.00000
     14      34.7754      0.00000
     15      34.7755      0.00000
     16      43.5959      0.00000
     17      43.5959      0.00000
     18      43.9792      0.00000
     19      44.9021      0.00000
     20      49.4502      0.00000
     21      49.4502      0.00000
     22      57.5322      0.00000
     23      60.6541      0.00000
     24      60.6541      0.00000
     25      61.9372      0.00000
     26      67.5766      0.00000
     27      67.5766      0.00000
     28      67.9438      0.00000
     29      69.4187      0.00000
     30      69.4187      0.00000
     31      70.4054      0.00000
     32      72.4752      0.00000

 k-point     7 :       0.4615   -0.0000    0.0000
  band No.  band energies     occupation 
      1     -42.2255      1.00000
      2     -20.7337      1.00000
      3      -3.6368      1.00000
      4      -1.4804      1.03140
      5      -1.4804      1.03140
      6       9.2913      0.00000
      7      14.9931      0.00000
      8      17.3446      0.00000
      9      17.3446      0.00000
     10      28.1582      0.00000
     11      28.9110      0.00000
     12      28.9110      0.00000
     13      31.7243      0.00000
     14      34.9456      0.00000
     15      34.9456      0.00000
     16      43.0243      0.00000
     17      43.0243      0.00000
     18      44.6910      0.00000
     19      48.5429      0.00000
     20      50.1707      0.00000
     21      50.1707      0.00000
     22      54.1512      0.00000
     23      58.9455      0.00000
     24      58.9455      0.00000
     25      61.7288      0.00000
     26      65.9824      0.00000
     27      68.1098      0.00000
     28      68.1098      0.00000
     29      68.9521      0.00000
     30      68.9521      0.00000
     31      71.9355      0.00000
     32      72.0373      0.00000

 k-point     8 :       0.0769    0.0769    0.0000
  band No.  band energies     occupation 
      1     -42.2699      1.00000
      2     -21.1026      1.00000
      3      -1.4199      1.05161
      4      -1.3247      0.93252
      5      -1.3247      0.93252
      6       7.7033      0.00000
      7      20.8011      0.00000
      8      20.8011      0.00000
      9      21.1906      0.00000
     10      21.3251      0.00000
     11      24.5349      0.00000
     12      24.5349      0.00000
     13      27.4517      0.00000
     14      29.8282      0.00000
     15      30.6140      0.00000
     16      41.8942      0.00000
     17      42.3657      0.00000
     18      42.3657      0.00000
     19      45.1581      0.00000
     20      59.7381      0.00000
     21      59.7381      0.00000
     22      60.8409      0.00000
     23      62.3828      0.00000
     24      63.3193      0.00000
     25      64.3259      0.00000
     26      66.3886      0.00000
     27      66.3886      0.00000
     28      67.6281      0.00000
     29      69.5194      0.00000
     30      69.5194      0.00000
     31      71.7984      0.00000
     32      81.2393      0.00000

 k-point     9 :       0.1538    0.0769    0.0000
  band No.  band energies     occupation 
      1     -42.2638      1.00000
      2     -21.0537      1.00000
      3      -1.7524      0.99868
      4      -1.3864      1.04086
      5      -1.3440      0.98124
      6       8.0853      0.00000
      7      18.7937      0.00000
      8      20.0669      0.00000
      9      20.3534      0.00000
     10      21.7781      0.00000
     11      25.4037      0.00000
     12      25.6047      0.00000
     13      29.9261      0.00000
     14      30.5557      0.00000
     15      31.6330      0.00000
     16      40.5621      0.00000
     17      42.3239      0.00000
     18      42.8390      0.00000
     19      45.4629      0.00000
     20      56.0362      0.00000
     21      57.3411      0.00000
     22      60.6329      0.00000
     23      61.3221      0.00000
     24      63.3998      0.00000
     25      63.6794      0.00000
     26      66.1733      0.00000
     27      67.0565      0.00000
     28      68.5930      0.00000
     29      70.5919      0.00000
     30      73.3920      0.00000
     31      76.0888      0.00000
     32      79.4403      0.00000

 k-point    10 :       0.2308    0.0769    0.0000
  band No.  band energies     occupation 
      1     -42.2540      1.00000
      2     -20.9732      1.00000
      3      -2.2703      1.00000
      4      -1.4523      1.04407
      5      -1.3826      1.03786
      6       8.6255      0.00000
      7      17.0197      0.00000
      8      19.2572      0.00000
      9      19.3010      0.00000
     10      22.7658      0.00000
     11      26.2106      0.00000
     12      26.5629      0.00000
     13      32.0564      0.00000
     14      32.7168      0.00000
     15      33.4481      0.00000
     16      38.7338      0.00000
     17      42.3796      0.00000
     18      43.7142      0.00000
     19      45.6731      0.00000
     20      52.4264      0.00000
     21      54.1370      0.00000
     22      59.8348      0.00000
     23      61.1197      0.00000
     24      62.8883      0.00000
     25      63.9817      0.00000
     26      65.6472      0.00000
     27      66.9056      0.00000
     28      71.0058      0.00000
     29      71.2840      0.00000
     30      74.8103      0.00000
     31      75.8415      0.00000
     32      78.8408      0.00000

 k-point    11 :       0.3077    0.0769    0.0000
  band No.  band energies     occupation 
      1     -42.2426      1.00000
      2     -20.8778      1.00000
      3      -2.8156      1.00000
      4      -1.5065      1.01818
      5      -1.4484      1.04553
      6       9.1232      0.00000
      7      15.7914      0.00000
      8      18.4042      0.00000
      9      18.4880      0.00000
     10      23.9712      0.00000
     11      27.2182      0.00000
     12      27.5873      0.00000
     13      33.5327      0.00000
     14      33.7189      0.00000
     15      35.7779      0.00000
     16      38.5980      0.00000
     17      42.3577      0.00000
     18      44.4137      0.00000
     19      46.1260      0.00000
     20      49.8920      0.00000
     21      51.1349      0.00000
     22      58.7743      0.00000
     23      61.5860      0.00000
     24      61.7702      0.00000
     25      63.9768      0.00000
     26      65.0401      0.00000
     27      66.8113      0.00000
     28      70.3785      0.00000
     29      71.9807      0.00000
     30      72.3351      0.00000
     31      73.7367      0.00000
     32      74.3097      0.00000

 k-point    12 :       0.3846    0.0769    0.0000
  band No.  band energies     occupation 
      1     -42.2324      1.00000
      2     -20.7889      1.00000
      3      -3.2736      1.00000
      4      -1.5374      1.00668
      5      -1.5256      1.01059
      6       9.4257      0.00000
      7      15.1243      0.00000
      8      17.7602      0.00000
      9      17.8682      0.00000
     10      25.3267      0.00000
     11      28.2933      0.00000
     12      28.6074      0.00000
     13      33.4004      0.00000
[...]
  180      eddiag                                4.855195                             14   2
  181        fftwav_mpi                            0.695919                         2352   3
  182          fftwav                                0.669628                       2352   4
  183            fft3d                                 0.568629                     2352   5
  184        eccp                                  0.067915                         2016   3
  185        M_sumb_d                              0.245645                          684   3
  186        overl                                 0.009062                          336   3
  187        redis_proj                            0.173835                         1008   3
  188          M_alltoall_d                          0.158594                       1008   4
  189        hamilt_local                          0.139446                          336   3
  190          vhamil                                0.014933                        336   4
  191          kinhamil                              0.117590                        336   4
  192            fftext_mpi                            0.110791                      336   5
  193              fft3d_mpi                             0.102738                    336   6
  194                fft3d                                 0.097961                  336   7
  195        redis_pw                              0.256200                         1008   3
  196          M_alltoall_d                          0.232775                       1008   4
  197        orth1                                 0.038042                          336   3
  198        shift_bands_between_low_high          0.001328                          336   3
  199        pdssyex_zheevx                        3.072583                          336   3
  200        lincom                                0.038038                          336   3
  201      rotate_active_occupied_orbital        0.000020                              2   2
  202      sphpro_fast                           0.959097                              3   2
  203        M_sumb_d                              0.005038                            7   3
  204      force_and_stress                      2.827310                              2   2
  205        forloc                                0.000897                            2   3
  206          M_sumb_d                              0.000157                          2   4
  207        fornl                                 0.026793                            2   3
  208          phase                                 0.006515                        168   4
  209          M_sumb_d                              0.000211                          4   4
  210        fordep                                0.121925                            2   3
  211          setdij_                               0.121612                         12   4
  212            fft3d_mpi                             0.070711                       48   5
  213              fftbas_plan_mpi                       0.066741                     48   6
  214                dfftw_execute                         0.009857                  144   7
  215                map_backward                          0.014375                   48   7
  216                  map_gather                            0.000419                 24   8
  217                  m_alltoallv_z                         0.012436                 24   8
  218                  map_scatter                           0.000693                 24   8
  219                map_forward                           0.030044                   48   7
  220                  map_gather                            0.001956                 24   8
  221                  m_alltoallv_z                         0.023572                 24   8
  222                  map_scatter                           0.003443                 24   8
  223            M_sumb_d                              0.001411                       12   5
  224        setdij_                               0.423307                           40   3
  225          fft3d_mpi                             0.247394                        160   4
  226            fftbas_plan_mpi                       0.234374                      160   5
  227              dfftw_execute                         0.031103                    480   6
  228              map_backward                          0.059976                    160   6
  229                map_gather                            0.001406                   80   7
  230                m_alltoallv_z                         0.053562                   80   7
  231                map_scatter                           0.002147                   80   7
  232              map_forward                           0.102527                    160   6
  233                map_gather                            0.005732                   80   7
  234                m_alltoallv_z                         0.083031                   80   7
  235                map_scatter                           0.010254                   80   7
  236          M_sumb_d                              0.013062                         40   4
  237        set_dd_magatom                        0.000011                            2   3
  238        set_dd_paw                            1.519596                            2   3
  239          set_rsgf_all                          0.000007                          2   4
  240          M_sumb_d                              1.519253                         14   4
  241        strkin                                0.001840                            2   3
  242          M_sumb_d                              0.000199                          2   4
  243        strelo                                0.001091                            2   3
  244          M_sumb_d                              0.000381                          4   4
  245        strenl                                0.640607                            2   3
  246          spher                                 0.438726                         38   4
  247          phase                                 0.060787                       1512   4
  248          proj1                                 0.097056                       3024   4
  249            crexp_mul_wave                        0.024326                     3024   5
  250          M_sumb_d                              0.000152                          2   4
  251        fft3d_mpi                             0.044265                           44   3
  252          fftbas_plan_mpi                       0.043020                         44   4
  253            dfftw_execute                         0.004236                      132   5
  254            map_forward                           0.011636                       40   5
  255              map_gather                            0.000254                     20   6
  256              m_alltoallv_z                         0.010148                     20   6
  257              map_scatter                           0.000598                     20   6
  258            map_backward                          0.019074                       48   5
  259              map_gather                            0.000419                     24   6
  260              m_alltoallv_z                         0.017395                     24   6
  261              map_scatter                           0.000496                     24   6
  262        M_sumb_d                              0.000459                           10   3
  263        forhar                                0.000526                            2   3
  264          M_sumb_d                              0.000328                          2   4
  265        strehar                               0.000665                            2   3
  266          M_sumb_d                              0.000267                          2   4
  267        M_bcast_d                             0.000200                            4   3
  268      set_dd_magatom                        0.000007                              2   2
  269      fftwav_mpi                            0.167541                            504   2
  270        fftwav                                0.161999                          504   3
  271          fft3d                                 0.136916                        504   4
  272      lprj_proall                           0.000007                              1   2
 
 Flat profile
 ============
 
             routine name                   CPU           calls
 ---------------------------------------------------------------
 pdssyex_zheevx                         39.814273        4200
 M_sumb_d                               30.663653       33630
 eddav                                  20.872990           5
 total_time                             18.492044           1
 M_alltoall_d                           14.531148       92876
 fft3d                                   5.813397       19600
 edwav                                   4.151579          24
 bg_ppotrf_trtri                         1.484067        4200
 redis_proj                              0.968954       63224
 orth1                                   0.959577       10500
 sphpro_fast                             0.954059           3
 m_alltoallv_z                           0.912090        1363
 M_bcast_z                               0.911841        8372
 fftwav                                  0.706971       14252
 lincom                                  0.653206        8064
 redis_pw                                0.644147       29652
 set_charge                              0.625629          26
 spher                                   0.469705          40
 eccp                                    0.415906        8904
 potlok                                  0.370353          28
 setdij_                                 0.335281          80
 fftbas_plan_mpi                         0.288622        1235
 overl                                   0.278746       15736
 lincom_slice                            0.268946        4200
 orthch                                  0.267348          25
 proj1                                   0.254858        7532
 vhamil                                  0.238964        5348
 phase                                   0.215856        4706
 dfftw_execute                           0.204885        3705
 M_bcast_d                               0.201791        3061
 fftext_mpi                              0.200882        5348
 vnlac0                                  0.195789        5012
 hamiltmu                                0.192802        2996
 orth1_nosubindex                        0.189298        4200
 gemm                                    0.187929       10024
 fft3d_mpi                               0.168820        6583
 fftwav_mpi                              0.167113       14252
 w1_copy                                 0.162385        8988
 work_mul_crexp                          0.123770       10024
 lincom_distri                           0.122861        4200
 orth1_distri                            0.120039        4200
 eddiag                                  0.117182          14
 pw_charge                               0.112394        4368
 kinhamil                                0.107188        5348
 m_sum_g                                 0.094730        8400
 soft_charge                             0.090899          26
 crexp_mul_wave                          0.089058        7532
 apply_precond                           0.067508        2156
 crpa_reader                             0.061153           1
 densta                                  0.059820          36
 map_scatter                             0.058438        1363
 w1_dscal                                0.051752        2016
 choleski                                0.050417        4200
 hamilt_local                            0.048200        2352
 force_and_stress                        0.045129           2
 overl1                                  0.044731        2996
 strenl                                  0.043886           2
 redis_pw_all                            0.034106          24
 map_gather                              0.033115        1363
 recon_slice                             0.029421        4200
 w1_projall                              0.027734        2156
 distri_slice                            0.026190        4200
 map_backward                            0.023802        1276
 map_forward                             0.023489        1194
 setup_precond                           0.023437         840
 fornl                                   0.020067           2
 truncate_high_frequency_w1              0.013834        3836
 depsum                                  0.012295          26
 set_dd_paw                              0.005422          29
 proj                                    0.004483         168
 strkin                                  0.001641           2
 shift_bands_between_low_high            0.001328         336
 forloc                                  0.000740           2
 strelo                                  0.000710           2
 strehar                                 0.000398           2
 fordep                                  0.000313           2
 redis_pw_over_bands                     0.000297          26
 brgrid                                  0.000267           1
 forhar                                  0.000198           2
 set_rsgf_all                            0.000127          29
 potlok_metagga                          0.000107          28
 set_kineden                             0.000093          26
 rotate_active_occupied_orbital          0.000020           2
 set_dd_magatom                          0.000018           4
 vectorpot                               0.000016           1
 lprj_proall                             0.000007           1
 ---------------------------------------------------------------
  summed up times    150.228736877441     
 
 Accumulative profile
 ====================
 
             routine name                   CPU           calls
 ---------------------------------------------------------------
 total_time                            150.228737           1
 edwav                                  61.651867          24
 pdssyex_zheevx                         39.814273        4200
 eddav                                  34.214867           5
 M_sumb_d                               30.663653       33630
 set_dd_paw                             22.518067          29
 M_alltoall_d                           14.531148       92876
 redis_proj                              8.722577       63224
 redis_pw                                7.421672       29652
 fft3d                                   5.813397       19600
 orthch                                  5.745017          25
 fftwav_mpi                              5.036540       14252
 fftwav                                  4.869427       14252
 eddiag                                  4.855195          14
 fft3d_mpi                               3.364202        6583
 force_and_stress                        2.827310           2
 set_charge                              2.520340          26
 kinhamil                                2.038143        5348
 fftext_mpi                              1.930955        5348
 hamiltmu                                1.915841        2996
 soft_charge                             1.633564          26
 m_sum_g                                 1.575725        8400
 fftbas_plan_mpi                         1.544442        1235
 choleski                                1.534484        4200
 bg_ppotrf_trtri                         1.484067        4200
 lincom_distri                           1.235516        4200
 potlok                                  1.126169          28
 orth1_distri                            1.096965        4200
 orth1                                   0.959577       10500
 sphpro_fast                             0.959097           3
 hamilt_local                            0.948693        2352
 m_alltoallv_z                           0.912090        1363
 M_bcast_z                               0.911841        8372
 setdij_                                 0.854607          80
 redis_pw_over_bands                     0.843112          26
 redis_pw_all                            0.842815          24
 lincom                                  0.653206        8064
 strenl                                  0.640607           2
 map_backward                            0.550361        1276
 vnlac0                                  0.507488        5012
 map_forward                             0.500574        1194
 spher                                   0.469705          40
 eccp                                    0.415906        8904
 proj1                                   0.343916        7532
 overl                                   0.278746       15736
 lincom_slice                            0.268946        4200
 vhamil                                  0.238964        5348
 phase                                   0.215856        4706
 dfftw_execute                           0.204885        3705
 M_bcast_d                               0.201791        3061
 orth1_nosubindex                        0.189298        4200
 gemm                                    0.187929       10024
 w1_copy                                 0.162385        8988
 w1_projall                              0.161552        2156
 densta                                  0.124041          36
 work_mul_crexp                          0.123770       10024
 fordep                                  0.121925           2
 pw_charge                               0.112394        4368
 crexp_mul_wave                          0.089058        7532
 apply_precond                           0.067508        2156
 crpa_reader                             0.061153           1
 map_scatter                             0.058438        1363
 w1_dscal                                0.051752        2016
 overl1                                  0.044731        2996
 depsum                                  0.044442          26
 map_gather                              0.033115        1363
 recon_slice                             0.029421        4200
 fornl                                   0.026793           2
 distri_slice                            0.026190        4200
 setup_precond                           0.023437         840
 proj                                    0.015388         168
 truncate_high_frequency_w1              0.013834        3836
 strkin                                  0.001840           2
 shift_bands_between_low_high            0.001328         336
 strelo                                  0.001091           2
 forloc                                  0.000897           2
 strehar                                 0.000665           2
 forhar                                  0.000526           2
 brgrid                                  0.000267           1
 set_rsgf_all                            0.000127          29
 potlok_metagga                          0.000107          28
 set_kineden                             0.000093          26
 rotate_active_occupied_orbital          0.000020           2
 set_dd_magatom                          0.000018           4
 vectorpot                               0.000016           1
 lprj_proall                             0.000007           1
 ---------------------------------------------------------------
 
Profiling took   1.198952  1.448412  0.005561  0.004295 seconds
Profiling took   1.218343 seconds
