<?xml version="1.0" encoding="ISO-8859-1"?>
<modeling>
 <generator>
  <i name="program" type="string">vasp </i>
  <i name="version" type="string">6.0.8  </i>
  <i name="subversion" type="string">29Jun18 (build Jun 13 2019 12:54:44) complex                          parallel </i>
  <i name="platform" type="string">IFC18_CrayMPICH </i>
  <i name="date" type="string">2019 12 19 </i>
  <i name="time" type="string">12:51:37 </i>
 </generator>
 <incar>
  <i type="string" name="PREC"> Accurate</i>
  <i type="string" name="ALGO"> All</i>
  <i type="logical" name="ADDGRID"> T  </i>
  <i type="int" name="ISPIN">     2</i>
  <i type="int" name="ICHARG">     2</i>
  <i type="int" name="NELM">   200</i>
  <i type="int" name="IBRION">     2</i>
  <i name="EDIFF">      0.00001000</i>
  <i name="EDIFFG">     -0.05000000</i>
  <i type="int" name="NSW">    99</i>
  <i type="int" name="ISIF">     3</i>
  <i name="ENCUT">    680.00000000</i>
  <v name="MAGMOM">      0.00000000      0.00000000</v>
  <i type="logical" name="LREAL"> F  </i>
  <i type="int" name="ISMEAR">     2</i>
  <i name="SIGMA">      0.20000000</i>
  <i name="KSPACING">      0.22000000</i>
  <i type="logical" name="LWAVE"> T  </i>
  <i type="logical" name="LCHARG"> T  </i>
  <i type="logical" name="LVTOT"> T  </i>
  <i type="logical" name="LELF"> T  </i>
  <i type="logical" name="LASPH"> T  </i>
  <i type="logical" name="LAECHG"> T  </i>
  <i type="string" name="ALGO"> All</i>
  <i type="int" name="NELM">   200</i>
  <i name="EDIFF">      0.00001000</i>
  <i type="string" name="METAGGA"> None</i>
  <i type="logical" name="LASPH"> T  </i>
  <i type="logical" name="LMIXTAU"> T  </i>
  <i type="int" name="ISPIN">     2</i>
 </incar>
 <structure name="primitive_cell" >
  <crystal>
   <varray name="basis" >
    <v>       2.50057800       0.00000000       1.44371000 </v>
    <v>       0.83352600       2.35756800       1.44371000 </v>
    <v>       0.00000000       0.00000000       2.88741900 </v>
   </varray>
   <i name="volume">     17.02215120 </i>
   <varray name="rec_basis" >
    <v>       0.39990754      -0.14138864       0.00000000 </v>
    <v>       0.00000000       0.42416592       0.00000000 </v>
    <v>      -0.19995384      -0.14138869       0.34633006 </v>
   </varray>
  </crystal>
  <varray name="positions" >
   <v>       0.00000000       0.00000000       0.00000000 </v>
   <v>       0.50000000       0.50000000       0.50000000 </v>
  </varray>
 </structure>
 <varray name="primitive_index" >
  <v type="int" >        1 </v>
  <v type="int" >        2 </v>
 </varray>
 <kpoints>
  <generation param="Gamma">
   <v type="int" name="divisions">      13       13       13 </v>
   <v name="usershift">      0.00000000       0.00000000       0.00000000 </v>
   <v name="genvec1">      0.07692308      -0.00000000       0.00000000 </v>
   <v name="genvec2">      0.00000000       0.07692308       0.00000000 </v>
   <v name="genvec3">      0.00000000       0.00000000       0.07692308 </v>
   <v name="shift">      0.00000000       0.00000000       0.00000000 </v>
  </generation>
  <varray name="kpointlist" >
   <v>       0.00000000       0.00000000       0.00000000 </v>
   <v>       0.07692308      -0.00000000       0.00000000 </v>
   <v>       0.15384615      -0.00000000       0.00000000 </v>
   <v>       0.23076923      -0.00000000       0.00000000 </v>
   <v>       0.30769231      -0.00000000       0.00000000 </v>
   <v>       0.38461538       0.00000000       0.00000000 </v>
   <v>       0.46153846      -0.00000000       0.00000000 </v>
   <v>       0.07692308       0.07692308       0.00000000 </v>
   <v>       0.15384615       0.07692308       0.00000000 </v>
   <v>       0.23076923       0.07692308       0.00000000 </v>
   <v>       0.30769231       0.07692308       0.00000000 </v>
   <v>       0.38461538       0.07692308       0.00000000 </v>
   <v>       0.46153846       0.07692308       0.00000000 </v>
   <v>      -0.46153846       0.07692308       0.00000000 </v>
   <v>      -0.38461538       0.07692308       0.00000000 </v>
   <v>      -0.30769231       0.07692308       0.00000000 </v>
   <v>      -0.23076923       0.07692308       0.00000000 </v>
   <v>      -0.15384615       0.07692308       0.00000000 </v>
   <v>      -0.07692308       0.07692308       0.00000000 </v>
   <v>       0.15384615       0.15384615       0.00000000 </v>
   <v>       0.23076923       0.15384615       0.00000000 </v>
   <v>       0.30769231       0.15384615       0.00000000 </v>
   <v>       0.38461538       0.15384615       0.00000000 </v>
   <v>       0.46153846       0.15384615       0.00000000 </v>
   <v>      -0.46153846       0.15384615       0.00000000 </v>
   <v>      -0.38461538       0.15384615       0.00000000 </v>
   <v>      -0.30769231       0.15384615       0.00000000 </v>
   <v>      -0.23076923       0.15384615       0.00000000 </v>
   <v>      -0.15384615       0.15384615       0.00000000 </v>
   <v>       0.23076923       0.23076923       0.00000000 </v>
   <v>       0.30769231       0.23076923       0.00000000 </v>
   <v>       0.38461538       0.23076923       0.00000000 </v>
   <v>       0.46153846       0.23076923       0.00000000 </v>
   <v>      -0.46153846       0.23076923       0.00000000 </v>
   <v>      -0.38461538       0.23076923       0.00000000 </v>
   <v>      -0.30769231       0.23076923       0.00000000 </v>
   <v>      -0.23076923       0.23076923       0.00000000 </v>
   <v>       0.30769231       0.30769231       0.00000000 </v>
   <v>       0.38461538       0.30769231       0.00000000 </v>
   <v>       0.46153846       0.30769231       0.00000000 </v>
   <v>      -0.46153846       0.30769231       0.00000000 </v>
   <v>      -0.38461538       0.30769231       0.00000000 </v>
   <v>      -0.30769231       0.30769231       0.00000000 </v>
   <v>       0.38461538       0.38461538       0.00000000 </v>
   <v>       0.46153846       0.38461538       0.00000000 </v>
   <v>      -0.46153846       0.38461538       0.00000000 </v>
   <v>      -0.38461538       0.38461538       0.00000000 </v>
   <v>       0.46153846       0.46153846       0.00000000 </v>
   <v>      -0.46153846       0.46153846       0.00000000 </v>
   <v>       0.23076923       0.15384615       0.07692308 </v>
   <v>       0.30769231       0.15384615       0.07692308 </v>
   <v>       0.38461538       0.15384615       0.07692308 </v>
   <v>       0.46153846       0.15384615       0.07692308 </v>
   <v>      -0.46153846       0.15384615       0.07692308 </v>
   <v>       0.30769231       0.23076923       0.07692308 </v>
   <v>       0.38461538       0.23076923       0.07692308 </v>
   <v>       0.46153846       0.23076923       0.07692308 </v>
   <v>      -0.46153846       0.23076923       0.07692308 </v>
   <v>      -0.38461538       0.23076923       0.07692308 </v>
   <v>      -0.30769231       0.23076923       0.07692308 </v>
   <v>      -0.23076923       0.23076923       0.07692308 </v>
   <v>      -0.15384615       0.23076923       0.07692308 </v>
   <v>       0.38461538       0.30769231       0.07692308 </v>
   <v>       0.46153846       0.30769231       0.07692308 </v>
   <v>      -0.46153846       0.30769231       0.07692308 </v>
   <v>      -0.38461538       0.30769231       0.07692308 </v>
   <v>      -0.30769231       0.30769231       0.07692308 </v>
   <v>      -0.23076923       0.30769231       0.07692308 </v>
   <v>       0.46153846       0.38461538       0.07692308 </v>
   <v>      -0.46153846       0.38461538       0.07692308 </v>
   <v>      -0.38461538       0.38461538       0.07692308 </v>
   <v>      -0.30769231       0.38461538       0.07692308 </v>
   <v>      -0.46153846       0.46153846       0.07692308 </v>
   <v>      -0.38461538       0.46153846       0.07692308 </v>
   <v>       0.46153846       0.30769231       0.15384615 </v>
   <v>      -0.46153846       0.30769231       0.15384615 </v>
   <v>      -0.38461538       0.30769231       0.15384615 </v>
   <v>      -0.46153846       0.38461538       0.15384615 </v>
   <v>      -0.38461538       0.38461538       0.15384615 </v>
   <v>      -0.30769231       0.38461538       0.15384615 </v>
   <v>      -0.23076923       0.38461538       0.15384615 </v>
   <v>      -0.38461538       0.46153846       0.15384615 </v>
   <v>      -0.30769231       0.46153846       0.15384615 </v>
   <v>      -0.30769231       0.46153846       0.23076923 </v>
  </varray>
  <varray name="weights" >
   <v>       0.00045517 </v>
   <v>       0.00364133 </v>
   <v>       0.00364133 </v>
   <v>       0.00364133 </v>
   <v>       0.00364133 </v>
   <v>       0.00364133 </v>
   <v>       0.00364133 </v>
   <v>       0.00273100 </v>
   <v>       0.01092399 </v>
   <v>       0.01092399 </v>
   <v>       0.01092399 </v>
   <v>       0.01092399 </v>
   <v>       0.01092399 </v>
   <v>       0.01092399 </v>
   <v>       0.01092399 </v>
   <v>       0.01092399 </v>
   <v>       0.01092399 </v>
   <v>       0.01092399 </v>
   <v>       0.00546199 </v>
   <v>       0.00273100 </v>
   <v>       0.01092399 </v>
   <v>       0.01092399 </v>
   <v>       0.01092399 </v>
   <v>       0.01092399 </v>
   <v>       0.01092399 </v>
   <v>       0.01092399 </v>
   <v>       0.01092399 </v>
   <v>       0.01092399 </v>
   <v>       0.00546199 </v>
   <v>       0.00273100 </v>
   <v>       0.01092399 </v>
   <v>       0.01092399 </v>
   <v>       0.01092399 </v>
   <v>       0.01092399 </v>
   <v>       0.01092399 </v>
   <v>       0.01092399 </v>
   <v>       0.00546199 </v>
   <v>       0.00273100 </v>
   <v>       0.01092399 </v>
   <v>       0.01092399 </v>
   <v>       0.01092399 </v>
   <v>       0.01092399 </v>
   <v>       0.00546199 </v>
   <v>       0.00273100 </v>
   <v>       0.01092399 </v>
   <v>       0.01092399 </v>
   <v>       0.00546199 </v>
   <v>       0.00273100 </v>
   <v>       0.00546199 </v>
   <v>       0.01092399 </v>
   <v>       0.02184797 </v>
   <v>       0.02184797 </v>
   <v>       0.02184797 </v>
   <v>       0.02184797 </v>
   <v>       0.01092399 </v>
   <v>       0.02184797 </v>
   <v>       0.02184797 </v>
   <v>       0.02184797 </v>
   <v>       0.02184797 </v>
   <v>       0.02184797 </v>
   <v>       0.02184797 </v>
   <v>       0.01092399 </v>
   <v>       0.01092399 </v>
   <v>       0.02184797 </v>
   <v>       0.02184797 </v>
   <v>       0.02184797 </v>
   <v>       0.02184797 </v>
   <v>       0.01092399 </v>
   <v>       0.01092399 </v>
   <v>       0.02184797 </v>
   <v>       0.02184797 </v>
   <v>       0.01092399 </v>
   <v>       0.01092399 </v>
   <v>       0.01092399 </v>
   <v>       0.01092399 </v>
   <v>       0.02184797 </v>
   <v>       0.02184797 </v>
   <v>       0.01092399 </v>
   <v>       0.02184797 </v>
   <v>       0.02184797 </v>
   <v>       0.01092399 </v>
   <v>       0.01092399 </v>
   <v>       0.01092399 </v>
   <v>       0.01092399 </v>
  </varray>
 </kpoints>
 <parameters>
  <separator name="general" >
   <i type="string" name="SYSTEM">unknown system</i>
   <i type="logical" name="LCOMPAT"> F  </i>
  </separator>
  <separator name="electronic" >
   <i type="string" name="PREC">accura</i>
   <i name="ENMAX">    680.00000000</i>
   <i name="ENAUG">    628.94500000</i>
   <i name="EDIFF">      0.00001000</i>
   <i type="int" name="IALGO">    58</i>
   <i type="int" name="IWAVPR">    11</i>
   <i type="int" name="NBANDS">    32</i>
   <i type="int" name="NBANDSLOW">    -1</i>
   <i type="int" name="NBANDSHIGH">    -1</i>
   <i name="NELECT">     10.00000000</i>
   <i type="int" name="TURBO">     0</i>
   <i type="int" name="IRESTART">     0</i>
   <i type="int" name="NREBOOT">     0</i>
   <i type="int" name="NMIN">     0</i>
   <i name="EREF">      0.00000000</i>
   <separator name="electronic smearing" >
    <i type="int" name="ISMEAR">     2</i>
    <i name="SIGMA">      0.20000000</i>
    <i name="KSPACING">      0.22000000</i>
    <i type="logical" name="KGAMMA"> T  </i>
    <i type="logical" name="KBLOWUP"> T  </i>
   </separator>
   <separator name="electronic projectors" >
    <i type="logical" name="LREAL"> F  </i>
    <v name="ROPT">      0.00000000      0.00000000</v>
    <i type="int" name="LMAXPAW">  -100</i>
    <i type="int" name="LMAXMIX">     2</i>
    <i type="logical" name="NLSPLINE"> F  </i>
   </separator>
   <separator name="electronic startup" >
    <i type="int" name="ISTART">     0</i>
    <i type="int" name="ICHARG">     2</i>
    <i type="int" name="INIWAV">     1</i>
   </separator>
   <separator name="electronic spin" >
    <i type="int" name="ISPIN">     2</i>
    <i type="logical" name="LNONCOLLINEAR"> F  </i>
    <v name="MAGMOM">      0.00000000      0.00000000</v>
    <i name="NUPDOWN">     -1.00000000</i>
    <i type="logical" name="LSORBIT"> F  </i>
    <v name="SAXIS">      0.00000000      0.00000000      1.00000000</v>
    <i type="logical" name="LSPIRAL"> F  </i>
    <v name="QSPIRAL">      0.00000000      0.00000000      0.00000000</v>
    <i type="logical" name="LZEROZ"> F  </i>
   </separator>
   <separator name="electronic exchange-correlation" >
    <i type="logical" name="LASPH"> T  </i>
    <i type="logical" name="LMETAGGA"> F  </i>
   </separator>
   <separator name="electronic convergence" >
    <i type="int" name="NELM">   200</i>
    <i type="int" name="NELMDL">    -5</i>
    <i type="int" name="NELMIN">     2</i>
    <i name="ENINI">    680.00000000</i>
    <separator name="electronic convergence detail" >
     <i type="logical" name="LDIAG"> T  </i>
     <i type="logical" name="LSUBROT"> F  </i>
     <i name="WEIMIN">      0.00100000</i>
     <i name="EBREAK">      0.00000008</i>
     <i name="DEPER">      0.30000000</i>
     <i type="int" name="NRMM">     4</i>
     <i name="TIME">      0.40000000</i>
    </separator>
   </separator>
   <separator name="electronic mixer" >
    <i name="AMIX">      0.40000000</i>
    <i name="BMIX">      1.00000000</i>
    <i name="AMIN">      0.10000000</i>
    <i name="AMIX_MAG">      1.60000000</i>
    <i name="BMIX_MAG">      1.00000000</i>
    <separator name="electronic mixer details" >
     <i type="int" name="IMIX">     4</i>
     <i type="logical" name="MIXFIRST"> F  </i>
     <i type="int" name="MAXMIX">   -45</i>
     <i name="WC">    100.00000000</i>
     <i type="int" name="INIMIX">     1</i>
     <i type="int" name="MIXPRE">     1</i>
     <i type="int" name="MREMOVE">     5</i>
    </separator>
   </separator>
   <separator name="electronic dipolcorrection" >
    <i type="logical" name="LDIPOL"> F  </i>
    <i type="logical" name="LMONO"> F  </i>
    <i type="int" name="IDIPOL">     0</i>
    <i name="EPSILON">      1.00000000</i>
    <v name="DIPOL">   -100.00000000   -100.00000000   -100.00000000</v>
    <i name="EFIELD">      0.00000000</i>
   </separator>
  </separator>
  <separator name="grids" >
   <i type="int" name="NGX">    28</i>
   <i type="int" name="NGY">    28</i>
   <i type="int" name="NGZ">    28</i>
   <i type="int" name="NGXF">    56</i>
   <i type="int" name="NGYF">    56</i>
   <i type="int" name="NGZF">    56</i>
   <i type="logical" name="ADDGRID"> T  </i>
  </separator>
  <separator name="ionic" >
   <i type="int" name="NSW">    99</i>
   <i type="int" name="IBRION">     2</i>
   <i type="int" name="MDALGO">     0</i>
   <i type="int" name="ISIF">     3</i>
   <i name="PSTRESS">      0.00000000</i>
   <i name="EDIFFG">     -0.05000000</i>
   <i type="int" name="NFREE">     1</i>
   <i name="POTIM">      0.50000000</i>
   <i name="SMASS">     -3.00000000</i>
   <i name="SCALEE">      1.00000000</i>
  </separator>
  <separator name="ionic md" >
   <i name="TEBEG">      0.00010000</i>
   <i name="TEEND">      0.00010000</i>
   <i type="int" name="NBLOCK">     1</i>
   <i type="int" name="KBLOCK">    99</i>
   <i type="int" name="NPACO">   256</i>
   <i name="APACO">     16.00000000</i>
  </separator>
  <separator name="symmetry" >
   <i type="int" name="ISYM">     2</i>
   <i name="SYMPREC">      0.00001000</i>
  </separator>
  <separator name="dos" >
   <i type="int" name="LORBIT">    11</i>
   <v name="RWIGS">     -1.00000000     -1.00000000</v>
   <i type="int" name="NEDOS">   301</i>
   <i name="EMIN">     10.00000000</i>
   <i name="EMAX">    -10.00000000</i>
   <i name="EFERMI">      0.00000000</i>
  </separator>
  <separator name="writing" >
   <i type="int" name="NWRITE">     2</i>
   <i type="logical" name="LWAVE"> T  </i>
   <i type="logical" name="LDOWNSAMPLE"> F  </i>
   <i type="logical" name="LCHARG"> T  </i>
   <i type="logical" name="LPARD"> F  </i>
   <i type="logical" name="LVTOT"> T  </i>
   <i type="logical" name="LVHAR"> F  </i>
   <i type="logical" name="LELF"> T  </i>
   <i type="logical" name="LOPTICS"> F  </i>
   <v name="STM">      0.00000000      0.00000000      0.00000000      0.00000000      0.00000000      0.00000000      0.00000000</v>
  </separator>
  <separator name="performance" >
   <i type="int" name="NPAR">    32</i>
   <i type="int" name="NSIM">     4</i>
   <i type="int" name="NBLK">    -1</i>
   <i type="logical" name="LPLANE"> T  </i>
   <i type="logical" name="LSCALAPACK"> T  </i>
   <i type="logical" name="LSCAAWARE"> T  </i>
   <i type="logical" name="LSCALU"> F  </i>
   <i type="logical" name="LASYNC"> F  </i>
   <i type="logical" name="LORBITALREAL"> F  </i>
  </separator>
  <separator name="miscellaneous" >
   <i type="int" name="IDIOT">     3</i>
   <i type="int" name="PHON_NSTRUCT">    -1</i>
   <i type="logical" name="LMUSIC"> F  </i>
   <v name="POMASS">      7.01000000     18.99800000</v>
   <v name="DARWINR">      0.00000000      0.00000000</v>
   <v name="DARWINV">      1.00000000      1.00000000</v>
   <i type="logical" name="LCORR"> T  </i>
  </separator>
  <i type="logical" name="GGA_COMPAT"> T  </i>
  <i type="logical" name="LBERRY"> F  </i>
  <i type="int" name="ICORELEVEL">     0</i>
  <i type="logical" name="LDAU"> F  </i>
  <i type="int" name="I_CONSTRAINED_M">     0</i>
  <separator name="electronic exchange-correlation" >
   <i type="string" name="GGA">--</i>
   <i type="int" name="VOSKOWN">     0</i>
   <i type="logical" name="LHFCALC"> F  </i>
   <i type="string" name="PRECFOCK"></i>
   <i type="logical" name="LSYMGRAD"> F  </i>
   <i type="logical" name="LHFONE"> F  </i>
   <i type="logical" name="LRHFCALC"> F  </i>
   <i type="logical" name="LTHOMAS"> F  </i>
   <i type="logical" name="LMODELHF"> F  </i>
   <i type="logical" name="LFOCKACE"> F  </i>
   <i name="ENCUT4O">     -1.00000000</i>
   <i type="int" name="EXXOEP">     0</i>
   <i type="int" name="FOURORBIT">     0</i>
   <i name="AEXX">      0.00000000</i>
   <i name="HFALPHA">      0.00000000</i>
   <i name="MCALPHA">      0.00000000</i>
   <i name="ALDAX">      1.00000000</i>
   <i name="AGGAX">      1.00000000</i>
   <i name="ALDAC">      1.00000000</i>
   <i name="AGGAC">      1.00000000</i>
   <i type="int" name="NKREDX">     1</i>
   <i type="int" name="NKREDY">     1</i>
   <i type="int" name="NKREDZ">     1</i>
   <i type="logical" name="SHIFTRED"> F  </i>
   <i type="logical" name="ODDONLY"> F  </i>
   <i type="logical" name="EVENONLY"> F  </i>
   <i type="int" name="LMAXFOCK">     0</i>
   <i type="int" name="NMAXFOCKAE">     0</i>
   <i type="logical" name="LFOCKAEDFT"> F  </i>
   <i name="HFSCREEN">      0.00000000</i>
   <i name="HFSCREENC">      0.00000000</i>
   <i type="int" name="NBANDSGWLOW">     0</i>
  </separator>
  <separator name="vdW DFT" >
   <i type="logical" name="LUSE_VDW"> F  </i>
   <i name="Zab_VDW">     -0.84910000</i>
   <i name="PARAM1">      0.12340000</i>
   <i name="PARAM2">      1.00000000</i>
   <i name="PARAM3">      0.00000000</i>
  </separator>
  <separator name="model GW" >
   <i type="int" name="MODEL_GW">     0</i>
   <i name="MODEL_EPS0">      5.10664536</i>
   <i name="MODEL_ALPHA">      1.00000000</i>
  </separator>
  <separator name="linear response parameters" >
   <i type="logical" name="LEPSILON"> F  </i>
   <i type="logical" name="LRPA"> F  </i>
   <i type="logical" name="LNABLA"> F  </i>
   <i type="logical" name="LVEL"> F  </i>
   <i type="int" name="KINTER">     0</i>
   <i name="CSHIFT">      0.10000000</i>
   <i name="OMEGAMAX">     -1.00000000</i>
   <i name="DEG_THRESHOLD">      0.00200000</i>
   <i name="RTIME">     -0.10000000</i>
   <i name="WPLASMAI">      0.00000000</i>
   <v name="DFIELD">      0.00000000      0.00000000      0.00000000</v>
   <v name="WPLASMA">      0.00000000      0.00000000      0.00000000      0.00000000      0.00000000      0.00000000      0.00000000      0.00000000      0.00000000</v>
  </separator>
  <separator name="orbital magnetization" >
   <i type="logical" name="NUCIND"> F  </i>
   <v name="MAGPOS">      0.00000000      0.00000000      0.00000000</v>
   <i type="logical" name="LNICSALL"> T  </i>
   <i type="logical" name="ORBITALMAG"> F  </i>
   <i type="logical" name="LMAGBLOCH"> F  </i>
   <i type="logical" name="LCHIMAG"> F  </i>
   <i type="logical" name="LGAUGE"> T  </i>
   <i type="int" name="MAGATOM">     0</i>
   <v name="MAGDIPOL">      0.00000000      0.00000000      0.00000000</v>
   <v name="AVECCONST">      0.00000000      0.00000000      0.00000000</v>
  </separator>
  <separator name="response functions" >
   <i type="logical" name="LFINITE_TEMPERATURE"> F  </i>
   <i type="logical" name="LADDER"> F  </i>
   <i type="logical" name="LRPAFORCE"> F  </i>
   <i type="logical" name="LFXC"> F  </i>
   <i type="logical" name="LHARTREE"> T  </i>
   <i type="int" name="IBSE">     0</i>
   <v type="int" name="KPOINT">    -1     0     0     0</v>
   <i type="logical" name="LTCTC"> F  </i>
   <i type="logical" name="LTCTE"> F  </i>
   <i type="logical" name="LTETE"> F  </i>
   <i type="logical" name="LTRIPLET"> F  </i>
   <i type="logical" name="LFXCEPS"> F  </i>
   <i type="logical" name="LFXHEG"> F  </i>
   <i type="int" name="NATURALO">     2</i>
   <i type="logical" name="L2ORDER"> F  </i>
   <i type="logical" name="LDMP1"> F  </i>
   <i type="logical" name="LMP2LT"> F  </i>
   <i type="logical" name="LSMP2LT"> F  </i>
   <i type="logical" name="LUSEW"> F  </i>
   <i name="ENCUTGW">     -2.00000000</i>
   <i name="ENCUTGWSOFT">     -2.00000000</i>
   <i name="ENCUTLF">     -1.00000000</i>
   <i type="int" name="LMAXMP2">    -1</i>
   <i name="SCISSOR">      0.00000000</i>
   <i type="int" name="NOMEGA">     0</i>
   <i type="int" name="NOMEGAR">     0</i>
   <i type="int" name="NBANDSGW">    -1</i>
   <i type="int" name="NBANDSO">    -1</i>
   <i type="int" name="NBANDSV">    -1</i>
   <i type="int" name="NELM">   200</i>
   <i type="int" name="NELMHF">     1</i>
   <i type="int" name="DIM">     3</i>
   <i type="int" name="IESPILON">     4</i>
   <i type="int" name="ANTIRES">     0</i>
   <i name="OMEGAMAX">    -30.00000000</i>
   <i name="OMEGAMIN">    -30.00000000</i>
   <i name="OMEGATL">   -200.00000000</i>
   <i type="int" name="OMEGAGRID">   145</i>
   <i name="CSHIFT">     -0.10000000</i>
   <i type="logical" name="LSELFENERGY"> F  </i>
   <i type="logical" name="LSPECTRAL"> F  </i>
   <i type="logical" name="LSPECTRALGW"> F  </i>
   <i type="logical" name="LSINGLES"> F  </i>
   <i type="logical" name="LFERMIGW"> F  </i>
   <i type="logical" name="ODDONLYGW"> F  </i>
   <i type="logical" name="EVENONLYGW"> F  </i>
   <i type="int" name="NKREDLFX">     1</i>
   <i type="int" name="NKREDLFY">     1</i>
   <i type="int" name="NKREDLFZ">     1</i>
   <i type="int" name="MAXMEM">  2800</i>
   <i type="int" name="TELESCOPE">     0</i>
   <i type="int" name="NTAUPAR">     1</i>
   <i type="int" name="NOMEGAPAR">    -1</i>
   <i name="LAMBDA">      1.00000000</i>
  </separator>
  <separator name="External order field" >
   <i name="OFIELD_KAPPA">      0.00000000</i>
   <v name="OFIELD_K">      0.00000000      0.00000000      0.00000000</v>
   <i name="OFIELD_Q6_NEAR">      0.00000000</i>
   <i name="OFIELD_Q6_FAR">      0.00000000</i>
   <i name="OFIELD_A">      0.00000000</i>
  </separator>
 </parameters>
 <atominfo>
  <atoms>       2 </atoms>
  <types>       2 </types>
  <array name="atoms" >
   <dimension dim="1">ion</dimension>
   <field type="string">element</field>
   <field type="int">atomtype</field>
   <set>
    <rc><c>Li</c><c>   1</c></rc>
    <rc><c>F </c><c>   2</c></rc>
   </set>
  </array>
  <array name="atomtypes" >
   <dimension dim="1">type</dimension>
   <field type="int">atomspertype</field>
   <field type="string">element</field>
   <field>mass</field>
   <field>valence</field>
   <field type="string">pseudopotential</field>
   <set>
    <rc><c>   1</c><c>Li</c><c>      7.01000000</c><c>      3.00000000</c><c>  PAW_PBE Li_sv 10Sep2004               </c></rc>
    <rc><c>   1</c><c>F </c><c>     18.99800000</c><c>      7.00000000</c><c>  PAW_PBE F 08Apr2002                   </c></rc>
   </set>
  </array>
 </atominfo>
 <structure name="initialpos" >
  <crystal>
   <varray name="basis" >
    <v>       2.50057800       0.00000000       1.44371000 </v>
    <v>       0.83352600       2.35756800       1.44371000 </v>
    <v>       0.00000000       0.00000000       2.88741900 </v>
   </varray>
   <i name="volume">     17.02215120 </i>
   <varray name="rec_basis" >
    <v>       0.39990754      -0.14138864       0.00000000 </v>
    <v>       0.00000000       0.42416592       0.00000000 </v>
    <v>      -0.19995384      -0.14138869       0.34633006 </v>
   </varray>
  </crystal>
  <varray name="positions" >
   <v>       0.00000000       0.00000000       0.00000000 </v>
   <v>       0.50000000       0.50000000       0.50000000 </v>
  </varray>
 </structure>
 <calculation>
  <scstep>
   <time name="total">   22.37    6.02</time>
   <energy>
    <i name="alphaZ">     19.24756325 </i>
    <i name="ewald">   -549.57279523 </i>
    <i name="hartreedc">   -217.48181860 </i>
    <i name="XCdc">     49.79845604 </i>
    <i name="pawpsdc">    618.96943640 </i>
    <i name="pawaedc">   -639.47645653 </i>
    <i name="eentropy">      0.00010828 </i>
    <i name="bandstr">   -138.77160958 </i>
    <i name="atom">    862.41152047 </i>
    <i name="e_fr_energy">      5.12440451 </i>
    <i name="e_wo_entrp">      5.12429623 </i>
    <i name="e_0_energy">      5.12437744 </i>
   </energy>
  </scstep>
  <scstep>
   <time name="total">   31.67    7.92</time>
   <energy>
    <i name="e_fr_energy">    -10.14507561 </i>
    <i name="e_wo_entrp">    -10.14507561 </i>
    <i name="e_0_energy">    -10.14507561 </i>
   </energy>
  </scstep>
  <scstep>
   <time name="total">   20.42    5.11</time>
   <energy>
    <i name="e_fr_energy">    -10.15352432 </i>
    <i name="e_wo_entrp">    -10.15766596 </i>
    <i name="e_0_energy">    -10.15455973 </i>
   </energy>
  </scstep>
  <scstep>
   <time name="total">   43.08   10.77</time>
   <energy>
    <i name="e_fr_energy">    -10.15352710 </i>
    <i name="e_wo_entrp">    -10.15766875 </i>
    <i name="e_0_energy">    -10.15456251 </i>
   </energy>
  </scstep>
  <scstep>
   <time name="total">   21.40    5.35</time>
   <energy>
    <i name="e_fr_energy">    -10.15352710 </i>
    <i name="e_wo_entrp">    -10.15766875 </i>
    <i name="e_0_energy">    -10.15456251 </i>
   </energy>
  </scstep>
  <scstep>
   <time name="total">   28.03    7.88</time>
   <energy>
    <i name="e_fr_energy">     -8.76864062 </i>
    <i name="e_wo_entrp">     -8.76864062 </i>
    <i name="e_0_energy">     -8.76864062 </i>
   </energy>
  </scstep>
  <scstep>
   <time name="total">   25.45    7.23</time>
   <energy>
    <i name="e_fr_energy">     -9.60249362 </i>
    <i name="e_wo_entrp">     -9.60489277 </i>
    <i name="e_0_energy">     -9.60309341 </i>
   </energy>
  </scstep>
  <scstep>
   <time name="total">   16.25    4.93</time>
   <energy>
    <i name="e_fr_energy">     -9.64189699 </i>
    <i name="e_wo_entrp">     -9.64189699 </i>
    <i name="e_0_energy">     -9.64189699 </i>
   </energy>
  </scstep>
  <scstep>
   <time name="total">   24.28    6.94</time>
   <energy>
    <i name="e_fr_energy">     -9.64400532 </i>
    <i name="e_wo_entrp">     -9.64646739 </i>
    <i name="e_0_energy">     -9.64462084 </i>
   </energy>
  </scstep>
  <scstep>
   <time name="total">   24.27    6.93</time>
   <energy>
    <i name="e_fr_energy">     -9.64352482 </i>
    <i name="e_wo_entrp">     -9.64620272 </i>
    <i name="e_0_energy">     -9.64419430 </i>
   </energy>
  </scstep>
  <scstep>
   <time name="total">   24.29    6.94</time>
   <energy>
    <i name="e_fr_energy">     -9.64357113 </i>
    <i name="e_wo_entrp">     -9.64645506 </i>
    <i name="e_0_energy">     -9.64429211 </i>
   </energy>
  </scstep>
  <scstep>
   <time name="total">   32.25    8.93</time>
   <energy>
    <i name="alphaZ">     19.24756325 </i>
    <i name="ewald">   -549.57279523 </i>
    <i name="hartreedc">   -231.14203107 </i>
    <i name="XCdc">     50.65429555 </i>
    <i name="pawpsdc">    712.55240245 </i>
    <i name="pawaedc">   -733.68589744 </i>
    <i name="eentropy">      0.00297009 </i>
    <i name="bandstr">   -140.11152078 </i>
    <i name="atom">    862.41152047 </i>
    <i name="e_fr_energy">     -9.64357887 </i>
    <i name="e_wo_entrp">     -9.64654896 </i>
    <i name="e_0_energy">     -9.64432140 </i>
   </energy>
  </scstep>
  <structure>
   <crystal>
    <varray name="basis" >
     <v>       2.50057800       0.00000000       1.44371000 </v>
     <v>       0.83352600       2.35756800       1.44371000 </v>
     <v>       0.00000000       0.00000000       2.88741900 </v>
    </varray>
    <i name="volume">     17.02215120 </i>
    <varray name="rec_basis" >
     <v>       0.39990754      -0.14138864       0.00000000 </v>
     <v>       0.00000000       0.42416592       0.00000000 </v>
     <v>      -0.19995384      -0.14138869       0.34633006 </v>
    </varray>
   </crystal>
   <varray name="positions" >
    <v>       0.00000000       0.00000000       0.00000000 </v>
    <v>       0.50000000       0.50000000       0.50000000 </v>
   </varray>
  </structure>
  <varray name="forces" >
   <v>      -0.00000000      -0.00000000      -0.00000000 </v>
   <v>       0.00000000       0.00000000       0.00000000 </v>
  </varray>
  <varray name="stress" >
   <v>     -16.47473212       0.00000000      -0.00000329 </v>
   <v>      -0.00000000     -16.47473844      -0.00000233 </v>
   <v>      -0.00000329      -0.00000233     -16.47473482 </v>
  </varray>
  <energy>
   <i name="e_fr_energy">     -9.64357887 </i>
   <i name="e_wo_entrp">     -9.64432140 </i>
   <i name="e_0_energy">      0.00297009 </i>
  </energy>
  <time name="totalsc">  324.80   90.12</time>
 </calculation>
 <calculation>
  <scstep>
   <time name="total">   26.15    7.45</time>
   <energy>
    <i name="alphaZ">     19.49342904 </i>
    <i name="ewald">   -551.90295780 </i>
    <i name="hartreedc">   -232.47299795 </i>
    <i name="XCdc">     50.86728488 </i>
    <i name="pawpsdc">    711.92454944 </i>
    <i name="pawaedc">   -733.23980381 </i>
    <i name="eentropy">      0.00289843 </i>
    <i name="bandstr">   -136.71154126 </i>
    <i name="atom">    862.41152047 </i>
    <i name="e_fr_energy">     -9.62754690 </i>
    <i name="e_wo_entrp">     -9.63044534 </i>
    <i name="e_0_energy">     -9.62827151 </i>
   </energy>
  </scstep>
  <scstep>
   <time name="total">   24.59    7.01</time>
   <energy>
    <i name="e_fr_energy">     -9.64434637 </i>
    <i name="e_wo_entrp">     -9.64434637 </i>
    <i name="e_0_energy">     -9.64434637 </i>
   </energy>
  </scstep>
  <scstep>
   <time name="total">   25.10    7.18</time>
   <energy>
    <i name="e_fr_energy">     -9.64618139 </i>
    <i name="e_wo_entrp">     -9.64618139 </i>
    <i name="e_0_energy">     -9.64618139 </i>
   </energy>
  </scstep>
  <scstep>
   <time name="total">   27.73    7.80</time>
   <energy>
    <i name="e_fr_energy">     -9.64633403 </i>
    <i name="e_wo_entrp">     -9.64633403 </i>
    <i name="e_0_energy">     -9.64633403 </i>
   </energy>
  </scstep>
  <scstep>
   <time name="total">   34.08    9.68</time>
   <energy>
    <i name="alphaZ">     19.49342904 </i>
    <i name="ewald">   -551.90295780 </i>
    <i name="hartreedc">   -229.73956823 </i>
    <i name="XCdc">     50.68249423 </i>
    <i name="pawpsdc">    713.68297940 </i>
    <i name="pawaedc">   -734.80912676 </i>
    <i name="eentropy">      0.00298689 </i>
    <i name="bandstr">   -139.46511264 </i>
    <i name="atom">    862.41152047 </i>
    <i name="e_fr_energy">     -9.64634230 </i>
    <i name="e_wo_entrp">     -9.64932919 </i>
    <i name="e_0_energy">     -9.64708902 </i>
   </energy>
  </scstep>
  <structure>
   <crystal>
    <varray name="basis" >
     <v>       2.49002043      -0.00000000       1.43761458 </v>
     <v>       0.83000681       2.34761422       1.43761458 </v>
     <v>      -0.00000000      -0.00000000       2.87522817 </v>
    </varray>
    <i name="volume">     16.80745504 </i>
    <varray name="rec_basis" >
     <v>       0.40160313      -0.14198812       0.00000000 </v>
     <v>      -0.00000000       0.42596436       0.00000000 </v>
     <v>      -0.20080163      -0.14198817       0.34779848 </v>
    </varray>
   </crystal>
   <varray name="positions" >
    <v>      -0.00000000      -0.00000000       0.00000000 </v>
    <v>       0.50000000       0.50000000       0.50000000 </v>
   </varray>
  </structure>
  <varray name="forces" >
   <v>       0.00000000       0.00000000       0.00000000 </v>
   <v>      -0.00000000      -0.00000000      -0.00000000 </v>
  </varray>
  <varray name="stress" >
   <v>      -8.96017496      -0.00000000      -0.00000178 </v>
   <v>       0.00000000      -8.96017837      -0.00000126 </v>
   <v>      -0.00000178      -0.00000126      -8.96017642 </v>
  </varray>
  <energy>
   <i name="e_fr_energy">     -9.64634230 </i>
   <i name="e_wo_entrp">     -9.64708902 </i>
   <i name="e_0_energy">      0.00298689 </i>
  </energy>
  <time name="totalsc">  145.05   43.03</time>
  <eigenvalues>
   <array>
    <dimension dim="1">band</dimension>
    <dimension dim="2">kpoint</dimension>
    <dimension dim="3">spin</dimension>
    <field>eigene</field>
    <field>occ</field>
    <set>
     <set comment="spin 1">
      <set comment="kpoint 1">
       <r>  -42.1699    1.0000 </r>
       <r>  -21.0915    1.0000 </r>
       <r>   -1.1955    0.7126 </r>
       <r>   -1.1955    0.7126 </r>
       <r>   -1.1955    0.7126 </r>
       <r>    7.6386    0.0000 </r>
       <r>   22.4033    0.0000 </r>
       <r>   22.4033    0.0000 </r>
       <r>   22.4033    0.0000 </r>
       <r>   22.8550    0.0000 </r>
       <r>   22.8550    0.0000 </r>
       <r>   22.8550    0.0000 </r>
       <r>   25.7857    0.0000 </r>
       <r>   29.8812    0.0000 </r>
       <r>   29.8812    0.0000 </r>
       <r>   42.9208    0.0000 </r>
       <r>   42.9208    0.0000 </r>
       <r>   42.9209    0.0000 </r>
       <r>   45.2105    0.0000 </r>
       <r>   62.7315    0.0000 </r>
       <r>   62.7315    0.0000 </r>
       <r>   62.7315    0.0000 </r>
       <r>   63.8002    0.0000 </r>
       <r>   66.2983    0.0000 </r>
       <r>   66.2983    0.0000 </r>
       <r>   66.9988    0.0000 </r>
       <r>   66.9988    0.0000 </r>
       <r>   66.9988    0.0000 </r>
       <r>   67.0716    0.0000 </r>
       <r>   67.0716    0.0000 </r>
       <r>   67.0716    0.0000 </r>
       <r>   82.3351    0.0000 </r>
      </set>
      <set comment="kpoint 2">
       <r>  -42.1669    1.0000 </r>
       <r>  -21.0691    1.0000 </r>
       <r>   -1.3647    1.0489 </r>
       <r>   -1.2084    0.7725 </r>
       <r>   -1.2084    0.7725 </r>
       <r>    7.8180    0.0000 </r>
       <r>   20.4780    0.0000 </r>
       <r>   21.5399    0.0000 </r>
       <r>   21.5399    0.0000 </r>
       <r>   23.5906    0.0000 </r>
       <r>   23.5906    0.0000 </r>
       <r>   23.6835    0.0000 </r>
       <r>   27.5270    0.0000 </r>
       <r>   30.3843    0.0000 </r>
       <r>   30.3843    0.0000 </r>
       <r>   42.0771    0.0000 </r>
       <r>   43.0237    0.0000 </r>
       <r>   43.0237    0.0000 </r>
       <r>   45.5043    0.0000 </r>
       <r>   60.3614    0.0000 </r>
       <r>   60.3615    0.0000 </r>
       <r>   62.0555    0.0000 </r>
       <r>   63.9625    0.0000 </r>
       <r>   64.9556    0.0000 </r>
       <r>   64.9556    0.0000 </r>
       <r>   66.7439    0.0000 </r>
       <r>   66.7439    0.0000 </r>
       <r>   67.2312    0.0000 </r>
       <r>   68.1685    0.0000 </r>
       <r>   71.2799    0.0000 </r>
       <r>   71.2799    0.0000 </r>
       <r>   81.9054    0.0000 </r>
      </set>
      <set comment="kpoint 3">
       <r>  -42.1587    1.0000 </r>
       <r>  -21.0067    1.0000 </r>
       <r>   -1.8066    0.9999 </r>
       <r>   -1.2446    0.9108 </r>
       <r>   -1.2446    0.9108 </r>
       <r>    8.2700    0.0000 </r>
       <r>   18.3979    0.0000 </r>
       <r>   20.4062    0.0000 </r>
       <r>   20.4062    0.0000 </r>
       <r>   24.3236    0.0000 </r>
       <r>   24.5388    0.0000 </r>
       <r>   24.5388    0.0000 </r>
       <r>   30.8717    0.0000 </r>
       <r>   31.6329    0.0000 </r>
       <r>   31.6329    0.0000 </r>
       <r>   40.3033    0.0000 </r>
       <r>   43.3334    0.0000 </r>
       <r>   43.3334    0.0000 </r>
       <r>   45.8065    0.0000 </r>
       <r>   56.3916    0.0000 </r>
       <r>   56.3916    0.0000 </r>
       <r>   60.9676    0.0000 </r>
       <r>   64.2846    0.0000 </r>
       <r>   65.1992    0.0000 </r>
       <r>   65.1992    0.0000 </r>
       <r>   66.0054    0.0000 </r>
       <r>   66.0054    0.0000 </r>
       <r>   67.7095    0.0000 </r>
       <r>   70.5823    0.0000 </r>
       <r>   76.2888    0.0000 </r>
       <r>   76.2892    0.0000 </r>
       <r>   80.0420    0.0000 </r>
      </set>
      <set comment="kpoint 4">
       <r>  -42.1471    1.0000 </r>
       <r>  -20.9163    1.0000 </r>
       <r>   -2.3769    1.0000 </r>
       <r>   -1.2944    1.0216 </r>
       <r>   -1.2944    1.0216 </r>
       <r>    8.8006    0.0000 </r>
       <r>   16.8014    0.0000 </r>
       <r>   19.3356    0.0000 </r>
       <r>   19.3356    0.0000 </r>
       <r>   25.1684    0.0000 </r>
       <r>   25.6661    0.0000 </r>
       <r>   25.6661    0.0000 </r>
       <r>   33.1273    0.0000 </r>
       <r>   33.1274    0.0000 </r>
       <r>   34.5304    0.0000 </r>
       <r>   38.4606    0.0000 </r>
       <r>   43.8207    0.0000 </r>
       <r>   43.8207    0.0000 </r>
       <r>   45.8370    0.0000 </r>
       <r>   52.8573    0.0000 </r>
       <r>   52.8573    0.0000 </r>
       <r>   60.1226    0.0000 </r>
       <r>   64.3355    0.0000 </r>
       <r>   64.8030    0.0000 </r>
       <r>   64.8030    0.0000 </r>
       <r>   65.9367    0.0000 </r>
       <r>   65.9367    0.0000 </r>
       <r>   68.5044    0.0000 </r>
       <r>   72.8498    0.0000 </r>
       <r>   75.7518    0.0000 </r>
       <r>   75.7518    0.0000 </r>
       <r>   78.2984    0.0000 </r>
      </set>
      <set comment="kpoint 5">
       <r>  -42.1349    1.0000 </r>
       <r>  -20.8174    1.0000 </r>
       <r>   -2.9324    1.0000 </r>
       <r>   -1.3459    1.0516 </r>
       <r>   -1.3458    1.0516 </r>
       <r>    9.2071    0.0000 </r>
       <r>   15.7979    0.0000 </r>
       <r>   18.4553    0.0000 </r>
       <r>   18.4553    0.0000 </r>
       <r>   26.2260    0.0000 </r>
       <r>   26.9670    0.0000 </r>
       <r>   26.9671    0.0000 </r>
       <r>   34.3991    0.0000 </r>
       <r>   34.3991    0.0000 </r>
       <r>   35.2284    0.0000 </r>
       <r>   39.9458    0.0000 </r>
       <r>   44.2353    0.0000 </r>
       <r>   44.2353    0.0000 </r>
       <r>   45.6457    0.0000 </r>
       <r>   50.4290    0.0000 </r>
       <r>   50.4290    0.0000 </r>
       <r>   59.4911    0.0000 </r>
       <r>   63.1962    0.0000 </r>
       <r>   63.1962    0.0000 </r>
       <r>   63.6450    0.0000 </r>
       <r>   66.9398    0.0000 </r>
       <r>   66.9398    0.0000 </r>
       <r>   69.6102    0.0000 </r>
       <r>   72.1124    0.0000 </r>
       <r>   72.3912    0.0000 </r>
       <r>   72.3912    0.0000 </r>
       <r>   74.1271    0.0000 </r>
      </set>
      <set comment="kpoint 6">
       <r>  -42.1247    1.0000 </r>
       <r>  -20.7327    1.0000 </r>
       <r>   -3.3647    1.0000 </r>
       <r>   -1.3874    1.0407 </r>
       <r>   -1.3874    1.0407 </r>
       <r>    9.3941    0.0000 </r>
       <r>   15.3395    0.0000 </r>
       <r>   17.8371    0.0000 </r>
       <r>   17.8371    0.0000 </r>
       <r>   27.4085    0.0000 </r>
       <r>   28.2765    0.0000 </r>
       <r>   28.2765    0.0000 </r>
       <r>   33.4650    0.0000 </r>
       <r>   35.1052    0.0000 </r>
       <r>   35.1052    0.0000 </r>
       <r>   43.9805    0.0000 </r>
       <r>   43.9806    0.0000 </r>
       <r>   44.3686    0.0000 </r>
       <r>   45.3740    0.0000 </r>
       <r>   49.9062    0.0000 </r>
       <r>   49.9062    0.0000 </r>
       <r>   58.0684    0.0000 </r>
       <r>   61.1847    0.0000 </r>
       <r>   61.1847    0.0000 </r>
       <r>   62.5011    0.0000 </r>
       <r>   68.1520    0.0000 </r>
       <r>   68.1520    0.0000 </r>
       <r>   68.5712    0.0000 </r>
       <r>   70.0321    0.0000 </r>
       <r>   70.0321    0.0000 </r>
       <r>   71.0055    0.0000 </r>
       <r>   73.1513    0.0000 </r>
      </set>
      <set comment="kpoint 7">
       <r>  -42.1190    1.0000 </r>
       <r>  -20.6839    1.0000 </r>
       <r>   -3.5998    1.0000 </r>
       <r>   -1.4106    1.0309 </r>
       <r>   -1.4106    1.0309 </r>
       <r>    9.4317    0.0000 </r>
       <r>   15.2123    0.0000 </r>
       <r>   17.5196    0.0000 </r>
       <r>   17.5196    0.0000 </r>
       <r>   28.4522    0.0000 </r>
       <r>   29.1995    0.0000 </r>
       <r>   29.1995    0.0000 </r>
       <r>   32.0362    0.0000 </r>
       <r>   35.2538    0.0000 </r>
       <r>   35.2538    0.0000 </r>
       <r>   43.4306    0.0000 </r>
       <r>   43.4306    0.0000 </r>
       <r>   45.1629    0.0000 </r>
       <r>   48.9784    0.0000 </r>
       <r>   50.6114    0.0000 </r>
       <r>   50.6114    0.0000 </r>
       <r>   54.6309    0.0000 </r>
       <r>   59.4663    0.0000 </r>
       <r>   59.4663    0.0000 </r>
       <r>   62.2946    0.0000 </r>
       <r>   66.5945    0.0000 </r>
       <r>   68.7070    0.0000 </r>
       <r>   68.7070    0.0000 </r>
       <r>   69.5394    0.0000 </r>
       <r>   69.5394    0.0000 </r>
       <r>   72.5446    0.0000 </r>
       <r>   72.7210    0.0000 </r>
      </set>
      <set comment="kpoint 8">
       <r>  -42.1659    1.0000 </r>
       <r>  -21.0614    1.0000 </r>
       <r>   -1.3477    1.0516 </r>
       <r>   -1.2520    0.9334 </r>
       <r>   -1.2520    0.9334 </r>
       <r>    7.8845    0.0000 </r>
       <r>   21.0139    0.0000 </r>
       <r>   21.0139    0.0000 </r>
       <r>   21.3772    0.0000 </r>
       <r>   21.5502    0.0000 </r>
       <r>   24.7651    0.0000 </r>
       <r>   24.7651    0.0000 </r>
       <r>   27.6927    0.0000 </r>
       <r>   30.0862    0.0000 </r>
       <r>   30.8942    0.0000 </r>
       <r>   42.3155    0.0000 </r>
       <r>   42.7931    0.0000 </r>
       <r>   42.7931    0.0000 </r>
       <r>   45.6251    0.0000 </r>
       <r>   60.2606    0.0000 </r>
       <r>   60.2606    0.0000 </r>
       <r>   61.3623    0.0000 </r>
       <r>   62.9171    0.0000 </r>
       <r>   64.0068    0.0000 </r>
       <r>   64.9080    0.0000 </r>
       <r>   66.9905    0.0000 </r>
       <r>   66.9905    0.0000 </r>
       <r>   68.2197    0.0000 </r>
       <r>   70.1180    0.0000 </r>
       <r>   70.1180    0.0000 </r>
       <r>   72.4118    0.0000 </r>
       <r>   81.9487    0.0000 </r>
      </set>
      <set comment="kpoint 9">
       <r>  -42.1595    1.0000 </r>
       <r>  -21.0115    1.0000 </r>
       <r>   -1.6850    0.9987 </r>
       <r>   -1.3149    1.0420 </r>
       <r>   -1.2716    0.9825 </r>
       <r>    8.2665    0.0000 </r>
       <r>   18.9807    0.0000 </r>
       <r>   20.2749    0.0000 </r>
       <r>   20.5639    0.0000 </r>
       <r>   21.9847    0.0000 </r>
       <r>   25.6414    0.0000 </r>
       <r>   25.8403    0.0000 </r>
       <r>   30.1899    0.0000 </r>
       <r>   30.8264    0.0000 </r>
       <r>   31.9372    0.0000 </r>
       <r>   40.9672    0.0000 </r>
       <r>   42.7427    0.0000 </r>
       <r>   43.2611    0.0000 </r>
       <r>   45.9316    0.0000 </r>
       <r>   56.5301    0.0000 </r>
       <r>   57.8456    0.0000 </r>
       <r>   61.1576    0.0000 </r>
       <r>   61.8709    0.0000 </r>
       <r>   63.9957    0.0000 </r>
       <r>   64.3319    0.0000 </r>
       <r>   66.7691    0.0000 </r>
       <r>   67.6458    0.0000 </r>
       <r>   69.1954    0.0000 </r>
       <r>   71.1970    0.0000 </r>
       <r>   74.0208    0.0000 </r>
       <r>   76.7370    0.0000 </r>
       <r>   80.1320    0.0000 </r>
      </set>
      <set comment="kpoint 10">
       <r>  -42.1491    1.0000 </r>
       <r>  -20.9291    1.0000 </r>
       <r>   -2.2108    1.0000 </r>
       <r>   -1.3821    1.0429 </r>
       <r>   -1.3109    1.0390 </r>
       <r>    8.8042    0.0000 </r>
       <r>   17.2001    0.0000 </r>
       <r>   19.4578    0.0000 </r>
       <r>   19.5001    0.0000 </r>
       <r>   22.9826    0.0000 </r>
       <r>   26.4569    0.0000 </r>
       <r>   26.8039    0.0000 </r>
       <r>   32.3525    0.0000 </r>
       <r>   33.0443    0.0000 </r>
       <r>   33.7482    0.0000 </r>
       <r>   39.1140    0.0000 </r>
       <r>   42.7798    0.0000 </r>
       <r>   44.1327    0.0000 </r>
       <r>   46.1381    0.0000 </r>
       <r>   52.9012    0.0000 </r>
       <r>   54.6171    0.0000 </r>
       <r>   60.3907    0.0000 </r>
       <r>   61.6497    0.0000 </r>
       <r>   63.4675    0.0000 </r>
       <r>   64.6211    0.0000 </r>
       <r>   66.2302    0.0000 </r>
       <r>   67.4859    0.0000 </r>
       <r>   71.6227    0.0000 </r>
       <r>   71.8941    0.0000 </r>
       <r>   75.4670    0.0000 </r>
       <r>   76.4962    0.0000 </r>
       <r>   79.5254    0.0000 </r>
      </set>
      <set comment="kpoint 11">
       <r>  -42.1371    1.0000 </r>
       <r>  -20.8314    1.0000 </r>
       <r>   -2.7649    1.0000 </r>
       <r>   -1.4374    1.0184 </r>
       <r>   -1.3781    1.0445 </r>
       <r>    9.2937    0.0000 </r>
       <r>   15.9762    0.0000 </r>
       <r>   18.5946    0.0000 </r>
       <r>   18.6801    0.0000 </r>
       <r>   24.2022    0.0000 </r>
       <r>   27.4773    0.0000 </r>
       <r>   27.8415    0.0000 </r>
       <r>   33.8762    0.0000 </r>
       <r>   34.0384    0.0000 </r>
       <r>   36.1284    0.0000 </r>
       <r>   38.9425    0.0000 </r>
       <r>   42.7310    0.0000 </r>
       <r>   44.8465    0.0000 </r>
       <r>   46.5662    0.0000 </r>
       <r>   50.3615    0.0000 </r>
       <r>   51.5991    0.0000 </r>
       <r>   59.3276    0.0000 </r>
       <r>   62.1210    0.0000 </r>
       <r>   62.3348    0.0000 </r>
       <r>   64.5840    0.0000 </r>
       <r>   65.6078    0.0000 </r>
       <r>   67.3884    0.0000 </r>
       <r>   70.9944    0.0000 </r>
       <r>   72.5987    0.0000 </r>
       <r>   72.9593    0.0000 </r>
       <r>   74.3907    0.0000 </r>
       <r>   74.9802    0.0000 </r>
      </set>
      <set comment="kpoint 12">
       <r>  -42.1263    1.0000 </r>
       <r>  -20.7403    1.0000 </r>
       <r>   -3.2306    1.0000 </r>
       <r>   -1.4688    1.0067 </r>
       <r>   -1.4568    1.0107 </r>
       <r>    9.5829    0.0000 </r>
       <r>   15.3216    0.0000 </r>
       <r>   17.9457    0.0000 </r>
       <r>   18.0526    0.0000 </r>
       <r>   25.5751    0.0000 </r>
       <r>   28.5701    0.0000 </r>
       <r>   28.8813    0.0000 </r>
       <r>   33.7288    0.0000 </r>
       <r>   35.2260    0.0000 </r>
       <r>   35.4701    0.0000 </r>
       <r>   42.5121    0.0000 </r>
       <r>   42.9397    0.0000 </r>
       <r>   44.6606    0.0000 </r>
       <r>   47.0752    0.0000 </r>
       <r>   49.4799    0.0000 </r>
       <r>   50.1007    0.0000 </r>
       <r>   58.3526    0.0000 </r>
       <r>   60.2754    0.0000 </r>
       <r>   61.8614    0.0000 </r>
       <r>   63.5311    0.0000 </r>
       <r>   65.4977    0.0000 </r>
       <r>   66.9444    0.0000 </r>
       <r>   69.2593    0.0000 </r>
       <r>   69.5364    0.0000 </r>
       <r>   71.2948    0.0000 </r>
       <r>   73.5537    0.0000 </r>
       <r>   73.7290    0.0000 </r>
      </set>
      <set comment="kpoint 13">
       <r>  -42.1192    1.0000 </r>
       <r>  -20.6784    1.0000 </r>
       <r>   -3.5254    1.0000 </r>
       <r>   -1.5288    0.9960 </r>
       <r>   -1.4700    1.0063 </r>
       <r>    9.6748    0.0000 </r>
       <r>   15.0830    0.0000 </r>
       <r>   17.5892    0.0000 </r>
       <r>   17.6545    0.0000 </r>
       <r>   26.9899    0.0000 </r>
       <r>   29.2128    0.0000 </r>
       <r>   29.5593    0.0000 </r>
       <r>   32.9374    0.0000 </r>
       <r>   35.4122    0.0000 </r>
       <r>   35.4868    0.0000 </r>
       <r>   42.6960    0.0000 </r>
       <r>   43.4830    0.0000 </r>
       <r>   46.4688    0.0000 </r>
       <r>   47.7284    0.0000 </r>
       <r>   50.0611    0.0000 </r>
       <r>   50.8301    0.0000 </r>
       <r>   55.9887    0.0000 </r>
       <r>   58.5641    0.0000 </r>
       <r>   60.4126    0.0000 </r>
       <r>   61.6706    0.0000 </r>
       <r>   66.2625    0.0000 </r>
       <r>   66.7416    0.0000 </r>
       <r>   67.4599    0.0000 </r>
       <r>   68.4642    0.0000 </r>
       <r>   70.1346    0.0000 </r>
       <r>   72.1672    0.0000 </r>
       <r>   72.8791    0.0000 </r>
      </set>
      <set comment="kpoint 14">
       <r>  -42.1172    1.0000 </r>
       <r>  -20.6619    1.0000 </r>
       <r>   -3.6002    1.0000 </r>
       <r>   -1.5772    0.9953 </r>
       <r>   -1.4409    1.0169 </r>
       <r>    9.6820    0.0000 </r>
       <r>   15.0353    0.0000 </r>
       <r>   17.5237    0.0000 </r>
       <r>   17.5349    0.0000 </r>
       <r>   28.2375    0.0000 </r>
       <r>   28.7098    0.0000 </r>
       <r>   29.3487    0.0000 </r>
       <r>   32.9414    0.0000 </r>
       <r>   35.3100    0.0000 </r>
       <r>   35.5908    0.0000 </r>
       <r>   42.3913    0.0000 </r>
       <r>   43.6967    0.0000 </r>
       <r>   46.0925    0.0000 </r>
       <r>   50.2071    0.0000 </r>
       <r>   50.8425    0.0000 </r>
       <r>   50.8607    0.0000 </r>
       <r>   53.7218    0.0000 </r>
       <r>   58.8628    0.0000 </r>
       <r>   59.0955    0.0000 </r>
       <r>   61.1761    0.0000 </r>
       <r>   66.3294    0.0000 </r>
       <r>   67.0437    0.0000 </r>
       <r>   67.3387    0.0000 </r>
       <r>   67.9701    0.0000 </r>
       <r>   69.9806    0.0000 </r>
       <r>   71.3555    0.0000 </r>
       <r>   72.6138    0.0000 </r>
      </set>
      <set comment="kpoint 15">
       <r>  -42.1210    1.0000 </r>
       <r>  -20.6954    1.0000 </r>
       <r>   -3.4433    1.0000 </r>
       <r>   -1.5912    0.9956 </r>
       <r>   -1.3883    1.0403 </r>
       <r>    9.6498    0.0000 </r>
       <r>   15.1033    0.0000 </r>
       <r>   17.7208    0.0000 </r>
       <r>   17.7266    0.0000 </r>
       <r>   27.5410    0.0000 </r>
       <r>   28.2266    0.0000 </r>
       <r>   28.8931    0.0000 </r>
       <r>   33.4657    0.0000 </r>
       <r>   35.1564    0.0000 </r>
       <r>   35.8185    0.0000 </r>
       <r>   41.9989    0.0000 </r>
       <r>   45.2342    0.0000 </r>
       <r>   45.9446    0.0000 </r>
       <r>   46.1969    0.0000 </r>
       <r>   49.6203    0.0000 </r>
       <r>   50.5083    0.0000 </r>
       <r>   57.0564    0.0000 </r>
       <r>   59.5131    0.0000 </r>
       <r>   60.1478    0.0000 </r>
       <r>   62.6943    0.0000 </r>
       <r>   65.4592    0.0000 </r>
       <r>   67.0858    0.0000 </r>
       <r>   68.5264    0.0000 </r>
       <r>   69.2730    0.0000 </r>
       <r>   69.4305    0.0000 </r>
       <r>   72.0549    0.0000 </r>
       <r>   73.0872    0.0000 </r>
      </set>
      <set comment="kpoint 16">
       <r>  -42.1296    1.0000 </r>
       <r>  -20.7697    1.0000 </r>
       <r>   -3.0812    1.0000 </r>
       <r>   -1.5663    0.9951 </r>
       <r>   -1.3234    1.0468 </r>
       <r>    9.4952    0.0000 </r>
       <r>   15.4347    0.0000 </r>
       <r>   18.1664    0.0000 </r>
       <r>   18.2209    0.0000 </r>
       <r>   26.3254    0.0000 </r>
       <r>   26.7362    0.0000 </r>
       <r>   28.5591    0.0000 </r>
       <r>   34.2604    0.0000 </r>
       <r>   34.7547    0.0000 </r>
       <r>   35.7184    0.0000 </r>
       <r>   41.3117    0.0000 </r>
       <r>   42.6818    0.0000 </r>
       <r>   45.8984    0.0000 </r>
       <r>   46.1681    0.0000 </r>
       <r>   49.2699    0.0000 </r>
       <r>   50.4824    0.0000 </r>
       <r>   58.8004    0.0000 </r>
       <r>   60.9529    0.0000 </r>
       <r>   62.0696    0.0000 </r>
       <r>   64.4451    0.0000 </r>
       <r>   64.7450    0.0000 </r>
       <r>   68.2303    0.0000 </r>
       <r>   69.3339    0.0000 </r>
       <r>   70.4776    0.0000 </r>
       <r>   72.1552    0.0000 </r>
       <r>   73.1916    0.0000 </r>
       <r>   74.0087    0.0000 </r>
      </set>
      <set comment="kpoint 17">
       <r>  -42.1411    1.0000 </r>
       <r>  -20.8657    1.0000 </r>
       <r>   -2.5769    1.0000 </r>
       <r>   -1.5065    0.9983 </r>
       <r>   -1.2606    0.9568 </r>
       <r>    9.1254    0.0000 </r>
       <r>   16.2460    0.0000 </r>
       <r>   18.7879    0.0000 </r>
       <r>   19.0232    0.0000 </r>
       <r>   25.2352    0.0000 </r>
       <r>   25.2869    0.0000 </r>
       <r>   27.6859    0.0000 </r>
       <r>   33.5024    0.0000 </r>
       <r>   33.9105    0.0000 </r>
       <r>   35.8867    0.0000 </r>
       <r>   38.2339    0.0000 </r>
       <r>   42.7449    0.0000 </r>
       <r>   45.3681    0.0000 </r>
       <r>   45.9232    0.0000 </r>
       <r>   50.6905    0.0000 </r>
       <r>   52.8178    0.0000 </r>
       <r>   59.6204    0.0000 </r>
       <r>   61.7944    0.0000 </r>
       <r>   63.4882    0.0000 </r>
       <r>   64.7221    0.0000 </r>
       <r>   64.7330    0.0000 </r>
       <r>   68.1033    0.0000 </r>
       <r>   72.1234    0.0000 </r>
       <r>   72.2139    0.0000 </r>
       <r>   73.9724    0.0000 </r>
       <r>   75.0756    0.0000 </r>
       <r>   76.5471    0.0000 </r>
      </set>
      <set comment="kpoint 18">
       <r>  -42.1529    1.0000 </r>
       <r>  -20.9604    1.0000 </r>
       <r>   -2.0296    1.0000 </r>
       <r>   -1.4203    1.0262 </r>
       <r>   -1.2140    0.7966 </r>
       <r>    8.5975    0.0000 </r>
       <r>   17.6059    0.0000 </r>
       <r>   19.5088    0.0000 </r>
       <r>   20.0791    0.0000 </r>
       <r>   24.0758    0.0000 </r>
       <r>   24.3723    0.0000 </r>
       <r>   26.6784    0.0000 </r>
       <r>   31.9939    0.0000 </r>
       <r>   32.6216    0.0000 </r>
       <r>   32.7053    0.0000 </r>
       <r>   39.5109    0.0000 </r>
       <r>   42.6625    0.0000 </r>
       <r>   44.2906    0.0000 </r>
       <r>   45.9208    0.0000 </r>
       <r>   53.5558    0.0000 </r>
       <r>   56.2398    0.0000 </r>
       <r>   60.5405    0.0000 </r>
       <r>   61.8561    0.0000 </r>
       <r>   63.9399    0.0000 </r>
       <r>   64.4851    0.0000 </r>
       <r>   65.4702    0.0000 </r>
       <r>   68.1253    0.0000 </r>
       <r>   71.0915    0.0000 </r>
       <r>   71.6694    0.0000 </r>
       <r>   76.0446    0.0000 </r>
       <r>   78.0800    0.0000 </r>
       <r>   78.6175    0.0000 </r>
      </set>
      <set comment="kpoint 19">
       <r>  -42.1622    1.0000 </r>
       <r>  -21.0332    1.0000 </r>
       <r>   -1.5798    0.9953 </r>
       <r>   -1.3131    1.0407 </r>
       <r>   -1.1949    0.7099 </r>
       <r>    8.0951    0.0000 </r>
       <r>   19.3197    0.0000 </r>
       <r>   20.3115    0.0000 </r>
       <r>   21.1985    0.0000 </r>
       <r>   23.2824    0.0000 </r>
       <r>   23.7878    0.0000 </r>
       <r>   25.4795    0.0000 </r>
       <r>   29.4100    0.0000 </r>
       <r>   30.7750    0.0000 </r>
       <r>   31.4053    0.0000 </r>
       <r>   41.1937    0.0000 </r>
       <r>   42.6912    0.0000 </r>
       <r>   43.5021    0.0000 </r>
       <r>   45.7527    0.0000 </r>
       <r>   57.1025    0.0000 </r>
       <r>   59.4006    0.0000 </r>
       <r>   61.5688    0.0000 </r>
       <r>   62.5611    0.0000 </r>
       <r>   64.0795    0.0000 </r>
       <r>   64.1729    0.0000 </r>
       <r>   66.2651    0.0000 </r>
       <r>   67.9699    0.0000 </r>
       <r>   68.8125    0.0000 </r>
       <r>   71.2126    0.0000 </r>
       <r>   71.3508    0.0000 </r>
       <r>   75.6294    0.0000 </r>
       <r>   80.8361    0.0000 </r>
      </set>
      <set comment="kpoint 20">
       <r>  -42.1551    1.0000 </r>
       <r>  -20.9741    1.0000 </r>
       <r>   -1.7784    0.9998 </r>
       <r>   -1.4079    1.0322 </r>
       <r>   -1.4079    1.0322 </r>
       <r>    8.5863    0.0000 </r>
       <r>   19.3958    0.0000 </r>
       <r>   19.9114    0.0000 </r>
       <r>   19.9114    0.0000 </r>
       <r>   19.9686    0.0000 </r>
       <r>   27.3975    0.0000 </r>
       <r>   27.3975    0.0000 </r>
       <r>   30.6981    0.0000 </r>
       <r>   30.9617    0.0000 </r>
       <r>   32.5358    0.0000 </r>
       <r>   41.5275    0.0000 </r>
       <r>   42.4029    0.0000 </r>
       <r>   42.4029    0.0000 </r>
       <r>   46.3048    0.0000 </r>
       <r>   56.4931    0.0000 </r>
       <r>   57.0627    0.0000 </r>
       <r>   57.0627    0.0000 </r>
       <r>   63.0390    0.0000 </r>
       <r>   63.4653    0.0000 </r>
       <r>   64.5235    0.0000 </r>
       <r>   66.8340    0.0000 </r>
       <r>   66.8340    0.0000 </r>
       <r>   69.8529    0.0000 </r>
       <r>   74.8001    0.0000 </r>
       <r>   74.8009    0.0000 </r>
       <r>   78.2733    0.0000 </r>
       <r>   78.3759    0.0000 </r>
      </set>
      <set comment="kpoint 21">
       <r>  -42.1466    1.0000 </r>
       <r>  -20.9016    1.0000 </r>
       <r>   -2.1795    1.0000 </r>
       <r>   -1.5016    0.9991 </r>
       <r>   -1.4800    1.0035 </r>
       <r>    9.1180    0.0000 </r>
       <r>   17.6406    0.0000 </r>
       <r>   19.1384    0.0000 </r>
       <r>   19.4151    0.0000 </r>
       <r>   20.6511    0.0000 </r>
       <r>   28.4776    0.0000 </r>
       <r>   28.5383    0.0000 </r>
       <r>   31.7701    0.0000 </r>
       <r>   33.0934    0.0000 </r>
       <r>   33.6332    0.0000 </r>
       <r>   40.1401    0.0000 </r>
       <r>   42.1543    0.0000 </r>
       <r>   43.1859    0.0000 </r>
       <r>   46.7999    0.0000 </r>
       <r>   52.9146    0.0000 </r>
       <r>   55.1870    0.0000 </r>
       <r>   57.3031    0.0000 </r>
       <r>   61.4322    0.0000 </r>
       <r>   62.8819    0.0000 </r>
       <r>   64.7719    0.0000 </r>
       <r>   66.4653    0.0000 </r>
       <r>   68.3657    0.0000 </r>
       <r>   70.4219    0.0000 </r>
       <r>   74.0790    0.0000 </r>
       <r>   74.2737    0.0000 </r>
       <r>   77.1612    0.0000 </r>
       <r>   77.9002    0.0000 </r>
      </set>
      <set comment="kpoint 22">
       <r>  -42.1359    1.0000 </r>
       <r>  -20.8090    1.0000 </r>
       <r>   -2.6742    1.0000 </r>
       <r>   -1.5748    0.9952 </r>
       <r>   -1.5744    0.9952 </r>
       <r>    9.6914    0.0000 </r>
       <r>   16.1889    0.0000 </r>
       <r>   18.3962    0.0000 </r>
       <r>   18.8524    0.0000 </r>
       <r>   21.8004    0.0000 </r>
       <r>   29.3041    0.0000 </r>
       <r>   29.3252    0.0000 </r>
       <r>   33.4431    0.0000 </r>
       <r>   33.7178    0.0000 </r>
       <r>   36.8595    0.0000 </r>
       <r>   38.8252    0.0000 </r>
       <r>   41.7556    0.0000 </r>
       <r>   44.1727    0.0000 </r>
       <r>   47.7802    0.0000 </r>
       <r>   50.1967    0.0000 </r>
       <r>   52.7930    0.0000 </r>
       <r>   57.9064    0.0000 </r>
       <r>   59.3013    0.0000 </r>
       <r>   61.9703    0.0000 </r>
       <r>   65.0351    0.0000 </r>
       <r>   65.8061    0.0000 </r>
       <r>   67.8143    0.0000 </r>
       <r>   70.7448    0.0000 </r>
       <r>   71.2640    0.0000 </r>
       <r>   73.6263    0.0000 </r>
       <r>   76.0076    0.0000 </r>
       <r>   77.0850    0.0000 </r>
      </set>
      <set comment="kpoint 23">
       <r>  -42.1255    1.0000 </r>
       <r>  -20.7167    1.0000 </r>
       <r>   -3.1166    1.0000 </r>
       <r>   -1.7066    0.9991 </r>
       <r>   -1.6107    0.9963 </r>
       <r>   10.1275    0.0000 </r>
       <r>   15.2715    0.0000 </r>
       <r>   17.8538    0.0000 </r>
       <r>   18.3169    0.0000 </r>
       <r>   23.1355    0.0000 </r>
       <r>   30.0045    0.0000 </r>
       <r>   30.0743    0.0000 </r>
       <r>   33.5816    0.0000 </r>
       <r>   35.5304    0.0000 </r>
       <r>   36.3916    0.0000 </r>
       <r>   41.2039    0.0000 </r>
       <r>   41.9770    0.0000 </r>
       <r>   44.5406    0.0000 </r>
       <r>   49.0465    0.0000 </r>
       <r>   49.4760    0.0000 </r>
       <r>   50.4855    0.0000 </r>
       <r>   57.6241    0.0000 </r>
       <r>   58.6188    0.0000 </r>
       <r>   60.0924    0.0000 </r>
       <r>   64.4972    0.0000 </r>
       <r>   65.0800    0.0000 </r>
       <r>   65.5533    0.0000 </r>
       <r>   67.8928    0.0000 </r>
       <r>   70.5420    0.0000 </r>
       <r>   72.3125    0.0000 </r>
       <r>   74.4444    0.0000 </r>
       <r>   74.9444    0.0000 </r>
      </set>
      <set comment="kpoint 24">
       <r>  -42.1177    1.0000 </r>
       <r>  -20.6466    1.0000 </r>
       <r>   -3.4195    1.0000 </r>
       <r>   -1.8464    1.0000 </r>
       <r>   -1.6026    0.9960 </r>
       <r>   10.3326    0.0000 </r>
       <r>   14.8260    0.0000 </r>
       <r>   17.5648    0.0000 </r>
       <r>   17.9045    0.0000 </r>
       <r>   24.5669    0.0000 </r>
       <r>   30.1794    0.0000 </r>
       <r>   30.4141    0.0000 </r>
       <r>   33.9734    0.0000 </r>
       <r>   35.5796    0.0000 </r>
       <r>   36.0345    0.0000 </r>
       <r>   41.6731    0.0000 </r>
       <r>   43.6227    0.0000 </r>
       <r>   46.6827    0.0000 </r>
       <r>   48.6800    0.0000 </r>
       <r>   49.3963    0.0000 </r>
       <r>   51.4289    0.0000 </r>
       <r>   56.5605    0.0000 </r>
       <r>   57.5119    0.0000 </r>
       <r>   59.2675    0.0000 </r>
       <r>   60.8503    0.0000 </r>
       <r>   64.3548    0.0000 </r>
       <r>   64.7427    0.0000 </r>
       <r>   66.0700    0.0000 </r>
       <r>   69.8304    0.0000 </r>
       <r>   70.5777    0.0000 </r>
       <r>   72.7882    0.0000 </r>
       <r>   73.1409    0.0000 </r>
      </set>
      <set comment="kpoint 25">
       <r>  -42.1143    1.0000 </r>
       <r>  -20.6171    1.0000 </r>
       <r>   -3.5317    1.0000 </r>
       <r>   -1.9595    1.0000 </r>
       <r>   -1.5526    0.9951 </r>
       <r>   10.3659    0.0000 </r>
       <r>   14.6539    0.0000 </r>
       <r>   17.5204    0.0000 </r>
       <r>   17.6895    0.0000 </r>
       <r>   25.9950    0.0000 </r>
       <r>   29.4120    0.0000 </r>
       <r>   30.0216    0.0000 </r>
       <r>   34.4772    0.0000 </r>
       <r>   35.5956    0.0000 </r>
       <r>   35.8451    0.0000 </r>
       <r>   42.2930    0.0000 </r>
       <r>   43.5442    0.0000 </r>
       <r>   47.5708    0.0000 </r>
       <r>   50.4880    0.0000 </r>
       <r>   50.5051    0.0000 </r>
       <r>   51.5239    0.0000 </r>
       <r>   54.1877    0.0000 </r>
       <r>   58.0771    0.0000 </r>
       <r>   58.4319    0.0000 </r>
       <r>   59.1043    0.0000 </r>
       <r>   62.4642    0.0000 </r>
       <r>   64.3039    0.0000 </r>
       <r>   66.9446    0.0000 </r>
       <r>   68.3861    0.0000 </r>
       <r>   70.7825    0.0000 </r>
       <r>   71.5182    0.0000 </r>
       <r>   72.2430    0.0000 </r>
      </set>
      <set comment="kpoint 26">
       <r>  -42.1161    1.0000 </r>
       <r>  -20.6360    1.0000 </r>
       <r>   -3.4367    1.0000 </r>
       <r>   -2.0160    1.0000 </r>
       <r>   -1.4712    1.0060 </r>
       <r>   10.3053    0.0000 </r>
       <r>   14.6263    0.0000 </r>
       <r>   17.6681    0.0000 </r>
       <r>   17.7210    0.0000 </r>
       <r>   27.2159    0.0000 </r>
       <r>   28.3580    0.0000 </r>
       <r>   28.7497    0.0000 </r>
       <r>   34.5671    0.0000 </r>
       <r>   35.3281    0.0000 </r>
       <r>   36.9412    0.0000 </r>
       <r>   41.0252    0.0000 </r>
       <r>   45.9723    0.0000 </r>
       <r>   47.0560    0.0000 </r>
       <r>   48.3575    0.0000 </r>
       <r>   49.2937    0.0000 </r>
       <r>   51.1332    0.0000 </r>
       <r>   55.9095    0.0000 </r>
       <r>   57.8788    0.0000 </r>
       <r>   58.7313    0.0000 </r>
       <r>   61.2669    0.0000 </r>
       <r>   62.5074    0.0000 </r>
       <r>   64.8186    0.0000 </r>
       <r>   66.9154    0.0000 </r>
       <r>   68.5589    0.0000 </r>
       <r>   70.7838    0.0000 </r>
       <r>   71.2511    0.0000 </r>
       <r>   72.6536    0.0000 </r>
      </set>
      <set comment="kpoint 27">
       <r>  -42.1227    1.0000 </r>
       <r>  -20.6982    1.0000 </r>
       <r>   -3.1579    1.0000 </r>
       <r>   -1.9959    1.0000 </r>
       <r>   -1.3764    1.0451 </r>
       <r>   10.1072    0.0000 </r>
       <r>   14.8330    0.0000 </r>
       <r>   17.9548    0.0000 </r>
       <r>   18.0228    0.0000 </r>
       <r>   26.9212    0.0000 </r>
       <r>   27.1539    0.0000 </r>
       <r>   28.3708    0.0000 </r>
       <r>   34.8349    0.0000 </r>
       <r>   35.0771    0.0000 </r>
       <r>   36.9799    0.0000 </r>
       <r>   40.8757    0.0000 </r>
       <r>   44.1453    0.0000 </r>
       <r>   46.6092    0.0000 </r>
       <r>   47.9001    0.0000 </r>
       <r>   48.2147    0.0000 </r>
       <r>   50.6575    0.0000 </r>
       <r>   57.4404    0.0000 </r>
       <r>   57.5886    0.0000 </r>
       <r>   61.0921    0.0000 </r>
       <r>   63.0459    0.0000 </r>
       <r>   64.8851    0.0000 </r>
       <r>   66.6174    0.0000 </r>
       <r>   66.7912    0.0000 </r>
       <r>   69.8279    0.0000 </r>
       <r>   71.5213    0.0000 </r>
       <r>   71.8872    0.0000 </r>
       <r>   74.0107    0.0000 </r>
      </set>
      <set comment="kpoint 28">
       <r>  -42.1326    1.0000 </r>
       <r>  -20.7874    1.0000 </r>
       <r>   -2.7613    1.0000 </r>
       <r>   -1.8866    1.0000 </r>
       <r>   -1.2893    1.0145 </r>
       <r>    9.6959    0.0000 </r>
       <r>   15.4471    0.0000 </r>
       <r>   18.3406    0.0000 </r>
       <r>   18.5870    0.0000 </r>
       <r>   25.6761    0.0000 </r>
       <r>   25.8700    0.0000 </r>
       <r>   28.5413    0.0000 </r>
       <r>   34.5720    0.0000 </r>
       <r>   34.5737    0.0000 </r>
       <r>   36.8907    0.0000 </r>
       <r>   39.0522    0.0000 </r>
       <r>   42.2943    0.0000 </r>
       <r>   46.2013    0.0000 </r>
       <r>   47.4084    0.0000 </r>
       <r>   48.4418    0.0000 </r>
       <r>   52.6832    0.0000 </r>
       <r>   57.8187    0.0000 </r>
       <r>   58.5399    0.0000 </r>
       <r>   62.7307    0.0000 </r>
       <r>   63.7444    0.0000 </r>
       <r>   65.1528    0.0000 </r>
       <r>   69.5308    0.0000 </r>
       <r>   70.2273    0.0000 </r>
       <r>   70.5840    0.0000 </r>
       <r>   73.1504    0.0000 </r>
       <r>   74.6274    0.0000 </r>
       <r>   75.5913    0.0000 </r>
      </set>
      <set comment="kpoint 29">
       <r>  -42.1435    1.0000 </r>
       <r>  -20.8819    1.0000 </r>
       <r>   -2.3527    1.0000 </r>
       <r>   -1.6813    0.9986 </r>
       <r>   -1.2304    0.8622 </r>
       <r>    9.1337    0.0000 </r>
       <r>   16.4728    0.0000 </r>
       <r>   18.8166    0.0000 </r>
       <r>   19.3448    0.0000 </r>
       <r>   24.5641    0.0000 </r>
       <r>   24.9777    0.0000 </r>
       <r>   28.0178    0.0000 </r>
       <r>   33.1843    0.0000 </r>
       <r>   33.7525    0.0000 </r>
       <r>   35.3978    0.0000 </r>
       <r>   38.2649    0.0000 </r>
       <r>   42.2772    0.0000 </r>
       <r>   45.6824    0.0000 </r>
       <r>   46.0290    0.0000 </r>
       <r>   50.6422    0.0000 </r>
       <r>   55.3424    0.0000 </r>
       <r>   58.7491    0.0000 </r>
       <r>   59.6281    0.0000 </r>
       <r>   63.3994    0.0000 </r>
       <r>   64.6018    0.0000 </r>
       <r>   64.7555    0.0000 </r>
       <r>   70.2302    0.0000 </r>
       <r>   71.1809    0.0000 </r>
       <r>   74.4515    0.0000 </r>
       <r>   74.6038    0.0000 </r>
       <r>   76.4745    0.0000 </r>
       <r>   77.6942    0.0000 </r>
      </set>
      <set comment="kpoint 30">
       <r>  -42.1403    1.0000 </r>
       <r>  -20.8393    1.0000 </r>
       <r>   -2.4056    1.0000 </r>
       <r>   -1.6247    0.9968 </r>
       <r>   -1.6247    0.9968 </r>
       <r>    9.6482    0.0000 </r>
       <r>   17.7337    0.0000 </r>
       <r>   18.5453    0.0000 </r>
       <r>   19.2322    0.0000 </r>
       <r>   19.2322    0.0000 </r>
       <r>   30.5190    0.0000 </r>
       <r>   30.5190    0.0000 </r>
       <r>   31.7058    0.0000 </r>
       <r>   33.0749    0.0000 </r>
       <r>   34.7694    0.0000 </r>
       <r>   41.1211    0.0000 </r>
       <r>   41.7604    0.0000 </r>
       <r>   41.7604    0.0000 </r>
       <r>   47.6531    0.0000 </r>
       <r>   52.0717    0.0000 </r>
       <r>   54.4412    0.0000 </r>
       <r>   54.4412    0.0000 </r>
       <r>   61.3959    0.0000 </r>
       <r>   64.3391    0.0000 </r>
       <r>   65.2030    0.0000 </r>
       <r>   65.9244    0.0000 </r>
       <r>   65.9244    0.0000 </r>
       <r>   71.4591    0.0000 </r>
       <r>   72.4434    0.0000 </r>
       <r>   72.4434    0.0000 </r>
       <r>   73.7352    0.0000 </r>
       <r>   79.4683    0.0000 </r>
      </set>
      <set comment="kpoint 31">
       <r>  -42.1315    1.0000 </r>
       <r>  -20.7548    1.0000 </r>
       <r>   -2.7928    1.0000 </r>
       <r>   -1.7484    0.9996 </r>
       <r>   -1.7237    0.9994 </r>
       <r>   10.2728    0.0000 </r>
       <r>   16.5068    0.0000 </r>
       <r>   17.9557    0.0000 </r>
       <r>   18.9296    0.0000 </r>
       <r>   19.8234    0.0000 </r>
       <r>   31.2544    0.0000 </r>
       <r>   31.6824    0.0000 </r>
       <r>   33.0962    0.0000 </r>
       <r>   33.5287    0.0000 </r>
       <r>   37.4872    0.0000 </r>
       <r>   39.5387    0.0000 </r>
       <r>   41.2623    0.0000 </r>
       <r>   42.6908    0.0000 </r>
       <r>   48.9294    0.0000 </r>
       <r>   49.6500    0.0000 </r>
       <r>   53.0580    0.0000 </r>
       <r>   54.2613    0.0000 </r>
       <r>   60.1950    0.0000 </r>
       <r>   62.4544    0.0000 </r>
       <r>   64.6791    0.0000 </r>
       <r>   65.3385    0.0000 </r>
       <r>   66.5090    0.0000 </r>
       <r>   70.6084    0.0000 </r>
       <r>   70.9364    0.0000 </r>
       <r>   71.5275    0.0000 </r>
       <r>   72.4161    0.0000 </r>
       <r>   78.6567    0.0000 </r>
      </set>
      <set comment="kpoint 32">
       <r>  -42.1224    1.0000 </r>
       <r>  -20.6665    1.0000 </r>
       <r>   -3.1582    1.0000 </r>
       <r>   -1.9251    1.0000 </r>
       <r>   -1.7771    0.9998 </r>
       <r>   10.8478    0.0000 </r>
       <r>   15.3796    0.0000 </r>
       <r>   17.5189    0.0000 </r>
       <r>   18.5596    0.0000 </r>
       <r>   20.9846    0.0000 </r>
       <r>   31.5721    0.0000 </r>
       <r>   31.7937    0.0000 </r>
       <r>   33.7834    0.0000 </r>
       <r>   35.9785    0.0000 </r>
       <r>   37.3501    0.0000 </r>
       <r>   40.3529    0.0000 </r>
       <r>   41.5478    0.0000 </r>
       <r>   43.7254    0.0000 </r>
       <r>   48.3129    0.0000 </r>
       <r>   50.4716    0.0000 </r>
       <r>   51.6767    0.0000 </r>
       <r>   54.7214    0.0000 </r>
       <r>   58.0326    0.0000 </r>
       <r>   59.9211    0.0000 </r>
       <r>   63.1037    0.0000 </r>
       <r>   64.2698    0.0000 </r>
       <r>   65.9136    0.0000 </r>
       <r>   68.6197    0.0000 </r>
       <r>   69.5330    0.0000 </r>
       <r>   72.5348    0.0000 </r>
       <r>   73.9533    0.0000 </r>
       <r>   74.4302    0.0000 </r>
      </set>
      <set comment="kpoint 33">
       <r>  -42.1149    1.0000 </r>
       <r>  -20.5953    1.0000 </r>
       <r>   -3.4004    1.0000 </r>
       <r>   -2.1456    1.0000 </r>
       <r>   -1.7744    0.9998 </r>
       <r>   11.2204    0.0000 </r>
       <r>   14.6677    0.0000 </r>
       <r>   17.3085    0.0000 </r>
       <r>   18.2019    0.0000 </r>
       <r>   22.3127    0.0000 </r>
       <r>   31.3178    0.0000 </r>
       <r>   31.7363    0.0000 </r>
       <r>   34.9458    0.0000 </r>
       <r>   35.9102    0.0000 </r>
       <r>   36.8870    0.0000 </r>
       <r>   40.6514    0.0000 </r>
       <r>   43.7755    0.0000 </r>
       <r>   46.0522    0.0000 </r>
       <r>   48.5154    0.0000 </r>
       <r>   50.0226    0.0000 </r>
       <r>   52.5520    0.0000 </r>
       <r>   55.4667    0.0000 </r>
       <r>   55.7809    0.0000 </r>
       <r>   57.4662    0.0000 </r>
       <r>   61.3902    0.0000 </r>
       <r>   61.6227    0.0000 </r>
       <r>   65.8088    0.0000 </r>
       <r>   66.4214    0.0000 </r>
       <r>   68.6964    0.0000 </r>
       <r>   70.8579    0.0000 </r>
       <r>   73.2203    0.0000 </r>
       <r>   74.3926    0.0000 </r>
      </set>
      <set comment="kpoint 34">
       <r>  -42.1108    1.0000 </r>
       <r>  -20.5590    1.0000 </r>
       <r>   -3.4704    1.0000 </r>
       <r>   -2.3605    1.0000 </r>
       <r>   -1.7159    0.9993 </r>
       <r>   11.3313    0.0000 </r>
       <r>   14.2872    0.0000 </r>
       <r>   17.3359    0.0000 </r>
       <r>   17.9369    0.0000 </r>
       <r>   23.7272    0.0000 </r>
       <r>   30.5313    0.0000 </r>
       <r>   31.2267    0.0000 </r>
       <r>   34.7205    0.0000 </r>
       <r>   36.0076    0.0000 </r>
       <r>   36.7292    0.0000 </r>
       <r>   43.1861    0.0000 </r>
       <r>   43.2192    0.0000 </r>
       <r>   48.3997    0.0000 </r>
       <r>   49.6176    0.0000 </r>
       <r>   50.8446    0.0000 </r>
       <r>   51.9942    0.0000 </r>
       <r>   54.4937    0.0000 </r>
       <r>   56.6193    0.0000 </r>
       <r>   56.7621    0.0000 </r>
       <r>   58.7135    0.0000 </r>
       <r>   59.3734    0.0000 </r>
       <r>   64.4390    0.0000 </r>
       <r>   65.7011    0.0000 </r>
       <r>   68.7882    0.0000 </r>
       <r>   69.5105    0.0000 </r>
       <r>   72.6116    0.0000 </r>
       <r>   72.9606    0.0000 </r>
      </set>
      <set comment="kpoint 35">
       <r>  -42.1111    1.0000 </r>
       <r>  -20.5674    1.0000 </r>
       <r>   -3.3623    1.0000 </r>
       <r>   -2.5101    1.0000 </r>
       <r>   -1.6140    0.9964 </r>
       <r>   11.2301    0.0000 </r>
       <r>   14.1145    0.0000 </r>
       <r>   17.5236    0.0000 </r>
       <r>   17.8264    0.0000 </r>
       <r>   25.2141    0.0000 </r>
       <r>   29.4181    0.0000 </r>
       <r>   29.8417    0.0000 </r>
       <r>   34.5666    0.0000 </r>
       <r>   35.5430    0.0000 </r>
       <r>   38.2683    0.0000 </r>
       <r>   41.8091    0.0000 </r>
       <r>   46.2597    0.0000 </r>
       <r>   47.6580    0.0000 </r>
       <r>   49.6004    0.0000 </r>
       <r>   50.8450    0.0000 </r>
       <r>   50.9085    0.0000 </r>
       <r>   54.6320    0.0000 </r>
       <r>   56.6419    0.0000 </r>
       <r>   57.1407    0.0000 </r>
       <r>   58.7792    0.0000 </r>
       <r>   60.5403    0.0000 </r>
       <r>   63.2589    0.0000 </r>
       <r>   66.0983    0.0000 </r>
       <r>   67.9764    0.0000 </r>
       <r>   69.8595    0.0000 </r>
       <r>   71.6773    0.0000 </r>
       <r>   72.8201    0.0000 </r>
      </set>
      <set comment="kpoint 36">
       <r>  -42.1156    1.0000 </r>
       <r>  -20.6182    1.0000 </r>
       <r>   -3.1352    1.0000 </r>
       <r>   -2.5191    1.0000 </r>
       <r>   -1.4905    1.0011 </r>
       <r>   10.9075    0.0000 </r>
       <r>   14.2079    0.0000 </r>
       <r>   17.7732    0.0000 </r>
       <r>   17.9057    0.0000 </r>
       <r>   26.7109    0.0000 </r>
       <r>   28.1371    0.0000 </r>
       <r>   28.1692    0.0000 </r>
       <r>   34.9610    0.0000 </r>
       <r>   35.3372    0.0000 </r>
       <r>   38.6314    0.0000 </r>
       <r>   41.1091    0.0000 </r>
       <r>   46.4243    0.0000 </r>
       <r>   47.0881    0.0000 </r>
       <r>   47.9365    0.0000 </r>
       <r>   49.3933    0.0000 </r>
       <r>   51.3338    0.0000 </r>
       <r>   54.3986    0.0000 </r>
       <r>   55.5938    0.0000 </r>
       <r>   60.2830    0.0000 </r>
       <r>   61.6479    0.0000 </r>
       <r>   63.0041    0.0000 </r>
       <r>   63.7695    0.0000 </r>
       <r>   66.4548    0.0000 </r>
       <r>   68.2594    0.0000 </r>
       <r>   70.1644    0.0000 </r>
       <r>   71.5012    0.0000 </r>
       <r>   74.0536    0.0000 </r>
      </set>
      <set comment="kpoint 37">
       <r>  -42.1233    1.0000 </r>
       <r>  -20.6981    1.0000 </r>
       <r>   -2.9264    1.0000 </r>
       <r>   -2.2895    1.0000 </r>
       <r>   -1.3728    1.0464 </r>
       <r>   10.3530    0.0000 </r>
       <r>   14.6770    0.0000 </r>
       <r>   18.0384    0.0000 </r>
       <r>   18.1756    0.0000 </r>
       <r>   26.6976    0.0000 </r>
       <r>   26.8822    0.0000 </r>
       <r>   28.0029    0.0000 </r>
       <r>   35.0481    0.0000 </r>
       <r>   35.3864    0.0000 </r>
       <r>   37.3659    0.0000 </r>
       <r>   40.8238    0.0000 </r>
       <r>   43.6162    0.0000 </r>
       <r>   46.6389    0.0000 </r>
       <r>   46.8318    0.0000 </r>
       <r>   49.7252    0.0000 </r>
       <r>   51.9867    0.0000 </r>
       <r>   54.6499    0.0000 </r>
       <r>   57.1254    0.0000 </r>
       <r>   61.9199    0.0000 </r>
       <r>   63.0150    0.0000 </r>
       <r>   65.8298    0.0000 </r>
       <r>   65.8470    0.0000 </r>
       <r>   66.8507    0.0000 </r>
       <r>   70.8836    0.0000 </r>
       <r>   71.6353    0.0000 </r>
       <r>   71.9892    0.0000 </r>
       <r>   74.9791    0.0000 </r>
      </set>
      <set comment="kpoint 38">
       <r>  -42.1250    1.0000 </r>
       <r>  -20.6799    1.0000 </r>
       <r>   -3.0980    1.0000 </r>
       <r>   -1.8510    1.0000 </r>
       <r>   -1.8510    1.0000 </r>
       <r>   10.9269    0.0000 </r>
       <r>   16.4705    0.0000 </r>
       <r>   17.4581    0.0000 </r>
       <r>   18.8824    0.0000 </r>
       <r>   18.8824    0.0000 </r>
       <r>   32.5454    0.0000 </r>
       <r>   33.0786    0.0000 </r>
       <r>   34.0586    0.0000 </r>
       <r>   34.0586    0.0000 </r>
       <r>   39.0353    0.0000 </r>
       <r>   40.2821    0.0000 </r>
       <r>   40.9654    0.0000 </r>
       <r>   40.9654    0.0000 </r>
       <r>   48.1360    0.0000 </r>
       <r>   50.4219    0.0000 </r>
       <r>   52.3559    0.0000 </r>
       <r>   52.3559    0.0000 </r>
       <r>   60.2360    0.0000 </r>
       <r>   62.6833    0.0000 </r>
       <r>   62.6833    0.0000 </r>
       <r>   65.2584    0.0000 </r>
       <r>   66.2145    0.0000 </r>
       <r>   67.1919    0.0000 </r>
       <r>   70.5298    0.0000 </r>
       <r>   70.5298    0.0000 </r>
       <r>   72.3093    0.0000 </r>
       <r>   78.6114    0.0000 </r>
      </set>
      <set comment="kpoint 39">
       <r>  -42.1177    1.0000 </r>
       <r>  -20.6006    1.0000 </r>
       <r>   -3.4063    1.0000 </r>
       <r>   -1.9937    1.0000 </r>
       <r>   -1.9296    1.0000 </r>
       <r>   11.5721    0.0000 </r>
       <r>   15.6352    0.0000 </r>
       <r>   17.0500    0.0000 </r>
       <r>   18.7151    0.0000 </r>
       <r>   19.3930    0.0000 </r>
       <r>   32.1402    0.0000 </r>
[...]
        <r>  0.0251  0.0012  0.0001  0.0011  0.0000  0.0000  0.0000  0.0000  0.0000 </r>
       </set>
       <set comment="band 12">
        <r>  0.0397  0.0122  0.0987  0.1504  0.0000  0.0000  0.0000  0.0000  0.0000 </r>
        <r>  0.1108  0.0136  0.0049  0.0019  0.0000  0.0000  0.0000  0.0000  0.0000 </r>
       </set>
       <set comment="band 13">
        <r>  0.0209  0.0003  0.0249  0.0878  0.0000  0.0000  0.0000  0.0000  0.0000 </r>
        <r>  0.0001  0.0361  0.0512  0.0153  0.0000  0.0000  0.0000  0.0000  0.0000 </r>
       </set>
       <set comment="band 14">
        <r>  0.0194  0.4608  0.0076  0.6535  0.0000  0.0000  0.0000  0.0000  0.0000 </r>
        <r>  0.0003  0.0007  0.0008  0.0075  0.0000  0.0000  0.0000  0.0000  0.0000 </r>
       </set>
       <set comment="band 15">
        <r>  0.0000  0.2762  0.4144  0.1381  0.0000  0.0000  0.0000  0.0000  0.0000 </r>
        <r>  0.0000  0.0041  0.0062  0.0021  0.0000  0.0000  0.0000  0.0000  0.0000 </r>
       </set>
       <set comment="band 16">
        <r>  0.0000  0.0772  0.1158  0.0386  0.0000  0.0000  0.0000  0.0000  0.0000 </r>
        <r>  0.0000  0.0058  0.0087  0.0029  0.0000  0.0000  0.0000  0.0000  0.0000 </r>
       </set>
       <set comment="band 17">
        <r>  0.0768  0.1504  0.4928  0.4453  0.0000  0.0000  0.0000  0.0000  0.0000 </r>
        <r>  0.0017  0.0016  0.0046  0.0037  0.0000  0.0000  0.0000  0.0000  0.0000 </r>
       </set>
       <set comment="band 18">
        <r>  0.0000  0.1307  0.1961  0.0654  0.0000  0.0000  0.0000  0.0000  0.0000 </r>
        <r>  0.0000  0.0085  0.0128  0.0043  0.0000  0.0000  0.0000  0.0000  0.0000 </r>
       </set>
       <set comment="band 19">
        <r>  0.0077  0.0062  0.0523  0.0807  0.0000  0.0000  0.0000  0.0000  0.0000 </r>
        <r>  0.0101  0.0286  0.0082  0.0067  0.0000  0.0000  0.0000  0.0000  0.0000 </r>
       </set>
       <set comment="band 20">
        <r>  0.0000  0.0231  0.0347  0.0116  0.0000  0.0000  0.0000  0.0000  0.0000 </r>
        <r>  0.0000  0.0239  0.0358  0.0119  0.0000  0.0000  0.0000  0.0000  0.0000 </r>
       </set>
       <set comment="band 21">
        <r>  0.0284  0.1741  0.0006  0.2996  0.0000  0.0000  0.0000  0.0000  0.0000 </r>
        <r>  0.0060  0.0001  0.0025  0.0052  0.0000  0.0000  0.0000  0.0000  0.0000 </r>
       </set>
       <set comment="band 22">
        <r>  0.2187  0.4450  0.3812  0.0159  0.0000  0.0000  0.0000  0.0000  0.0000 </r>
        <r>  0.0174  0.0033  0.0111  0.0103  0.0000  0.0000  0.0000  0.0000  0.0000 </r>
       </set>
       <set comment="band 23">
        <r>  0.0000  0.0466  0.0699  0.0233  0.0000  0.0000  0.0000  0.0000  0.0000 </r>
        <r>  0.0000  0.0113  0.0169  0.0056  0.0000  0.0000  0.0000  0.0000  0.0000 </r>
       </set>
       <set comment="band 24">
        <r>  0.0557  0.5130  0.3943  0.0056  0.0000  0.0000  0.0000  0.0000  0.0000 </r>
        <r>  0.0595  0.0038  0.0076  0.0040  0.0000  0.0000  0.0000  0.0000  0.0000 </r>
       </set>
       <set comment="band 25">
        <r>  0.0000  0.1501  0.2252  0.0751  0.0000  0.0000  0.0000  0.0000  0.0000 </r>
        <r>  0.0000  0.0004  0.0007  0.0002  0.0000  0.0000  0.0000  0.0000  0.0000 </r>
       </set>
       <set comment="band 26">
        <r>  0.0126  0.3026  0.0313  1.1758  0.0000  0.0000  0.0000  0.0000  0.0000 </r>
        <r>  0.0041  0.0396  0.0003  0.0980  0.0000  0.0000  0.0000  0.0000  0.0000 </r>
       </set>
       <set comment="band 27">
        <r>  0.0000  0.4179  0.6269  0.2090  0.0000  0.0000  0.0000  0.0000  0.0000 </r>
        <r>  0.0000  0.0242  0.0363  0.0121  0.0000  0.0000  0.0000  0.0000  0.0000 </r>
       </set>
       <set comment="band 28">
        <r>  0.1091  0.1069  0.2396  0.1487  0.0000  0.0000  0.0000  0.0000  0.0000 </r>
        <r>  0.0017  0.0013  0.0025  0.0012  0.0000  0.0000  0.0000  0.0000  0.0000 </r>
       </set>
       <set comment="band 29">
        <r>  0.0000  0.0793  0.1190  0.0397  0.0000  0.0000  0.0000  0.0000  0.0000 </r>
        <r>  0.0000  0.0015  0.0022  0.0007  0.0000  0.0000  0.0000  0.0000  0.0000 </r>
       </set>
       <set comment="band 30">
        <r>  0.0701  0.1835  0.1215  0.0000  0.0000  0.0000  0.0000  0.0000  0.0000 </r>
        <r>  0.0072  0.0067  0.0001  0.0179  0.0000  0.0000  0.0000  0.0000  0.0000 </r>
       </set>
       <set comment="band 31">
        <r>  0.0000  0.0165  0.0247  0.0082  0.0000  0.0000  0.0000  0.0000  0.0000 </r>
        <r>  0.0000  0.0086  0.0130  0.0043  0.0000  0.0000  0.0000  0.0000  0.0000 </r>
       </set>
       <set comment="band 32">
        <r>  0.0005  0.0519  0.0733  0.0216  0.0000  0.0000  0.0000  0.0000  0.0000 </r>
        <r>  0.1213  0.0648  0.0788  0.0159  0.0000  0.0000  0.0000  0.0000  0.0000 </r>
       </set>
      </set>
      <set comment="kpoint 83">
       <set comment="band 1">
        <r>  0.9897  0.0000  0.0000  0.0000  0.0000  0.0000  0.0000  0.0000  0.0000 </r>
        <r>  0.0000  0.0000  0.0000  0.0000  0.0000  0.0000  0.0000  0.0000  0.0000 </r>
       </set>
       <set comment="band 2">
        <r>  0.0001  0.0002  0.0001  0.0001  0.0000  0.0000  0.0000  0.0000  0.0000 </r>
        <r>  0.8719  0.0000  0.0000  0.0000  0.0000  0.0000  0.0000  0.0000  0.0000 </r>
       </set>
       <set comment="band 3">
        <r>  0.0000  0.0066  0.0000  0.0131  0.0000  0.0000  0.0000  0.0000  0.0000 </r>
        <r>  0.0000  0.2138  0.0000  0.4276  0.0000  0.0000  0.0000  0.0000  0.0000 </r>
       </set>
       <set comment="band 4">
        <r>  0.0019  0.0058  0.0064  0.0029  0.0000  0.0000  0.0000  0.0000  0.0000 </r>
        <r>  0.0001  0.3223  0.2079  0.1611  0.0000  0.0000  0.0000  0.0000  0.0000 </r>
       </set>
       <set comment="band 5">
        <r>  0.0089  0.0001  0.0023  0.0000  0.0000  0.0000  0.0000  0.0000  0.0000 </r>
        <r>  0.0000  0.1546  0.5363  0.0773  0.0000  0.0000  0.0000  0.0000  0.0000 </r>
       </set>
       <set comment="band 6">
        <r>  0.0000  0.0673  0.0000  0.1346  0.0000  0.0000  0.0000  0.0000  0.0000 </r>
        <r>  0.0000  0.0954  0.0000  0.1909  0.0000  0.0000  0.0000  0.0000  0.0000 </r>
       </set>
       <set comment="band 7">
        <r>  0.0001  0.1122  0.0216  0.0561  0.0000  0.0000  0.0000  0.0000  0.0000 </r>
        <r>  0.0104  0.0742  0.0630  0.0371  0.0000  0.0000  0.0000  0.0000  0.0000 </r>
       </set>
       <set comment="band 8">
        <r>  0.0679  0.0768  0.2646  0.0384  0.0000  0.0000  0.0000  0.0000  0.0000 </r>
        <r>  0.0490  0.0119  0.0083  0.0059  0.0000  0.0000  0.0000  0.0000  0.0000 </r>
       </set>
       <set comment="band 9">
        <r>  0.2551  0.0119  0.1172  0.0060  0.0000  0.0000  0.0000  0.0000  0.0000 </r>
        <r>  0.0013  0.0323  0.0650  0.0161  0.0000  0.0000  0.0000  0.0000  0.0000 </r>
       </set>
       <set comment="band 10">
        <r>  0.0056  0.1534  0.1982  0.0767  0.0000  0.0000  0.0000  0.0000  0.0000 </r>
        <r>  0.0041  0.0126  0.0181  0.0063  0.0000  0.0000  0.0000  0.0000  0.0000 </r>
       </set>
       <set comment="band 11">
        <r>  0.0000  0.1658  0.0000  0.3316  0.0000  0.0000  0.0000  0.0000  0.0000 </r>
        <r>  0.0000  0.0040  0.0000  0.0080  0.0000  0.0000  0.0000  0.0000  0.0000 </r>
       </set>
       <set comment="band 12">
        <r>  0.0126  0.1456  0.0920  0.0728  0.0000  0.0000  0.0000  0.0000  0.0000 </r>
        <r>  0.1257  0.0061  0.0001  0.0030  0.0000  0.0000  0.0000  0.0000  0.0000 </r>
       </set>
       <set comment="band 13">
        <r>  0.0368  0.0001  0.0499  0.0001  0.0000  0.0000  0.0000  0.0000  0.0000 </r>
        <r>  0.0002  0.0330  0.0920  0.0165  0.0000  0.0000  0.0000  0.0000  0.0000 </r>
       </set>
       <set comment="band 14">
        <r>  0.0000  0.2262  0.0000  0.4524  0.0000  0.0000  0.0000  0.0000  0.0000 </r>
        <r>  0.0000  0.0007  0.0000  0.0014  0.0000  0.0000  0.0000  0.0000  0.0000 </r>
       </set>
       <set comment="band 15">
        <r>  0.0231  0.4786  0.5251  0.2393  0.0000  0.0000  0.0000  0.0000  0.0000 </r>
        <r>  0.0005  0.0155  0.0085  0.0078  0.0000  0.0000  0.0000  0.0000  0.0000 </r>
       </set>
       <set comment="band 16">
        <r>  0.0000  0.1206  0.0000  0.2411  0.0000  0.0000  0.0000  0.0000  0.0000 </r>
        <r>  0.0000  0.0049  0.0000  0.0099  0.0000  0.0000  0.0000  0.0000  0.0000 </r>
       </set>
       <set comment="band 17">
        <r>  0.0000  0.0802  0.0000  0.1604  0.0000  0.0000  0.0000  0.0000  0.0000 </r>
        <r>  0.0000  0.0007  0.0000  0.0015  0.0000  0.0000  0.0000  0.0000  0.0000 </r>
       </set>
       <set comment="band 18">
        <r>  0.1541  0.1068  0.7339  0.0534  0.0000  0.0000  0.0000  0.0000  0.0000 </r>
        <r>  0.0051  0.0019  0.0030  0.0010  0.0000  0.0000  0.0000  0.0000  0.0000 </r>
       </set>
       <set comment="band 19">
        <r>  0.0000  0.0000  0.0000  0.0000  0.0000  0.0000  0.0000  0.0000  0.0000 </r>
        <r>  0.0000  0.0134  0.0000  0.0269  0.0000  0.0000  0.0000  0.0000  0.0000 </r>
       </set>
       <set comment="band 20">
        <r>  0.0019  0.0003  0.0458  0.0002  0.0000  0.0000  0.0000  0.0000  0.0000 </r>
        <r>  0.0273  0.0319  0.0327  0.0160  0.0000  0.0000  0.0000  0.0000  0.0000 </r>
       </set>
       <set comment="band 21">
        <r>  0.1384  0.6782  0.4864  0.3391  0.0000  0.0000  0.0000  0.0000  0.0000 </r>
        <r>  0.0186  0.0011  0.0083  0.0006  0.0000  0.0000  0.0000  0.0000  0.0000 </r>
       </set>
       <set comment="band 22">
        <r>  0.0173  0.5029  0.0774  0.2515  0.0000  0.0000  0.0000  0.0000  0.0000 </r>
        <r>  0.0576  0.0026  0.0359  0.0013  0.0000  0.0000  0.0000  0.0000  0.0000 </r>
       </set>
       <set comment="band 23">
        <r>  0.0000  0.3693  0.0000  0.7386  0.0000  0.0000  0.0000  0.0000  0.0000 </r>
        <r>  0.0000  0.0061  0.0000  0.0123  0.0000  0.0000  0.0000  0.0000  0.0000 </r>
       </set>
       <set comment="band 24">
        <r>  0.0262  0.1707  0.4854  0.0853  0.0000  0.0000  0.0000  0.0000  0.0000 </r>
        <r>  0.0020  0.0028  0.0008  0.0014  0.0000  0.0000  0.0000  0.0000  0.0000 </r>
       </set>
       <set comment="band 25">
        <r>  0.0000  0.0525  0.0000  0.1051  0.0000  0.0000  0.0000  0.0000  0.0000 </r>
        <r>  0.0000  0.0120  0.0000  0.0240  0.0000  0.0000  0.0000  0.0000  0.0000 </r>
       </set>
       <set comment="band 26">
        <r>  0.0000  0.1905  0.0000  0.3809  0.0000  0.0000  0.0000  0.0000  0.0000 </r>
        <r>  0.0000  0.0113  0.0000  0.0226  0.0000  0.0000  0.0000  0.0000  0.0000 </r>
       </set>
       <set comment="band 27">
        <r>  0.0000  0.1208  0.0000  0.2416  0.0000  0.0000  0.0000  0.0000  0.0000 </r>
        <r>  0.0000  0.0167  0.0000  0.0333  0.0000  0.0000  0.0000  0.0000  0.0000 </r>
       </set>
       <set comment="band 28">
        <r>  0.0044  0.2541  0.8971  0.1270  0.0000  0.0000  0.0000  0.0000  0.0000 </r>
        <r>  0.0088  0.0146  0.0215  0.0073  0.0000  0.0000  0.0000  0.0000  0.0000 </r>
       </set>
       <set comment="band 29">
        <r>  0.1707  0.0186  0.1909  0.0093  0.0000  0.0000  0.0000  0.0000  0.0000 </r>
        <r>  0.0004  0.0000  0.0008  0.0000  0.0000  0.0000  0.0000  0.0000  0.0000 </r>
       </set>
       <set comment="band 30">
        <r>  0.0492  0.0583  0.0345  0.0291  0.0000  0.0000  0.0000  0.0000  0.0000 </r>
        <r>  0.0107  0.0221  0.0158  0.0111  0.0000  0.0000  0.0000  0.0000  0.0000 </r>
       </set>
       <set comment="band 31">
        <r>  0.0000  0.0447  0.0000  0.0894  0.0000  0.0000  0.0000  0.0000  0.0000 </r>
        <r>  0.0000  0.0098  0.0000  0.0195  0.0000  0.0000  0.0000  0.0000  0.0000 </r>
       </set>
       <set comment="band 32">
        <r>  0.0004  0.0056  0.0885  0.0028  0.0000  0.0000  0.0000  0.0000  0.0000 </r>
        <r>  0.0236  0.0649  0.1086  0.0325  0.0000  0.0000  0.0000  0.0000  0.0000 </r>
       </set>
      </set>
      <set comment="kpoint 84">
       <set comment="band 1">
        <r>  0.9897  0.0000  0.0000  0.0000  0.0000  0.0000  0.0000  0.0000  0.0000 </r>
        <r>  0.0000  0.0000  0.0000  0.0000  0.0000  0.0000  0.0000  0.0000  0.0000 </r>
       </set>
       <set comment="band 2">
        <r>  0.0000  0.0001  0.0002  0.0001  0.0000  0.0000  0.0000  0.0000  0.0000 </r>
        <r>  0.8716  0.0000  0.0000  0.0000  0.0000  0.0000  0.0000  0.0000  0.0000 </r>
       </set>
       <set comment="band 3">
        <r>  0.0014  0.0059  0.0000  0.0118  0.0000  0.0000  0.0000  0.0000  0.0000 </r>
        <r>  0.0002  0.1608  0.0059  0.4898  0.0000  0.0000  0.0000  0.0000  0.0000 </r>
       </set>
       <set comment="band 4">
        <r>  0.0000  0.0058  0.0088  0.0029  0.0000  0.0000  0.0000  0.0000  0.0000 </r>
        <r>  0.0000  0.2249  0.3373  0.1124  0.0000  0.0000  0.0000  0.0000  0.0000 </r>
       </set>
       <set comment="band 5">
        <r>  0.0107  0.0000  0.0001  0.0005  0.0000  0.0000  0.0000  0.0000  0.0000 </r>
        <r>  0.0000  0.3237  0.3782  0.0679  0.0000  0.0000  0.0000  0.0000  0.0000 </r>
       </set>
       <set comment="band 6">
        <r>  0.0016  0.0224  0.0129  0.1665  0.0000  0.0000  0.0000  0.0000  0.0000 </r>
        <r>  0.0100  0.0696  0.0005  0.1685  0.0000  0.0000  0.0000  0.0000  0.0000 </r>
       </set>
       <set comment="band 7">
        <r>  0.0000  0.0623  0.0934  0.0311  0.0000  0.0000  0.0000  0.0000  0.0000 </r>
        <r>  0.0000  0.0769  0.1154  0.0385  0.0000  0.0000  0.0000  0.0000  0.0000 </r>
       </set>
       <set comment="band 8">
        <r>  0.0057  0.2363  0.2329  0.0220  0.0000  0.0000  0.0000  0.0000  0.0000 </r>
        <r>  0.0527  0.0068  0.0000  0.0141  0.0000  0.0000  0.0000  0.0000  0.0000 </r>
       </set>
       <set comment="band 9">
        <r>  0.3193  0.0004  0.0067  0.0128  0.0000  0.0000  0.0000  0.0000  0.0000 </r>
        <r>  0.0002  0.0306  0.0544  0.0245  0.0000  0.0000  0.0000  0.0000  0.0000 </r>
       </set>
       <set comment="band 10">
        <r>  0.0000  0.1526  0.2289  0.0763  0.0000  0.0000  0.0000  0.0000  0.0000 </r>
        <r>  0.0000  0.0095  0.0143  0.0048  0.0000  0.0000  0.0000  0.0000  0.0000 </r>
       </set>
       <set comment="band 11">
        <r>  0.0025  0.1624  0.0005  0.2803  0.0000  0.0000  0.0000  0.0000  0.0000 </r>
        <r>  0.0059  0.0068  0.0002  0.0086  0.0000  0.0000  0.0000  0.0000  0.0000 </r>
       </set>
       <set comment="band 12">
        <r>  0.0022  0.0716  0.1675  0.1093  0.0000  0.0000  0.0000  0.0000  0.0000 </r>
        <r>  0.1185  0.0041  0.0002  0.0041  0.0000  0.0000  0.0000  0.0000  0.0000 </r>
       </set>
       <set comment="band 13">
        <r>  0.0453  0.0075  0.0012  0.0333  0.0000  0.0000  0.0000  0.0000  0.0000 </r>
        <r>  0.0000  0.0608  0.0780  0.0183  0.0000  0.0000  0.0000  0.0000  0.0000 </r>
       </set>
       <set comment="band 14">
        <r>  0.0000  0.2656  0.3984  0.1328  0.0000  0.0000  0.0000  0.0000  0.0000 </r>
        <r>  0.0000  0.0024  0.0036  0.0012  0.0000  0.0000  0.0000  0.0000  0.0000 </r>
       </set>
       <set comment="band 15">
        <r>  0.0220  0.4073  0.0003  0.7585  0.0000  0.0000  0.0000  0.0000  0.0000 </r>
        <r>  0.0004  0.0028  0.0007  0.0142  0.0000  0.0000  0.0000  0.0000  0.0000 </r>
       </set>
       <set comment="band 16">
        <r>  0.0000  0.0556  0.0834  0.0278  0.0000  0.0000  0.0000  0.0000  0.0000 </r>
        <r>  0.0000  0.0046  0.0069  0.0023  0.0000  0.0000  0.0000  0.0000  0.0000 </r>
       </set>
       <set comment="band 17">
        <r>  0.0000  0.1248  0.1872  0.0624  0.0000  0.0000  0.0000  0.0000  0.0000 </r>
        <r>  0.0000  0.0043  0.0065  0.0022  0.0000  0.0000  0.0000  0.0000  0.0000 </r>
       </set>
       <set comment="band 18">
        <r>  0.2047  0.0059  0.1132  0.2251  0.0000  0.0000  0.0000  0.0000  0.0000 </r>
        <r>  0.0000  0.0010  0.0001  0.0033  0.0000  0.0000  0.0000  0.0000  0.0000 </r>
       </set>
       <set comment="band 19">
        <r>  0.0335  0.0027  0.0387  0.0712  0.0000  0.0000  0.0000  0.0000  0.0000 </r>
        <r>  0.0276  0.0271  0.0020  0.0243  0.0000  0.0000  0.0000  0.0000  0.0000 </r>
       </set>
       <set comment="band 20">
        <r>  0.0000  0.0014  0.0020  0.0007  0.0000  0.0000  0.0000  0.0000  0.0000 </r>
        <r>  0.0000  0.0263  0.0394  0.0131  0.0000  0.0000  0.0000  0.0000  0.0000 </r>
       </set>
       <set comment="band 21">
        <r>  0.0538  0.7630  0.9948  0.2423  0.0000  0.0000  0.0000  0.0000  0.0000 </r>
        <r>  0.0204  0.0002  0.0002  0.0024  0.0000  0.0000  0.0000  0.0000  0.0000 </r>
       </set>
       <set comment="band 22">
        <r>  0.0033  0.1181  0.3742  0.3289  0.0000  0.0000  0.0000  0.0000  0.0000 </r>
        <r>  0.0712  0.0045  0.0003  0.0153  0.0000  0.0000  0.0000  0.0000  0.0000 </r>
       </set>
       <set comment="band 23">
        <r>  0.0000  0.3028  0.4543  0.1514  0.0000  0.0000  0.0000  0.0000  0.0000 </r>
        <r>  0.0000  0.0042  0.0063  0.0021  0.0000  0.0000  0.0000  0.0000  0.0000 </r>
       </set>
       <set comment="band 24">
        <r>  0.0153  0.8237  0.0314  0.9538  0.0000  0.0000  0.0000  0.0000  0.0000 </r>
        <r>  0.0055  0.0095  0.0006  0.0319  0.0000  0.0000  0.0000  0.0000  0.0000 </r>
       </set>
       <set comment="band 25">
        <r>  0.0004  0.0113  0.0388  0.0364  0.0000  0.0000  0.0000  0.0000  0.0000 </r>
        <r>  0.0001  0.0030  0.0004  0.0124  0.0000  0.0000  0.0000  0.0000  0.0000 </r>
       </set>
       <set comment="band 26">
        <r>  0.0000  0.2848  0.4271  0.1424  0.0000  0.0000  0.0000  0.0000  0.0000 </r>
        <r>  0.0000  0.0109  0.0163  0.0054  0.0000  0.0000  0.0000  0.0000  0.0000 </r>
       </set>
       <set comment="band 27">
        <r>  0.0000  0.0063  0.0095  0.0032  0.0000  0.0000  0.0000  0.0000  0.0000 </r>
        <r>  0.0000  0.0003  0.0004  0.0001  0.0000  0.0000  0.0000  0.0000  0.0000 </r>
       </set>
       <set comment="band 28">
        <r>  0.0000  0.0474  0.0712  0.0237  0.0000  0.0000  0.0000  0.0000  0.0000 </r>
        <r>  0.0000  0.0001  0.0002  0.0001  0.0000  0.0000  0.0000  0.0000  0.0000 </r>
       </set>
       <set comment="band 29">
        <r>  0.1169  0.0548  0.0045  0.2000  0.0000  0.0000  0.0000  0.0000  0.0000 </r>
        <r>  0.0057  0.0073  0.0004  0.0075  0.0000  0.0000  0.0000  0.0000  0.0000 </r>
       </set>
       <set comment="band 30">
        <r>  0.0000  0.1262  0.1893  0.0631  0.0000  0.0000  0.0000  0.0000  0.0000 </r>
        <r>  0.0000  0.0292  0.0437  0.0146  0.0000  0.0000  0.0000  0.0000  0.0000 </r>
       </set>
       <set comment="band 31">
        <r>  0.1398  0.0727  0.0059  0.0617  0.0000  0.0000  0.0000  0.0000  0.0000 </r>
        <r>  0.0087  0.0154  0.0002  0.0403  0.0000  0.0000  0.0000  0.0000  0.0000 </r>
       </set>
       <set comment="band 32">
        <r>  0.0003  0.0069  0.0175  0.0125  0.0000  0.0000  0.0000  0.0000  0.0000 </r>
        <r>  0.0303  0.0986  0.1052  0.0138  0.0000  0.0000  0.0000  0.0000  0.0000 </r>
       </set>
      </set>
     </set>
    </set>
   </array>
  </projected>
 </calculation>
 <structure name="finalpos" >
  <crystal>
   <varray name="basis" >
    <v>       2.49002043      -0.00000000       1.43761458 </v>
    <v>       0.83000681       2.34761422       1.43761458 </v>
    <v>      -0.00000000      -0.00000000       2.87522817 </v>
   </varray>
   <i name="volume">     16.80745504 </i>
   <varray name="rec_basis" >
    <v>       0.40160313      -0.14198812       0.00000000 </v>
    <v>      -0.00000000       0.42596436       0.00000000 </v>
    <v>      -0.20080163      -0.14198817       0.34779848 </v>
   </varray>
  </crystal>
  <varray name="positions" >
   <v>      -0.00000000      -0.00000000       0.00000000 </v>
   <v>       0.50000000       0.50000000       0.50000000 </v>
  </varray>
 </structure>
</modeling>
