ITEM: TIMESTEP
0
ITEM: NUMBER OF ATOMS
408
ITEM: BOX BOUNDS pp pp pp
0 100
0 100
0 100
ITEM: ATOMS id type x y z ix iy iz mol 
407 1 38.6503 36.7931 35.5416 0 0 0 1 
363 2 37.3884 47.0979 37.0599 0 0 0 1 
367 1 37.0711 45.6627 35.9226 0 0 0 1 
376 3 36.5513 43.2878 34.2229 0 0 0 1 
377 2 35.868 42.2846 34.9432 0 0 0 1 
378 1 35.6682 42.63 35.9727 0 0 0 1 
379 1 36.4761 41.3635 34.975 0 0 0 1 
380 2 36.3262 41.5876 36.1989 0 0 0 1 
381 1 36.4541 42.5715 36.6833 0 0 0 1 
382 1 37.262 41.305 35.6857 0 0 0 1 
383 3 35.9834 40.5505 37.2379 0 0 0 1 
354 1 43.2374 49.5512 37.0521 0 0 0 1 
356 2 40.6426 49.1931 37.0353 0 0 0 1 
358 1 41.2507 48.2721 37.0671 0 0 0 1 
359 2 39.3751 48.377 37.0449 0 0 0 1 
361 1 39.9832 47.456 37.0767 0 0 0 1 
362 3 38.0716 48.1012 36.3396 0 0 0 1 
365 1 37.9964 46.1769 37.0917 0 0 0 1 
366 2 38.0637 46.0392 36.2259 0 0 0 1 
368 1 38.3833 45.531 37.1525 0 0 0 1 
369 3 39.0642 45.7741 35.1299 0 0 0 1 
370 2 39.1222 44.3797 34.9186 0 0 0 1 
371 1 38.1296 44.0032 34.6153 0 0 0 1 
372 1 39.4419 43.8714 35.8452 0 0 0 1 
373 2 37.8547 43.5637 34.9282 0 0 0 1 
374 1 37.655 43.9091 35.9576 0 0 0 1 
375 1 38.4628 42.6426 34.96 0 0 0 1 
404 3 39.8392 37.7216 36.9553 0 0 0 1 
405 2 38.7783 37.7769 36.026 0 0 0 1 
406 1 37.8425 38.0595 36.5393 0 0 0 1 
408 1 39.3004 38.5623 35.4518 0 0 0 1 
287 1 49.8135 62.3639 36.3675 0 0 0 1 
320 3 43.1902 61.6125 37.3243 0 0 0 1 
324 2 43.1823 59.5505 37.2106 0 0 0 1 
325 1 42.1896 59.174 36.9074 0 0 0 1 
327 3 44.1828 59.2854 36.1147 0 0 0 1 
328 2 44.2408 57.891 35.9034 0 0 0 1 
329 1 43.2482 57.5145 35.6001 0 0 0 1 
330 1 44.5604 57.3827 36.8299 0 0 0 1 
331 2 42.9733 57.0749 35.9129 0 0 0 1 
332 1 42.7735 57.4204 36.9424 0 0 0 1 
333 1 43.5814 56.1539 35.9447 0 0 0 1 
334 3 41.6699 56.7991 35.2076 0 0 0 1 
335 2 40.9866 55.7958 35.9279 0 0 0 1 
336 1 40.7868 56.1413 36.9574 0 0 0 1 
337 1 41.5946 54.8748 35.9597 0 0 0 1 
338 2 41.4448 55.0989 37.1837 0 0 0 1 
340 1 42.3806 54.8163 36.6704 0 0 0 1 
348 3 43.8388 52.6826 37.222 0 0 0 1 
349 2 43.8968 51.2882 37.0107 0 0 0 1 
350 1 42.9042 50.9117 36.7075 0 0 0 1 
352 2 42.6293 50.4722 37.0203 0 0 0 1 
355 3 41.3259 50.1964 36.315 0 0 0 1 
284 1 51.3395 60.005 37.3381 0 0 0 1 
285 3 51.8102 62.0259 36.7835 0 0 0 1 
286 2 50.7493 62.0813 35.8542 0 0 0 1 
288 1 50.6213 61.0974 35.3698 0 0 0 1 
291 1 50.1632 61.7943 34.1141 0 0 0 1 
290 1 49.3553 63.0608 35.1117 0 0 0 1 
293 2 49.5729 63.8706 32.6301 0 0 0 1 
294 1 48.6371 64.1532 33.1434 0 0 0 1 
295 1 49.445 62.8867 32.1458 0 0 0 1 
296 2 48.8976 64.9294 33.4641 0 0 0 1 
297 1 49.2284 64.4036 34.3769 0 0 0 1 
298 1 47.9161 64.5353 33.147 0 0 0 1 
299 3 48.7864 66.407 33.7411 0 0 0 1 
300 2 47.839 66.5889 34.7714 0 0 0 1 
301 1 48.1698 66.0631 35.6842 0 0 0 1 
302 1 46.8576 66.1949 34.4543 0 0 0 1 
303 2 46.5715 65.7728 34.781 0 0 0 1 
304 1 46.3717 66.1183 35.8104 0 0 0 1 
305 1 47.1796 64.8518 34.8128 0 0 0 1 
306 3 45.2681 65.497 34.0757 0 0 0 1 
307 2 44.5848 64.4937 34.796 0 0 0 1 
308 1 44.385 64.8392 35.8255 0 0 0 1 
309 1 45.1928 63.5727 34.8278 0 0 0 1 
310 2 45.043 63.7968 36.0517 0 0 0 1 
311 1 45.1709 64.7807 36.5361 0 0 0 1 
312 1 45.9788 63.5142 35.5385 0 0 0 1 
313 3 44.7002 62.7597 37.0907 0 0 0 1 
289 2 50.2911 62.7782 34.5985 0 0 0 1 
292 3 50.6339 63.8153 33.5595 0 0 0 1 
395 1 37.9035 37.2706 40.254 0 0 0 1 
396 1 39.2157 37.1388 41.4839 0 0 0 1 
397 3 39.8966 37.382 39.4613 0 0 0 1 
398 2 39.9546 35.9876 39.2501 0 0 0 1 
399 1 38.962 35.6111 38.9468 0 0 0 1 
400 1 40.2743 35.4793 40.1766 0 0 0 1 
401 2 39.4965 36.6845 37.9943 0 0 0 1 
402 1 38.5606 36.9671 38.5076 0 0 0 1 
403 1 39.3685 35.7006 37.5099 0 0 0 1 
364 1 37.1886 47.4434 38.0894 0 0 0 1 
384 2 37.0444 40.4952 38.1673 0 0 0 1 
385 1 37.1723 41.4791 38.6516 0 0 0 1 
390 3 37.1598 38.7612 40.462 0 0 0 1 
182 1 49.7444 48.2979 47.1716 0 0 0 1 
186 1 49.0234 48.68 47.1753 0 0 0 1 
202 2 49.5038 49.8046 43.4343 0 0 0 1 
203 1 48.5112 49.4282 43.131 0 0 0 1 
204 1 49.8234 49.2964 44.3609 0 0 0 1 
207 1 48.9177 49.5177 41.6942 0 0 0 1 
357 1 40.4428 49.5385 38.0648 0 0 0 1 
360 1 39.1753 48.7225 38.0743 0 0 0 1 
386 1 37.9802 40.2126 37.654 0 0 0 1 
387 2 37.5026 39.7983 39.423 0 0 0 1 
388 1 37.6305 40.7821 39.9074 0 0 0 1 
389 1 38.4384 39.5157 38.9097 0 0 0 1 
391 2 38.2208 38.7058 41.3913 0 0 0 1 
392 1 38.3487 39.6897 41.8757 0 0 0 1 
393 1 39.1566 38.4232 40.8781 0 0 0 1 
394 2 38.8961 37.6471 40.5573 0 0 0 1 
174 2 51.8566 46.2259 49.8824 0 0 0 1 
176 1 51.7286 45.242 49.3981 0 0 0 1 
177 2 51.3984 46.9229 48.6267 0 0 0 1 
178 1 50.4626 47.2055 49.14 0 0 0 1 
179 1 51.2704 45.939 48.1423 0 0 0 1 
180 3 51.7411 47.96 47.5877 0 0 0 1 
181 2 50.6802 48.0153 46.6584 0 0 0 1 
183 1 50.5522 47.0314 46.174 0 0 0 1 
184 2 50.0049 49.074 47.4924 0 0 0 1 
185 1 50.3357 48.5482 48.4051 0 0 0 1 
187 3 49.8937 50.5517 47.7693 0 0 0 1 
188 2 48.9463 50.7335 48.7996 0 0 0 1 
189 1 49.2771 50.2077 49.7124 0 0 0 1 
190 1 47.9649 50.3395 48.4826 0 0 0 1 
191 2 48.4881 51.4305 47.5439 0 0 0 1 
192 1 47.5523 51.7131 48.0572 0 0 0 1 
193 1 48.3602 50.4466 47.0595 0 0 0 1 
194 3 48.8309 52.4676 46.5049 0 0 0 1 
195 2 47.7699 52.5229 45.5756 0 0 0 1 
196 1 46.8341 52.8055 46.0888 0 0 0 1 
197 1 47.642 51.539 45.0912 0 0 0 1 
198 2 48.4453 51.4642 44.7416 0 0 0 1 
199 1 47.4526 51.0877 44.4383 0 0 0 1 
200 1 48.7649 50.9559 45.6682 0 0 0 1 
201 3 49.4458 51.199 43.6456 0 0 0 1 
205 2 49.0456 50.5016 42.1786 0 0 0 1 
206 1 48.1098 50.7842 42.6918 0 0 0 1 
208 3 49.3884 51.5387 41.1396 0 0 0 1 
209 2 48.3275 51.594 40.2102 0 0 0 1 
210 1 47.3916 51.8766 40.7235 0 0 0 1 
211 1 48.1995 50.6101 39.7258 0 0 0 1 
212 2 49.5949 52.41 40.2007 0 0 0 1 
213 1 48.9869 53.3311 40.1689 0 0 0 1 
214 1 49.7947 52.0646 39.1712 0 0 0 1 
221 1 49.9249 54.3539 40.7026 0 0 0 1 
223 2 49.8478 56.4074 42.3269 0 0 0 1 
225 1 48.8664 56.0134 42.0098 0 0 0 1 
226 2 49.3896 57.1043 41.0712 0 0 0 1 
227 1 48.4538 57.3869 41.5845 0 0 0 1 
228 1 49.2617 56.1205 40.5868 0 0 0 1 
229 3 49.7324 58.1414 40.0322 0 0 0 1 
230 2 48.6714 58.1968 39.1029 0 0 0 1 
231 1 47.7356 58.4793 39.6161 0 0 0 1 
232 1 48.5435 57.2129 38.6185 0 0 0 1 
233 2 47.9961 59.2555 39.9369 0 0 0 1 
234 1 48.3269 58.7297 40.8496 0 0 0 1 
235 1 47.0147 58.8615 39.6198 0 0 0 1 
236 3 47.885 60.7332 40.2138 0 0 0 1 
237 2 46.9375 60.915 41.2441 0 0 0 1 
238 1 47.2683 60.3892 42.1569 0 0 0 1 
239 1 45.9561 60.521 40.927 0 0 0 1 
240 2 46.2622 61.9737 42.0781 0 0 0 1 
241 1 46.593 61.4479 42.9909 0 0 0 1 
242 1 45.2808 61.5797 41.761 0 0 0 1 
276 1 49.8745 61.5749 40.0823 0 0 0 1 
316 1 46.697 62.4218 37.5068 0 0 0 1 
317 2 44.4937 61.8883 38.0296 0 0 0 1 
318 1 44.2939 62.2338 39.0591 0 0 0 1 
319 1 45.1017 60.9673 38.0614 0 0 0 1 
321 2 42.5069 60.6092 38.0446 0 0 0 1 
322 1 42.3071 60.9547 39.0741 0 0 0 1 
323 1 43.115 59.6882 38.0764 0 0 0 1 
326 1 43.5019 59.0422 38.1372 0 0 0 1 
339 1 41.5727 56.0828 37.6681 0 0 0 1 
341 3 41.102 54.0618 38.2227 0 0 0 1 
342 2 42.1629 54.0065 39.152 0 0 0 1 
343 1 42.2909 54.9904 39.6364 0 0 0 1 
344 1 43.0988 53.7239 38.6387 0 0 0 1 
345 2 42.8383 52.9477 38.318 0 0 0 1 
346 1 41.8456 52.5713 38.0147 0 0 0 1 
347 1 43.1579 52.4395 39.2446 0 0 0 1 
351 1 44.2164 50.78 37.9373 0 0 0 1 
353 1 42.4295 50.8176 38.0498 0 0 0 1 
215 3 50.8984 52.6859 40.906 0 0 0 1 
216 2 51.5817 53.6892 40.1856 0 0 0 1 
217 1 50.9736 54.6102 40.1538 0 0 0 1 
218 1 51.7815 53.3437 39.1562 0 0 0 1 
219 2 50.9064 54.7479 41.0197 0 0 0 1 
220 1 51.2372 54.2221 41.9324 0 0 0 1 
222 3 50.7952 56.2256 41.2966 0 0 0 1 
224 1 50.1786 55.8816 43.2397 0 0 0 1 
275 2 50.8671 61.9514 40.3855 0 0 0 1 
277 1 51.1867 61.4432 41.3121 0 0 0 1 
278 3 51.8677 61.6863 39.2896 0 0 0 1 
279 2 51.9257 60.2919 39.0783 0 0 0 1 
280 1 50.933 59.9154 38.775 0 0 0 1 
281 1 52.2453 59.7836 40.0049 0 0 0 1 
282 2 51.4675 60.9888 37.8225 0 0 0 1 
283 1 50.5317 61.2714 38.3358 0 0 0 1 
243 3 46.1511 63.4514 42.355 0 0 0 1 
244 2 45.2037 63.6333 43.3854 0 0 0 1 
245 1 45.5344 63.1075 44.2982 0 0 0 1 
246 1 44.2222 63.2392 43.0683 0 0 0 1 
247 2 44.7455 64.3302 42.1297 0 0 0 1 
248 1 43.8097 64.6128 42.6429 0 0 0 1 
249 1 44.6175 63.3463 41.6453 0 0 0 1 
250 3 45.0882 65.3673 41.0907 0 0 0 1 
251 2 44.0273 65.4226 40.1613 0 0 0 1 
252 1 43.0915 65.7052 40.6746 0 0 0 1 
253 1 43.8993 64.4387 39.677 0 0 0 1 
254 2 45.2948 66.2387 40.1518 0 0 0 1 
255 1 44.6867 67.1597 40.12 0 0 0 1 
256 1 45.4946 65.8932 39.1223 0 0 0 1 
257 3 46.5982 66.5145 40.8571 0 0 0 1 
258 2 47.2815 67.5178 40.1368 0 0 0 1 
259 1 46.6735 68.4388 40.105 0 0 0 1 
260 1 47.4813 67.1723 39.1073 0 0 0 1 
261 2 47.7397 66.8208 41.3925 0 0 0 1 
262 1 47.8677 67.8047 41.8769 0 0 0 1 
263 1 48.6755 66.5382 40.8792 0 0 0 1 
264 3 47.397 65.7837 42.4315 0 0 0 1 
265 2 48.4579 65.7284 43.3608 0 0 0 1 
266 1 48.5859 66.7123 43.8452 0 0 0 1 
267 1 49.3937 65.4458 42.8476 0 0 0 1 
268 2 49.1332 64.6697 42.5268 0 0 0 1 
269 1 48.1406 64.2932 42.2235 0 0 0 1 
270 1 49.4528 64.1614 43.4534 0 0 0 1 
273 1 49.1992 62.6337 40.9163 0 0 0 1 
314 2 45.7612 62.7044 38.0201 0 0 0 1 
315 1 45.8891 63.6883 38.5045 0 0 0 1 
271 3 50.1338 64.4045 41.4308 0 0 0 1 
272 2 50.1918 63.0101 41.2196 0 0 0 1 
274 1 50.5114 62.5019 42.1461 0 0 0 1 
139 2 48.8772 36.6676 59.6038 0 0 0 1 
140 1 47.8846 36.2911 59.3005 0 0 0 1 
141 1 49.1968 36.1593 60.5304 0 0 0 1 
142 2 48.419 37.3645 58.3481 0 0 0 1 
144 1 48.2911 36.3806 57.8637 0 0 0 1 
148 1 47.5729 37.473 55.8953 0 0 0 1 
126 1 49.4618 41.7635 62.2338 0 0 0 1 
128 2 49.1301 40.6649 61.7301 0 0 0 1 
130 1 49.7381 39.7439 61.7619 0 0 0 1 
131 3 47.8266 40.3891 61.0248 0 0 0 1 
132 2 47.1433 39.3858 61.7451 0 0 0 1 
134 1 47.7514 38.4648 61.7769 0 0 0 1 
135 2 47.8187 38.3271 60.9111 0 0 0 1 
136 1 46.826 37.9506 60.6078 0 0 0 1 
137 1 48.1383 37.8188 61.8377 0 0 0 1 
138 3 48.8192 38.0619 59.8151 0 0 0 1 
143 1 47.4832 37.6471 58.8613 0 0 0 1 
145 3 48.7618 38.4016 57.3091 0 0 0 1 
146 2 47.7009 38.4569 56.3797 0 0 0 1 
147 1 46.765 38.7395 56.893 0 0 0 1 
149 2 47.2427 39.1539 55.124 0 0 0 1 
150 1 46.3069 39.4364 55.6373 0 0 0 1 
151 1 47.1147 38.17 54.6396 0 0 0 1 
152 3 47.5854 40.1909 54.085 0 0 0 1 
153 2 46.5245 40.2463 53.1557 0 0 0 1 
154 1 45.5887 40.5289 53.6689 0 0 0 1 
155 1 46.3965 39.2624 52.6713 0 0 0 1 
156 2 47.792 41.0623 53.1461 0 0 0 1 
157 1 47.1839 41.9833 53.1143 0 0 0 1 
158 1 47.9918 40.7169 52.1166 0 0 0 1 
159 3 49.0954 41.3381 53.8514 0 0 0 1 
160 2 49.7787 42.3414 53.1311 0 0 0 1 
161 1 49.1707 43.2624 53.0993 0 0 0 1 
162 1 49.9785 41.996 52.1016 0 0 0 1 
125 2 50.3976 41.4809 61.7205 0 0 0 1 
127 1 50.2696 40.4971 61.2361 0 0 0 1 
163 2 51.0462 43.1575 53.1215 0 0 0 1 
164 1 50.4381 44.0785 53.0897 0 0 0 1 
165 1 51.246 42.812 52.0921 0 0 0 1 
166 3 52.3497 43.4333 53.8268 0 0 0 1 
167 2 53.033 44.4366 53.1065 0 0 0 1 
168 1 52.4249 45.3576 53.0747 0 0 0 1 
169 1 53.2327 44.0911 52.077 0 0 0 1 
170 2 52.5748 45.1335 51.8508 0 0 0 1 
171 1 51.639 45.4161 52.364 0 0 0 1 
172 1 52.4468 44.1496 51.3664 0 0 0 1 
173 3 52.9175 46.1706 50.8118 0 0 0 1 
175 1 50.9208 46.5085 50.3957 0 0 0 1 
84 1 61.1765 37.2084 68.899 0 0 0 1 
85 1 62.4887 37.0766 70.1289 0 0 0 1 
88 1 61.5829 37.2979 67.4622 0 0 0 1 
129 1 48.9303 41.0104 62.7595 0 0 0 1 
133 1 46.9436 39.7312 62.7745 0 0 0 1 
29 1 59.0345 49.5636 63.8199 0 0 0 1 
30 2 58.8846 49.7877 65.0438 0 0 0 1 
32 1 59.8204 49.5051 64.5305 0 0 0 1 
33 3 58.5419 48.7506 66.0828 0 0 0 1 
34 2 59.6028 48.6953 67.0121 0 0 0 1 
35 1 59.7308 49.6791 67.4965 0 0 0 1 
36 1 60.5386 48.4127 66.4988 0 0 0 1 
37 2 60.061 47.9983 68.2679 0 0 0 1 
38 1 60.1889 48.9822 68.7522 0 0 0 1 
39 1 60.9968 47.7157 67.7546 0 0 0 1 
40 3 59.7182 46.9612 69.3069 0 0 0 1 
41 2 60.7792 46.9059 70.2362 0 0 0 1 
42 1 60.9071 47.8898 70.7206 0 0 0 1 
43 1 61.715 46.6233 69.7229 0 0 0 1 
44 2 59.5117 46.0899 70.2458 0 0 0 1 
45 1 59.3119 46.4353 71.2752 0 0 0 1 
46 1 60.1197 45.1688 70.2776 0 0 0 1 
47 3 58.2082 45.814 69.5404 0 0 0 1 
48 2 57.5249 44.8107 70.2608 0 0 0 1 
49 1 57.3251 45.1562 71.2902 0 0 0 1 
50 1 58.133 43.8897 70.2926 0 0 0 1 
51 2 56.2574 43.9947 70.2703 0 0 0 1 
52 1 56.0576 44.3402 71.2998 0 0 0 1 
53 1 56.8655 43.0737 70.3021 0 0 0 1 
54 3 54.954 43.7189 69.565 0 0 0 1 
55 2 54.2707 42.7156 70.2853 0 0 0 1 
56 1 54.0709 43.0611 71.3148 0 0 0 1 
57 1 54.8787 41.7946 70.3171 0 0 0 1 
58 2 54.7289 42.0187 71.5411 0 0 0 1 
59 1 54.8568 43.0026 72.0255 0 0 0 1 
60 1 55.6647 41.7361 71.0278 0 0 0 1 
61 3 54.3861 40.9816 72.5801 0 0 0 1 
62 2 55.4471 40.9262 73.5094 0 0 0 1 
63 1 55.575 41.9101 73.9938 0 0 0 1 
64 1 56.3829 40.6437 72.9961 0 0 0 1 
65 2 56.1224 39.8675 72.6754 0 0 0 1 
66 1 55.1298 39.491 72.3721 0 0 0 1 
67 1 56.442 39.3593 73.602 0 0 0 1 
68 3 57.1229 39.6024 71.5794 0 0 0 1 
69 2 57.181 38.208 71.3681 0 0 0 1 
70 1 56.1883 37.8315 71.0649 0 0 0 1 
71 1 57.5006 37.6997 72.2947 0 0 0 1 
72 2 58.4484 39.024 71.3586 0 0 0 1 
73 1 57.8404 39.9451 71.3268 0 0 0 1 
74 1 58.6482 38.6786 70.3291 0 0 0 1 
75 3 59.7519 39.2999 72.0639 0 0 0 1 
76 2 60.4352 40.3031 71.3436 0 0 0 1 
77 1 59.8271 41.2242 71.3118 0 0 0 1 
78 1 60.635 39.9577 70.3141 0 0 0 1 
79 2 61.1105 39.2444 70.5095 0 0 0 1 
80 1 60.1179 38.8679 70.2063 0 0 0 1 
81 1 61.4301 38.7362 71.4361 0 0 0 1 
82 3 62.1111 38.9793 69.4136 0 0 0 1 
83 2 62.1691 37.5849 69.2023 0 0 0 1 
86 2 61.7109 38.2818 67.9465 0 0 0 1 
87 1 60.7751 38.5644 68.4598 0 0 0 1 
89 3 62.0536 39.3189 66.9075 0 0 0 1 
90 2 60.9927 39.3743 65.9782 0 0 0 1 
91 1 60.0569 39.6568 66.4915 0 0 0 1 
92 1 60.8647 38.3904 65.4938 0 0 0 1 
93 2 60.3174 40.433 66.8122 0 0 0 1 
94 1 60.6482 39.9072 67.725 0 0 0 1 
95 1 59.3359 40.039 66.4951 0 0 0 1 
96 3 60.2062 41.9107 67.0891 0 0 0 1 
97 2 59.2588 42.0925 68.1195 0 0 0 1 
98 1 59.5896 41.5667 69.0323 0 0 0 1 
99 1 58.2774 41.6985 67.8024 0 0 0 1 
100 2 57.9913 41.2765 68.1291 0 0 0 1 
101 1 57.7915 41.6219 69.1585 0 0 0 1 
102 1 58.5994 40.3554 68.1609 0 0 0 1 
103 3 56.6879 41.0006 67.4237 0 0 0 1 
104 2 56.0046 39.9974 68.1441 0 0 0 1 
105 1 55.8048 40.3428 69.1735 0 0 0 1 
106 1 56.6126 39.0763 68.1759 0 0 0 1 
107 2 55.5464 40.6943 66.8883 0 0 0 1 
108 1 54.6106 40.9769 67.4016 0 0 0 1 
109 1 55.4184 39.7104 66.4039 0 0 0 1 
110 3 55.8891 41.7314 65.8493 0 0 0 1 
111 2 54.8282 41.7867 64.92 0 0 0 1 
112 1 53.8924 42.0693 65.4333 0 0 0 1 
113 1 54.7002 40.8028 64.4356 0 0 0 1 
114 2 53.5607 40.9707 64.9296 0 0 0 1 
115 1 53.3609 41.3161 65.959 0 0 0 1 
116 1 54.1688 40.0497 64.9614 0 0 0 1 
117 3 52.2572 40.6949 64.2243 0 0 0 1 
118 2 51.574 39.6916 64.9446 0 0 0 1 
119 1 51.3742 40.037 65.974 0 0 0 1 
120 1 52.182 38.7706 64.9764 0 0 0 1 
121 2 51.1158 40.3885 63.6888 0 0 0 1 
122 1 50.18 40.6711 64.2021 0 0 0 1 
123 1 50.9878 39.4046 63.2045 0 0 0 1 
124 3 51.4585 41.4256 62.6498 0 0 0 1 
19 3 62.3639 53.583 63.0431 0 0 0 1 
20 2 61.6807 52.5798 63.7635 0 0 0 1 
21 1 61.4809 52.9252 64.7929 0 0 0 1 
22 1 62.2887 51.6587 63.7953 0 0 0 1 
23 2 60.4132 51.7637 63.773 0 0 0 1 
24 1 60.2134 52.1092 64.8025 0 0 0 1 
25 1 61.0212 50.8427 63.8048 0 0 0 1 
26 3 59.1097 51.4879 63.0677 0 0 0 1 
27 2 58.4264 50.4846 63.788 0 0 0 1 
28 1 58.2266 50.8301 64.8175 0 0 0 1 
31 1 59.0126 50.7716 65.5282 0 0 0 1 
1 2 69.9086 56.5974 65.3258 0 0 0 1 
2 1 70.8652 56.9786 65.6165 0 0 0 1 
3 1 69.1829 56.7786 66.1379 0 0 0 1 
4 1 69.9907 55.5121 65.1403 0 0 0 1 
5 3 69.4504 57.2943 64.0701 0 0 0 1 
6 2 68.1891 56.77 63.7143 0 0 0 1 
7 1 67.4634 56.9512 64.5264 0 0 0 1 
8 1 68.2712 55.6848 63.5287 0 0 0 1 
9 2 66.9216 55.954 63.7239 0 0 0 1 
10 1 66.7219 56.2995 64.7533 0 0 0 1 
11 1 67.5297 55.033 63.7557 0 0 0 1 
12 3 65.6182 55.6782 63.0186 0 0 0 1 
13 2 64.9349 54.6749 63.7389 0 0 0 1 
14 1 64.7351 55.0203 64.7684 0 0 0 1 
15 1 65.543 53.7539 63.7707 0 0 0 1 
16 2 63.6674 53.8589 63.7485 0 0 0 1 
17 1 63.4676 54.2043 64.7779 0 0 0 1 
18 1 64.2755 52.9378 63.7803 0 0 0 1 
ITEM: TIMESTEP
50
ITEM: NUMBER OF ATOMS
408
ITEM: BOX BOUNDS pp pp pp
-0.0622595 100.062
-0.0622595 100.062
-0.0622595 100.062
ITEM: ATOMS id type x y z ix iy iz mol 
407 1 38.7875 37.2348 35.108 0 0 0 1 
363 2 37.5643 47.708 36.2171 0 0 0 1 
367 1 36.7571 45.5646 36.2464 0 0 0 1 
376 3 36.6796 43.0778 34.8061 0 0 0 1 
377 2 35.9065 41.9714 35.2089 0 0 0 1 
378 1 34.9653 42.4787 34.9231 0 0 0 1 
379 1 35.8732 41.4977 34.2085 0 0 0 1 
380 2 36.6784 41.6846 36.5537 0 0 0 1 
381 1 36.5471 42.5727 37.2138 0 0 0 1 
382 1 37.5814 41.1839 36.1384 0 0 0 1 
383 3 36.3281 40.5555 37.3672 0 0 0 1 
354 1 43.1192 49.2939 35.9552 0 0 0 1 
356 2 40.8631 48.9955 37.6082 0 0 0 1 
358 1 41.5877 48.1708 37.5144 0 0 0 1 
359 2 39.5971 48.242 37.5967 0 0 0 1 
361 1 40.096 47.3228 37.9516 0 0 0 1 
362 3 38.9475 48.0138 36.3352 0 0 0 1 
365 1 36.995 47.955 37.1462 0 0 0 1 
366 2 37.6644 46.2028 36.3021 0 0 0 1 
368 1 38.0911 45.7241 37.2213 0 0 0 1 
369 3 38.5124 45.7615 35.2794 0 0 0 1 
370 2 38.7 44.5327 34.5302 0 0 0 1 
371 1 37.6032 44.3498 34.2789 0 0 0 1 
372 1 38.4922 44.9448 33.5203 0 0 0 1 
373 2 38.1773 43.1257 34.9315 0 0 0 1 
374 1 38.4888 42.8973 35.9768 0 0 0 1 
375 1 38.6416 42.2118 34.4944 0 0 0 1 
404 3 39.5852 37.416 36.9361 0 0 0 1 
405 2 38.9775 38.03 35.8495 0 0 0 1 
406 1 38.0416 38.4821 36.2215 0 0 0 1 
408 1 39.7535 38.7645 35.5573 0 0 0 1 
287 1 49.676 62.9519 35.9337 0 0 0 1 
320 3 43.6472 61.1089 37.831 0 0 0 1 
324 2 42.6608 59.3336 37.3336 0 0 0 1 
325 1 41.924 58.5089 37.2923 0 0 0 1 
327 3 43.5919 59.2833 36.2889 0 0 0 1 
328 2 43.948 58.1729 35.4773 0 0 0 1 
329 1 42.8717 58.0398 35.1255 0 0 0 1 
330 1 43.769 58.7147 34.5257 0 0 0 1 
331 2 43.3812 56.7695 35.7247 0 0 0 1 
332 1 43.6936 56.5087 36.7568 0 0 0 1 
333 1 43.7688 55.8451 35.2334 0 0 0 1 
334 3 41.9095 56.9033 35.5262 0 0 0 1 
335 2 41.1772 55.8463 36.1058 0 0 0 1 
336 1 40.3559 56.471 35.7416 0 0 0 1 
337 1 41.0802 55.4586 35.0842 0 0 0 1 
338 2 41.9182 55.544 37.3998 0 0 0 1 
340 1 42.9783 55.3032 37.2364 0 0 0 1 
348 3 43.3239 52.4585 37.4573 0 0 0 1 
349 2 43.4185 51.4695 36.4128 0 0 0 1 
350 1 42.357 51.7919 36.1891 0 0 0 1 
352 2 42.7038 50.0571 36.6511 0 0 0 1 
355 3 41.2228 49.98 36.7345 0 0 0 1 
284 1 52.4121 60.3274 37.2654 0 0 0 1 
285 3 51.3 61.8038 36.2734 0 0 0 1 
286 2 50.0448 61.9386 35.6955 0 0 0 1 
288 1 49.3188 61.1618 35.9876 0 0 0 1 
291 1 51.2268 61.5499 34.3649 0 0 0 1 
290 1 49.4298 61.8 33.5828 0 0 0 1 
293 2 50.2832 64.5236 33.4212 0 0 0 1 
294 1 50.7862 65.0977 32.6131 0 0 0 1 
295 1 50.4374 65.2524 34.2359 0 0 0 1 
296 2 48.7722 64.695 33.5652 0 0 0 1 
297 1 48.4681 64.3637 34.5809 0 0 0 1 
298 1 48.1474 64.0284 32.9446 0 0 0 1 
299 3 48.3493 66.0255 33.2951 0 0 0 1 
300 2 47.7856 66.8902 34.2035 0 0 0 1 
301 1 47.7152 67.6503 33.3909 0 0 0 1 
302 1 46.7559 66.7881 33.7042 0 0 0 1 
303 2 46.6618 66.3262 35.0996 0 0 0 1 
304 1 46.0198 66.951 35.7725 0 0 0 1 
305 1 47.0445 65.6614 35.9071 0 0 0 1 
306 3 45.791 65.5237 34.2226 0 0 0 1 
307 2 44.9496 64.6551 34.8774 0 0 0 1 
308 1 44.115 65.3204 34.6278 0 0 0 1 
309 1 44.5287 64.3943 33.8978 0 0 0 1 
310 2 45.3901 63.8609 36.1279 0 0 0 1 
311 1 45.6178 64.491 37.0053 0 0 0 1 
312 1 46.1615 63.0952 35.9387 0 0 0 1 
313 3 44.4873 63.0154 36.8481 0 0 0 1 
289 2 50.2777 62.1048 34.2277 0 0 0 1 
292 3 50.6067 63.4882 34.2514 0 0 0 1 
395 1 37.9927 36.567 40.1912 0 0 0 1 
396 1 39.0711 37.045 41.6399 0 0 0 1 
397 3 39.6991 37.4137 39.9435 0 0 0 1 
398 2 40.1508 36.2288 39.1091 0 0 0 1 
399 1 41.1845 36.1932 38.6976 0 0 0 1 
400 1 41.1173 36.7413 39.1879 0 0 0 1 
401 2 39.2283 36.3884 37.864 0 0 0 1 
402 1 38.28 36.54 38.4051 0 0 0 1 
403 1 39.2889 35.4268 37.3238 0 0 0 1 
364 1 37.2137 47.8193 35.1774 0 0 0 1 
384 2 37.3557 40.9233 38.1781 0 0 0 1 
385 1 37.156 41.8695 38.7105 0 0 0 1 
390 3 37.2394 38.9714 39.7487 0 0 0 1 
182 1 51.6546 48.5668 46.4147 0 0 0 1 
186 1 48.9785 48.4672 47.3258 0 0 0 1 
202 2 49.718 49.9402 43.363 0 0 0 1 
203 1 50.7325 49.6681 42.9587 0 0 0 1 
204 1 50.6858 50.3249 43.7264 0 0 0 1 
207 1 49.1437 49.3461 41.2982 0 0 0 1 
357 1 40.8768 49.4537 38.6103 0 0 0 1 
360 1 39.1048 48.8915 38.353 0 0 0 1 
386 1 38.257 41.074 37.562 0 0 0 1 
387 2 37.9606 40.1455 39.2617 0 0 0 1 
388 1 38.077 40.9955 39.9699 0 0 0 1 
389 1 38.7801 39.8823 38.5735 0 0 0 1 
391 2 37.5641 38.4776 41.0319 0 0 0 1 
392 1 36.7925 37.9803 41.6594 0 0 0 1 
393 1 38.4089 39.0431 41.4796 0 0 0 1 
394 2 38.5133 37.385 40.7355 0 0 0 1 
174 2 51.4087 45.937 49.9377 0 0 0 1 
176 1 50.7066 45.1021 50.0999 0 0 0 1 
177 2 51.6292 46.1142 48.4996 0 0 0 1 
178 1 50.7349 45.7102 47.9873 0 0 0 1 
179 1 52.5557 45.5113 48.3855 0 0 0 1 
180 3 51.8384 47.5425 48.4223 0 0 0 1 
181 2 51.3802 48.4631 47.4996 0 0 0 1 
183 1 51.748 49.3544 48.0471 0 0 0 1 
184 2 49.9128 48.8448 47.7774 0 0 0 1 
185 1 49.8815 48.7724 48.8962 0 0 0 1 
187 3 49.7002 50.2964 47.569 0 0 0 1 
188 2 49.2159 51.1248 48.6531 0 0 0 1 
189 1 50.2289 51.52 48.7464 0 0 0 1 
190 1 49.7114 52.0188 49.1228 0 0 0 1 
191 2 48.0731 51.6799 47.8675 0 0 0 1 
192 1 47.5188 52.2989 48.6003 0 0 0 1 
193 1 47.4335 50.8283 47.5608 0 0 0 1 
194 3 48.3384 52.613 46.829 0 0 0 1 
195 2 48.3701 52.4992 45.4689 0 0 0 1 
196 1 49.4521 52.2645 45.487 0 0 0 1 
197 1 48.26 53.3058 44.695 0 0 0 1 
198 2 48.1115 51.1124 44.8418 0 0 0 1 
199 1 47.2665 50.5928 44.3469 0 0 0 1 
200 1 48.5894 50.5656 45.6858 0 0 0 1 
201 3 49.1598 51.1654 43.8319 0 0 0 1 
205 2 49.0149 50.1421 42.0483 0 0 0 1 
206 1 47.9274 50.3006 42.1484 0 0 0 1 
208 3 49.359 51.1519 41.1141 0 0 0 1 
209 2 48.4318 51.6599 40.1787 0 0 0 1 
210 1 47.7481 52.3867 40.655 0 0 0 1 
211 1 47.6321 51.0241 39.7516 0 0 0 1 
212 2 49.5054 52.4422 39.4674 0 0 0 1 
213 1 49.1263 53.4168 39.1167 0 0 0 1 
214 1 49.6604 51.8098 38.5745 0 0 0 1 
221 1 49.7882 54.5344 42.2082 0 0 0 1 
223 2 50.2258 56.8556 41.9535 0 0 0 1 
225 1 50.7431 57.8089 42.2533 0 0 0 1 
226 2 49.0985 56.9447 40.9532 0 0 0 1 
227 1 48.0597 57.0477 41.3073 0 0 0 1 
228 1 49.2517 55.9353 40.5206 0 0 0 1 
229 3 49.3406 57.9099 39.9514 0 0 0 1 
230 2 48.9381 59.2273 39.5984 0 0 0 1 
231 1 49.1083 59.68 38.5853 0 0 0 1 
232 1 49.4829 59.6871 40.4456 0 0 0 1 
233 2 47.4185 59.4374 39.7573 0 0 0 1 
234 1 47.1129 58.6918 40.5188 0 0 0 1 
235 1 46.7819 59.258 38.8687 0 0 0 1 
236 3 47.1494 60.6339 40.4827 0 0 0 1 
237 2 46.7679 60.5077 41.7352 0 0 0 1 
238 1 47.6577 60.2818 42.3425 0 0 0 1 
239 1 46.0286 59.7068 41.8903 0 0 0 1 
240 2 45.9484 61.5222 42.3537 0 0 0 1 
241 1 46.2958 61.4961 43.4033 0 0 0 1 
242 1 44.8685 61.3502 42.2125 0 0 0 1 
276 1 50.4282 61.0538 40.07 0 0 0 1 
316 1 46.2298 61.9017 37.2026 0 0 0 1 
317 2 44.5899 61.7952 38.5275 0 0 0 1 
318 1 44.1245 62.1731 39.4518 0 0 0 1 
319 1 45.1304 60.9756 39.0239 0 0 0 1 
321 2 42.3102 60.7723 37.6235 0 0 0 1 
322 1 42.2866 60.6137 36.5413 0 0 0 1 
323 1 41.3025 61.2141 37.552 0 0 0 1 
326 1 43.2346 58.9213 38.1965 0 0 0 1 
339 1 41.582 56.3118 38.1248 0 0 0 1 
341 3 41.301 54.3177 37.8724 0 0 0 1 
342 2 41.8787 53.8094 39.0592 0 0 0 1 
343 1 41.2347 53.6281 39.9417 0 0 0 1 
344 1 42.9809 53.9369 39.0763 0 0 0 1 
345 2 42.4303 52.4879 38.589 0 0 0 1 
346 1 41.6929 51.7439 38.2317 0 0 0 1 
347 1 42.8143 51.6792 39.2312 0 0 0 1 
351 1 43.4674 52.1528 35.5311 0 0 0 1 
353 1 43.0394 49.694 37.6505 0 0 0 1 
215 3 50.9052 52.7873 39.7545 0 0 0 1 
216 2 51.4745 53.7463 40.6537 0 0 0 1 
217 1 52.1263 54.635 40.562 0 0 0 1 
218 1 51.9503 53.0162 41.3254 0 0 0 1 
219 2 50.8662 54.535 41.8677 0 0 0 1 
220 1 51.6477 54.5088 42.652 0 0 0 1 
222 3 51.118 55.8458 41.3766 0 0 0 1 
224 1 51.0332 57.4232 41.485 0 0 0 1 
275 2 51.0177 61.7603 40.6766 0 0 0 1 
277 1 51.7087 61.3502 41.441 0 0 0 1 
278 3 51.5557 62.468 39.5887 0 0 0 1 
279 2 52.3792 61.5409 38.7942 0 0 0 1 
280 1 53.4732 61.3047 38.7423 0 0 0 1 
281 1 53.1939 62.2692 38.9076 0 0 0 1 
282 2 51.6965 61.1469 37.4864 0 0 0 1 
283 1 50.714 60.9393 37.9341 0 0 0 1 
243 3 46.1296 62.814 41.8558 0 0 0 1 
244 2 45.5903 63.5985 42.9619 0 0 0 1 
245 1 46.5649 63.8963 43.3563 0 0 0 1 
246 1 45.8917 64.4117 43.6621 0 0 0 1 
247 2 44.4759 64.258 42.2074 0 0 0 1 
248 1 43.8196 64.8754 42.8438 0 0 0 1 
249 1 43.8654 63.4724 41.73 0 0 0 1 
250 3 44.6459 65.2263 41.2108 0 0 0 1 
251 2 43.835 65.5421 40.1264 0 0 0 1 
252 1 42.8774 66.0557 40.3309 0 0 0 1 
253 1 43.6531 64.7489 39.3755 0 0 0 1 
254 2 45.0347 66.4083 39.8673 0 0 0 1 
255 1 44.9174 67.4927 39.806 0 0 0 1 
256 1 45.5938 66.2938 38.9353 0 0 0 1 
257 3 46.3064 66.6556 40.5297 0 0 0 1 
258 2 47.2402 67.5869 39.9947 0 0 0 1 
259 1 46.8444 68.5337 39.5798 0 0 0 1 
260 1 47.6096 67.3797 38.9728 0 0 0 1 
261 2 48.172 67.3915 41.1757 0 0 0 1 
262 1 48.11 68.365 41.6973 0 0 0 1 
263 1 49.241 67.4911 40.9361 0 0 0 1 
264 3 48.1388 66.4677 42.2875 0 0 0 1 
265 2 48.9888 65.6723 43.2098 0 0 0 1 
266 1 48.303 65.0101 43.7612 0 0 0 1 
267 1 49.891 65.9902 43.783 0 0 0 1 
268 2 49.5943 64.3802 42.7 0 0 0 1 
269 1 48.7568 63.6615 42.7646 0 0 0 1 
270 1 50.2483 64.113 43.5499 0 0 0 1 
273 1 49.1368 62.4173 40.5421 0 0 0 1 
314 2 45.54 62.602 37.7081 0 0 0 1 
315 1 46.2135 63.3762 38.1274 0 0 0 1 
271 3 50.2433 63.8115 41.5453 0 0 0 1 
272 2 49.9559 62.5154 41.2751 0 0 0 1 
274 1 49.8223 61.8522 42.1443 0 0 0 1 
139 2 49.2842 37.3109 59.3378 0 0 0 1 
140 1 50.3591 37.0592 59.1949 0 0 0 1 
141 1 50.167 37.9526 59.5002 0 0 0 1 
142 2 48.6625 37.1223 57.9263 0 0 0 1 
144 1 49.3319 36.3668 57.4619 0 0 0 1 
148 1 46.3237 37.1629 56.3239 0 0 0 1 
126 1 50.4411 42.3569 61.856 0 0 0 1 
128 2 48.8821 40.5888 62.1365 0 0 0 1 
130 1 49.2944 39.5888 62.3581 0 0 0 1 
131 3 48.1657 40.2024 60.9858 0 0 0 1 
132 2 46.9797 39.5519 61.1975 0 0 0 1 
134 1 45.9855 40.0088 61.0882 0 0 0 1 
135 2 47.5973 38.2394 61.0119 0 0 0 1 
136 1 47.1304 37.2874 60.6954 0 0 0 1 
137 1 48.12 38.1991 61.9922 0 0 0 1 
138 3 48.6837 38.3271 60.1855 0 0 0 1 
143 1 47.6596 36.8302 58.2843 0 0 0 1 
145 3 48.113 38.0308 56.9405 0 0 0 1 
146 2 46.8239 38.1266 56.5098 0 0 0 1 
147 1 46.1919 38.6771 57.2221 0 0 0 1 
149 2 46.9025 38.8189 55.2292 0 0 0 1 
150 1 45.9248 39.3282 55.1682 0 0 0 1 
151 1 47.0842 37.9465 54.5708 0 0 0 1 
152 3 47.9933 39.7155 55.0429 0 0 0 1 
153 2 47.3029 40.1793 53.8706 0 0 0 1 
154 1 46.3223 40.6146 54.1393 0 0 0 1 
155 1 47.0826 39.3407 53.182 0 0 0 1 
156 2 48.1608 41.2381 53.2097 0 0 0 1 
157 1 47.3818 42.0189 53.2243 0 0 0 1 
158 1 48.1876 40.7483 52.2217 0 0 0 1 
159 3 49.435 41.963 53.3178 0 0 0 1 
160 2 49.6981 42.8939 52.365 0 0 0 1 
161 1 48.9901 43.7409 52.3938 0 0 0 1 
162 1 49.8137 42.449 51.3611 0 0 0 1 
125 2 50.0796 41.3405 61.677 0 0 0 1 
127 1 50.8568 41.101 60.9482 0 0 0 1 
163 2 50.9672 43.6229 52.4635 0 0 0 1 
164 1 50.3779 44.5501 52.6196 0 0 0 1 
165 1 51.2607 43.1891 51.4856 0 0 0 1 
166 3 52.0122 43.4999 53.4489 0 0 0 1 
167 2 52.9042 44.4481 52.9928 0 0 0 1 
168 1 53.2778 44.958 53.9127 0 0 0 1 
169 1 53.9095 43.9985 53.1767 0 0 0 1 
170 2 52.1579 44.9707 51.6685 0 0 0 1 
171 1 51.3476 45.7008 51.9111 0 0 0 1 
172 1 52.4032 44.2352 50.8651 0 0 0 1 
173 3 52.5445 45.909 50.6637 0 0 0 1 
175 1 50.9464 46.9258 50.1232 0 0 0 1 
84 1 63.7939 38.1765 68.523 0 0 0 1 
85 1 63.5629 38.6845 69.0407 0 0 0 1 
88 1 62.0735 36.9711 67.2623 0 0 0 1 
129 1 48.2597 41.2647 62.761 0 0 0 1 
133 1 46.7048 39.1749 60.1992 0 0 0 1 
29 1 58.2388 50.0733 62.9176 0 0 0 1 
30 2 59.3993 50.0523 65.124 0 0 0 1 
32 1 60.2496 49.5042 64.6624 0 0 0 1 
33 3 59.0485 49.0789 66.1018 0 0 0 1 
34 2 60.1529 49.1823 66.8384 0 0 0 1 
35 1 60.2638 50.175 67.3023 0 0 0 1 
36 1 61.061 48.8882 66.289 0 0 0 1 
37 2 60.2433 48.3262 67.9984 0 0 0 1 
38 1 60.3564 49.0588 68.8166 0 0 0 1 
39 1 61.1657 47.7558 67.7923 0 0 0 1 
40 3 59.2228 47.3935 68.3787 0 0 0 1 
41 2 60.0039 46.9723 69.5153 0 0 0 1 
42 1 60.2219 47.8198 70.1924 0 0 0 1 
43 1 60.9889 46.5764 69.2039 0 0 0 1 
44 2 59.1974 45.9171 70.22 0 0 0 1 
45 1 59.1912 46.4078 71.208 0 0 0 1 
46 1 59.9567 45.1176 70.1887 0 0 0 1 
47 3 57.9184 45.2333 70.1151 0 0 0 1 
48 2 57.6778 44.2074 70.967 0 0 0 1 
49 1 57.8211 44.4223 72.041 0 0 0 1 
50 1 58.0917 43.2441 70.6124 0 0 0 1 
51 2 56.2064 44.0429 70.8709 0 0 0 1 
52 1 55.6456 44.6722 71.5954 0 0 0 1 
53 1 56.6413 43.0777 71.1814 0 0 0 1 
54 3 55.4971 43.8688 69.6538 0 0 0 1 
55 2 54.576 43.0993 70.3569 0 0 0 1 
56 1 53.7262 43.6994 70.0061 0 0 0 1 
57 1 53.9772 42.8203 69.4737 0 0 0 1 
58 2 55.1195 42.4288 71.6692 0 0 0 1 
59 1 54.9136 43.1003 72.524 0 0 0 1 
60 1 55.9467 41.8346 71.232 0 0 0 1 
61 3 54.5362 41.2223 72.1812 0 0 0 1 
62 2 54.9033 40.8472 73.4998 0 0 0 1 
63 1 54.1098 40.6535 74.2544 0 0 0 1 
64 1 55.921 41.1825 73.788 0 0 0 1 
65 2 55.4951 39.4955 73.2199 0 0 0 1 
66 1 54.7784 38.6883 72.9611 0 0 0 1 
67 1 56.0311 38.8262 73.9407 0 0 0 1 
68 3 56.1762 39.2998 71.931 0 0 0 1 
69 2 57.427 38.4838 71.8884 0 0 0 1 
70 1 57.3969 37.4149 71.5646 0 0 0 1 
71 1 57.7217 38.3352 72.9549 0 0 0 1 
72 2 58.496 39.0912 70.8893 0 0 0 1 
73 1 58.097 39.9038 70.2499 0 0 0 1 
74 1 59.0677 38.4296 70.2064 0 0 0 1 
75 3 59.5518 39.705 71.6361 0 0 0 1 
76 2 60.957 39.7579 71.645 0 0 0 1 
77 1 61.0406 39.7744 72.7485 0 0 0 1 
78 1 61.5722 40.3724 70.9657 0 0 0 1 
79 2 61.7718 38.5425 71.0061 0 0 0 1 
80 1 61.1968 37.6088 70.7893 0 0 0 1 
81 1 62.7913 38.2748 71.3668 0 0 0 1 
82 3 61.9183 38.8775 69.6004 0 0 0 1 
83 2 62.7823 37.9293 68.8948 0 0 0 1 
86 2 61.7906 37.9227 67.753 0 0 0 1 
87 1 60.7796 37.8422 68.1998 0 0 0 1 
89 3 62.0145 38.8373 66.6843 0 0 0 1 
90 2 61.3963 39.9971 66.3122 0 0 0 1 
91 1 61.6775 40.8509 65.6575 0 0 0 1 
92 1 61.7076 40.4912 67.2459 0 0 0 1 
93 2 59.9687 40.1184 66.8249 0 0 0 1 
94 1 60.0753 39.6888 67.8386 0 0 0 1 
95 1 59.0426 39.6698 66.4202 0 0 0 1 
96 3 59.8719 41.513 66.7672 0 0 0 1 
97 2 59.568 42.3044 67.8649 0 0 0 1 
98 1 59.1838 43.3303 67.6964 0 0 0 1 
99 1 59.0629 43.0587 67.1809 0 0 0 1 
100 2 58.2554 41.7673 68.3356 0 0 0 1 
101 1 57.6561 42.0767 69.2057 0 0 0 1 
102 1 58.5011 40.7309 68.6137 0 0 0 1 
103 3 57.1047 41.4149 67.5704 0 0 0 1 
104 2 56.6066 40.1614 68.0577 0 0 0 1 
105 1 56.5781 39.9615 69.1464 0 0 0 1 
106 1 57.2546 39.3715 67.6393 0 0 0 1 
107 2 55.3855 40.3845 67.2272 0 0 0 1 
108 1 54.5334 40.8214 67.7996 0 0 0 1 
109 1 54.9339 39.4628 66.8015 0 0 0 1 
110 3 55.6098 41.32 66.0906 0 0 0 1 