<?xml version="1.0" encoding="ISO-8859-1"?>
<modeling>
 <generator>
  <i name="program" type="string">vasp </i>
  <i name="version" type="string">5.3.5  </i>
  <i name="subversion" type="string">31Mar14 (build Oct 24 2014 12:38:34) complex                          parallel </i>
  <i name="platform" type="string">LinuxIFC </i>
  <i name="date" type="string">2016 10 20 </i>
  <i name="time" type="string">19:10:38 </i>
 </generator>
 <incar>
  <i type="int" name="ISTART">     1</i>
  <i type="string" name="PREC">accurate</i>
  <i type="string" name="ALGO"> Normal</i>
  <i type="int" name="ISPIN">     2</i>
  <i type="int" name="ICHARG">     0</i>
  <i type="int" name="NELM">   100</i>
  <i type="int" name="IBRION">    -1</i>
  <i name="EDIFF">      0.00025000</i>
  <i type="int" name="NSW">     0</i>
  <i type="int" name="ISIF">     3</i>
  <i name="ENCUT">    520.00000000</i>
  <v name="MAGMOM">      0.00000000      0.00000000      0.00000000      0.00000000      0.00000000</v>
  <i type="string" name="LREAL"> Auto</i>
  <i type="int" name="ISMEAR">    -5</i>
  <i name="SIGMA">      0.05000000</i>
  <i type="logical" name="LWAVE"> F  </i>
  <i type="logical" name="LCHARG"> T  </i>
  <i type="logical" name="LVHAR"> T  </i>
  <i type="logical" name="LORBIT"> F  </i>
  <i type="logical" name="LAECHG"> T  </i>
  <i type="int" name="NELM">   100</i>
  <i type="logical" name="LCALCPOL"> T  </i>
 </incar>
 <kpoints>
  <generation param="Gamma">
   <v type="int" name="divisions">       8        8        8 </v>
   <v name="usershift">      0.00000000       0.00000000       0.00000000 </v>
   <v name="genvec1">      0.12500000       0.00000000       0.00000000 </v>
   <v name="genvec2">      0.00000000       0.12500000       0.00000000 </v>
   <v name="genvec3">      0.00000000       0.00000000       0.12500000 </v>
   <v name="shift">      0.00000000       0.00000000       0.00000000 </v>
  </generation>
  <varray name="kpointlist" >
   <v>       0.00000000       0.00000000       0.00000000 </v>
   <v>       0.12500000       0.00000000       0.00000000 </v>
   <v>       0.25000000       0.00000000       0.00000000 </v>
   <v>       0.37500000       0.00000000       0.00000000 </v>
   <v>       0.50000000       0.00000000       0.00000000 </v>
   <v>       0.12500000       0.12500000       0.00000000 </v>
   <v>       0.25000000       0.12500000       0.00000000 </v>
   <v>       0.37500000       0.12500000       0.00000000 </v>
   <v>       0.50000000       0.12500000       0.00000000 </v>
   <v>       0.25000000       0.25000000       0.00000000 </v>
   <v>       0.37500000       0.25000000       0.00000000 </v>
   <v>       0.50000000       0.25000000       0.00000000 </v>
   <v>       0.37500000       0.37500000       0.00000000 </v>
   <v>       0.50000000       0.37500000       0.00000000 </v>
   <v>       0.50000000       0.50000000       0.00000000 </v>
   <v>       0.12500000       0.12500000       0.12500000 </v>
   <v>       0.25000000       0.12500000       0.12500000 </v>
   <v>       0.37500000       0.12500000       0.12500000 </v>
   <v>       0.50000000       0.12500000       0.12500000 </v>
   <v>       0.25000000       0.25000000       0.12500000 </v>
   <v>       0.37500000       0.25000000       0.12500000 </v>
   <v>       0.50000000       0.25000000       0.12500000 </v>
   <v>       0.37500000       0.37500000       0.12500000 </v>
   <v>       0.50000000       0.37500000       0.12500000 </v>
   <v>       0.50000000       0.50000000       0.12500000 </v>
   <v>       0.25000000       0.25000000       0.25000000 </v>
   <v>       0.37500000       0.25000000       0.25000000 </v>
   <v>       0.50000000       0.25000000       0.25000000 </v>
   <v>       0.37500000       0.37500000       0.25000000 </v>
   <v>       0.50000000       0.37500000       0.25000000 </v>
   <v>       0.50000000       0.50000000       0.25000000 </v>
   <v>       0.37500000       0.37500000       0.37500000 </v>
   <v>       0.50000000       0.37500000       0.37500000 </v>
   <v>       0.50000000       0.50000000       0.37500000 </v>
   <v>       0.50000000       0.50000000       0.50000000 </v>
  </varray>
  <varray name="weights" >
   <v>       0.00195312 </v>
   <v>       0.01171875 </v>
   <v>       0.01171875 </v>
   <v>       0.01171875 </v>
   <v>       0.00585938 </v>
   <v>       0.02343750 </v>
   <v>       0.04687500 </v>
   <v>       0.04687500 </v>
   <v>       0.02343750 </v>
   <v>       0.02343750 </v>
   <v>       0.04687500 </v>
   <v>       0.02343750 </v>
   <v>       0.02343750 </v>
   <v>       0.02343750 </v>
   <v>       0.00585938 </v>
   <v>       0.01562500 </v>
   <v>       0.04687500 </v>
   <v>       0.04687500 </v>
   <v>       0.02343750 </v>
   <v>       0.04687500 </v>
   <v>       0.09375000 </v>
   <v>       0.04687500 </v>
   <v>       0.04687500 </v>
   <v>       0.04687500 </v>
   <v>       0.01171875 </v>
   <v>       0.01562500 </v>
   <v>       0.04687500 </v>
   <v>       0.02343750 </v>
   <v>       0.04687500 </v>
   <v>       0.04687500 </v>
   <v>       0.01171875 </v>
   <v>       0.01562500 </v>
   <v>       0.02343750 </v>
   <v>       0.01171875 </v>
   <v>       0.00195312 </v>
  </varray>
  <varray name="tetrahedronlist"  type="int" >
   <v type="int" >       12        1        2        2        6 </v>
   <v type="int" >       12        2        2        6        6 </v>
   <v type="int" >       12        2        6        6       16 </v>
   <v type="int" >       12        2        3        6        7 </v>
   <v type="int" >       12        2        6        6        7 </v>
   <v type="int" >       12        6        6        7       16 </v>
   <v type="int" >       12        3        6        7        7 </v>
   <v type="int" >       24        6        7        7       17 </v>
   <v type="int" >       24        6        7       16       17 </v>
   <v type="int" >       12        3        4        7        8 </v>
   <v type="int" >       12        3        7        7        8 </v>
   <v type="int" >       12        7        7        8       17 </v>
   <v type="int" >       12        4        7        8        8 </v>
   <v type="int" >       12        7        8        8       18 </v>
   <v type="int" >       12        7        8       17       18 </v>
   <v type="int" >       12        4        5        8        9 </v>
   <v type="int" >       12        4        8        8        9 </v>
   <v type="int" >       12        8        8        9       18 </v>
   <v type="int" >       12        5        8        9        9 </v>
   <v type="int" >       12        8        9        9       19 </v>
   <v type="int" >       12        8        9       18       19 </v>
   <v type="int" >       12        6        7       10       16 </v>
   <v type="int" >       12        7       10       16       17 </v>
   <v type="int" >       12       10       16       17       20 </v>
   <v type="int" >       12        7        8       11       17 </v>
   <v type="int" >       12        7       10       11       17 </v>
   <v type="int" >       12       10       11       17       20 </v>
   <v type="int" >       12        8       11       17       18 </v>
   <v type="int" >       12       11       17       18       21 </v>
   <v type="int" >       12       11       17       20       21 </v>
   <v type="int" >       12        8        9       12       18 </v>
   <v type="int" >       12        8       11       12       18 </v>
   <v type="int" >       12       11       12       18       21 </v>
   <v type="int" >       12        9       12       18       19 </v>
   <v type="int" >       12       12       18       19       22 </v>
   <v type="int" >       12       12       18       21       22 </v>
   <v type="int" >       12        8        9       11       19 </v>
   <v type="int" >       12        9       11       12       19 </v>
   <v type="int" >       12       11       12       19       22 </v>
   <v type="int" >       12        8       11       18       19 </v>
   <v type="int" >       12       11       18       19       21 </v>
   <v type="int" >       12       11       19       21       22 </v>
   <v type="int" >       12        7        8       10       18 </v>
   <v type="int" >       12        8       10       11       18 </v>
   <v type="int" >       12       10       11       18       21 </v>
   <v type="int" >       12        7       10       17       18 </v>
   <v type="int" >       12       10       17       18       20 </v>
   <v type="int" >       12       10       18       20       21 </v>
   <v type="int" >       12        7        7       10       17 </v>
   <v type="int" >       12        7       10       17       20 </v>
   <v type="int" >       12        7       16       17       17 </v>
   <v type="int" >       12        7       17       17       20 </v>
   <v type="int" >       12        2        3        6       16 </v>
   <v type="int" >       12        3        6        7       16 </v>
   <v type="int" >       12        3        7       16       17 </v>
   <v type="int" >       12       10       11       13       20 </v>
   <v type="int" >       12       11       13       20       21 </v>
   <v type="int" >       12       13       20       21       23 </v>
   <v type="int" >       12       11       12       14       21 </v>
   <v type="int" >       12       11       13       14       21 </v>
   <v type="int" >       12       13       14       21       23 </v>
   <v type="int" >       12       12       14       21       22 </v>
   <v type="int" >       12       14       21       22       24 </v>
   <v type="int" >       12       14       21       23       24 </v>
   <v type="int" >       12       11       12       13       22 </v>
   <v type="int" >       12       12       13       14       22 </v>
   <v type="int" >       12       13       14       22       24 </v>
   <v type="int" >       12       11       13       21       22 </v>
   <v type="int" >       12       13       21       22       23 </v>
   <v type="int" >       12       13       22       23       24 </v>
   <v type="int" >       12       10       11       11       21 </v>
   <v type="int" >       12       11       11       13       21 </v>
   <v type="int" >       12       11       13       21       23 </v>
   <v type="int" >       12       10       11       20       21 </v>
   <v type="int" >       12       11       20       21       21 </v>
   <v type="int" >       12       11       21       21       23 </v>
   <v type="int" >       12        7        8       10       20 </v>
   <v type="int" >       12        8       10       11       20 </v>
   <v type="int" >       12        8       11       20       21 </v>
   <v type="int" >       12        7        8       17       20 </v>
   <v type="int" >       12        8       17       18       20 </v>
   <v type="int" >       12        8       18       20       21 </v>
   <v type="int" >       12        3        4        7       17 </v>
   <v type="int" >       12        4        7        8       17 </v>
   <v type="int" >       12        4        8       17       18 </v>
   <v type="int" >       12       13       14       15       23 </v>
   <v type="int" >       12       14       15       23       24 </v>
   <v type="int" >       12       15       23       24       25 </v>
   <v type="int" >       12       13       14       14       24 </v>
   <v type="int" >       12       14       14       15       24 </v>
   <v type="int" >       12       14       15       24       25 </v>
   <v type="int" >       12       13       14       23       24 </v>
   <v type="int" >       12       14       23       24       24 </v>
   <v type="int" >       12       14       24       24       25 </v>
   <v type="int" >       12       11       12       13       23 </v>
   <v type="int" >       12       12       13       14       23 </v>
   <v type="int" >       12       12       14       23       24 </v>
   <v type="int" >       12       11       12       21       23 </v>
   <v type="int" >       12       12       21       22       23 </v>
   <v type="int" >       12       12       22       23       24 </v>
   <v type="int" >       12        8        9       11       21 </v>
   <v type="int" >       12        9       11       12       21 </v>
   <v type="int" >       12        9       12       21       22 </v>
   <v type="int" >       12        8        9       18       21 </v>
   <v type="int" >       12        9       18       19       21 </v>
   <v type="int" >       12        9       19       21       22 </v>
   <v type="int" >       12        4        5        8       18 </v>
   <v type="int" >       12        5        8        9       18 </v>
   <v type="int" >       12        5        9       18       19 </v>
   <v type="int" >       12       13       14       15       25 </v>
   <v type="int" >       12       13       14       24       25 </v>
   <v type="int" >       12       13       23       24       25 </v>
   <v type="int" >       12       11       12       14       24 </v>
   <v type="int" >       12       11       13       14       24 </v>
   <v type="int" >       12       11       13       23       24 </v>
   <v type="int" >       12       11       12       22       24 </v>
   <v type="int" >       12       11       21       22       24 </v>
   <v type="int" >       12       11       21       23       24 </v>
   <v type="int" >       12        8        9       12       22 </v>
   <v type="int" >       12        8       11       12       22 </v>
   <v type="int" >       12        8       11       21       22 </v>
   <v type="int" >       12        8        9       19       22 </v>
   <v type="int" >       12        8       18       19       22 </v>
   <v type="int" >       12        8       18       21       22 </v>
   <v type="int" >       12        4        5        9       19 </v>
   <v type="int" >       12        4        8        9       19 </v>
   <v type="int" >       12        4        8       18       19 </v>
   <v type="int" >       12       10       11       13       23 </v>
   <v type="int" >       12       10       11       21       23 </v>
   <v type="int" >       12       10       20       21       23 </v>
   <v type="int" >       12        7        8       11       21 </v>
   <v type="int" >       12        7       10       11       21 </v>
   <v type="int" >       12        7       10       20       21 </v>
   <v type="int" >       12        7        8       18       21 </v>
   <v type="int" >       12        7       17       18       21 </v>
   <v type="int" >       12        7       17       20       21 </v>
   <v type="int" >       12        3        4        8       18 </v>
   <v type="int" >       12        3        7        8       18 </v>
   <v type="int" >       12        3        7       17       18 </v>
   <v type="int" >       12        6        7       10       20 </v>
   <v type="int" >       12        6        7       17       20 </v>
   <v type="int" >       12        6       16       17       20 </v>
   <v type="int" >       12        2        3        7       17 </v>
   <v type="int" >       12        2        6        7       17 </v>
   <v type="int" >       12        2        6       16       17 </v>
   <v type="int" >       12        1        2        6       16 </v>
   <v type="int" >       12       16       17       17       20 </v>
   <v type="int" >       12       17       17       20       20 </v>
   <v type="int" >       12       17       20       20       26 </v>
   <v type="int" >       12       17       18       20       21 </v>
   <v type="int" >       12       17       20       20       21 </v>
   <v type="int" >       12       20       20       21       26 </v>
   <v type="int" >       12       18       20       21       21 </v>
   <v type="int" >       24       20       21       21       27 </v>
   <v type="int" >       24       20       21       26       27 </v>
   <v type="int" >       12       18       19       21       22 </v>
   <v type="int" >       12       18       21       21       22 </v>
   <v type="int" >       12       21       21       22       27 </v>
   <v type="int" >       12       19       21       22       22 </v>
   <v type="int" >       12       21       22       22       28 </v>
   <v type="int" >       12       21       22       27       28 </v>
   <v type="int" >       12       20       21       23       26 </v>
   <v type="int" >       12       21       23       26       27 </v>
   <v type="int" >       12       23       26       27       29 </v>
   <v type="int" >       12       21       22       24       27 </v>
   <v type="int" >       12       21       23       24       27 </v>
   <v type="int" >       12       23       24       27       29 </v>
   <v type="int" >       12       22       24       27       28 </v>
   <v type="int" >       12       24       27       28       30 </v>
   <v type="int" >       12       24       27       29       30 </v>
   <v type="int" >       12       21       22       23       28 </v>
   <v type="int" >       12       22       23       24       28 </v>
   <v type="int" >       12       23       24       28       30 </v>
   <v type="int" >       12       21       23       27       28 </v>
   <v type="int" >       12       23       27       28       29 </v>
   <v type="int" >       12       23       28       29       30 </v>
   <v type="int" >       12       21       21       23       27 </v>
   <v type="int" >       12       21       23       27       29 </v>
   <v type="int" >       12       21       26       27       27 </v>
   <v type="int" >       12       21       27       27       29 </v>
   <v type="int" >       12       17       18       20       26 </v>
   <v type="int" >       12       18       20       21       26 </v>
   <v type="int" >       12       18       21       26       27 </v>
   <v type="int" >       12       23       24       25       29 </v>
   <v type="int" >       12       24       25       29       30 </v>
   <v type="int" >       12       25       29       30       31 </v>
   <v type="int" >       12       23       24       24       30 </v>
   <v type="int" >       12       24       24       25       30 </v>
   <v type="int" >       12       24       25       30       31 </v>
   <v type="int" >       12       23       24       29       30 </v>
   <v type="int" >       12       24       29       30       30 </v>
   <v type="int" >       12       24       30       30       31 </v>
   <v type="int" >       12       21       22       23       29 </v>
   <v type="int" >       12       22       23       24       29 </v>
   <v type="int" >       12       22       24       29       30 </v>
   <v type="int" >       12       21       22       27       29 </v>
   <v type="int" >       12       22       27       28       29 </v>
   <v type="int" >       12       22       28       29       30 </v>
   <v type="int" >       12       18       19       21       27 </v>
   <v type="int" >       12       19       21       22       27 </v>
   <v type="int" >       12       19       22       27       28 </v>
   <v type="int" >       12       23       24       25       31 </v>
   <v type="int" >       12       23       24       30       31 </v>
   <v type="int" >       12       23       29       30       31 </v>
   <v type="int" >       12       21       22       24       30 </v>
   <v type="int" >       12       21       23       24       30 </v>
   <v type="int" >       12       21       23       29       30 </v>
   <v type="int" >       12       21       22       28       30 </v>
   <v type="int" >       12       21       27       28       30 </v>
   <v type="int" >       12       21       27       29       30 </v>
   <v type="int" >       12       18       19       22       28 </v>
   <v type="int" >       12       18       21       22       28 </v>
   <v type="int" >       12       18       21       27       28 </v>
   <v type="int" >       12       20       21       23       29 </v>
   <v type="int" >       12       20       21       27       29 </v>
   <v type="int" >       12       20       26       27       29 </v>
   <v type="int" >       12       17       18       21       27 </v>
   <v type="int" >       12       17       20       21       27 </v>
   <v type="int" >       12       17       20       26       27 </v>
   <v type="int" >       12       16       17       20       26 </v>
   <v type="int" >       12       26       27       27       29 </v>
   <v type="int" >       12       27       27       29       29 </v>
   <v type="int" >       12       27       29       29       32 </v>
   <v type="int" >       12       27       28       29       30 </v>
   <v type="int" >       12       27       29       29       30 </v>
   <v type="int" >       12       29       29       30       32 </v>
   <v type="int" >       12       28       29       30       30 </v>
   <v type="int" >       24       29       30       30       33 </v>
   <v type="int" >       24       29       30       32       33 </v>
   <v type="int" >       12       29       30       31       32 </v>
   <v type="int" >       12       30       31       32       33 </v>
   <v type="int" >       12       31       32       33       34 </v>
   <v type="int" >       12       30       30       31       33 </v>
   <v type="int" >       12       30       31       33       34 </v>
   <v type="int" >       12       30       32       33       33 </v>
   <v type="int" >       12       30       33       33       34 </v>
   <v type="int" >       12       27       28       29       32 </v>
   <v type="int" >       12       28       29       30       32 </v>
   <v type="int" >       12       28       30       32       33 </v>
   <v type="int" >       12       29       30       31       34 </v>
   <v type="int" >       12       29       30       33       34 </v>
   <v type="int" >       12       29       32       33       34 </v>
   <v type="int" >       12       27       28       30       33 </v>
   <v type="int" >       12       27       29       30       33 </v>
   <v type="int" >       12       27       29       32       33 </v>
   <v type="int" >       12       26       27       29       32 </v>
   <v type="int" >       12       32       33       33       34 </v>
   <v type="int" >       12       33       33       34       34 </v>
   <v type="int" >       12       33       34       34       35 </v>
   <v type="int" >       12       32       33       34       35 </v>
  </varray>
  <i name="volumeweight">      0.00032552 </i>
 </kpoints>
 <parameters>
  <separator name="general" >
   <i type="string" name="SYSTEM">unknown system</i>
   <i type="logical" name="LCOMPAT"> F  </i>
  </separator>
  <separator name="electronic" >
   <i type="string" name="PREC">accura</i>
   <i name="ENMAX">    520.00000000</i>
   <i name="ENAUG">    605.39200000</i>
   <i name="EDIFF">      0.00025000</i>
   <i type="int" name="IALGO">    38</i>
   <i type="int" name="IWAVPR">    10</i>
   <i type="int" name="NBANDS">    24</i>
   <i name="NELECT">     38.00000000</i>
   <i type="int" name="TURBO">     0</i>
   <i type="int" name="IRESTART">     0</i>
   <i type="int" name="NREBOOT">     0</i>
   <i type="int" name="NMIN">     0</i>
   <i name="EREF">      0.00000000</i>
   <separator name="electronic smearing" >
    <i type="int" name="ISMEAR">    -5</i>
    <i name="SIGMA">      0.05000000</i>
    <i name="KSPACING">      0.50000000</i>
    <i type="logical" name="KGAMMA"> T  </i>
   </separator>
   <separator name="electronic projectors" >
    <i type="logical" name="LREAL"> T  </i>
    <v name="ROPT">     -0.00025000     -0.00025000     -0.00025000</v>
    <i type="int" name="LMAXPAW">  -100</i>
    <i type="int" name="LMAXMIX">     2</i>
    <i type="logical" name="NLSPLINE"> F  </i>
   </separator>
   <separator name="electronic startup" >
    <i type="int" name="ISTART">     1</i>
    <i type="int" name="ICHARG">     0</i>
    <i type="int" name="INIWAV">     1</i>
   </separator>
   <separator name="electronic spin" >
    <i type="int" name="ISPIN">     2</i>
    <i type="logical" name="LNONCOLLINEAR"> F  </i>
    <v name="MAGMOM">      0.00000000      0.00000000      0.00000000      0.00000000      0.00000000</v>
    <i name="NUPDOWN">     -1.00000000</i>
    <i type="logical" name="LSORBIT"> F  </i>
    <v name="SAXIS">      0.00000000      0.00000000      1.00000000</v>
    <i type="logical" name="LSPIRAL"> F  </i>
    <v name="QSPIRAL">      0.00000000      0.00000000      0.00000000</v>
    <i type="logical" name="LZEROZ"> F  </i>
   </separator>
   <separator name="electronic exchange-correlation" >
    <i type="logical" name="LASPH"> F  </i>
    <i type="logical" name="LMETAGGA"> F  </i>
   </separator>
   <separator name="electronic convergence" >
    <i type="int" name="NELM">   100</i>
    <i type="int" name="NELMDL">     0</i>
    <i type="int" name="NELMIN">     2</i>
    <i name="ENINI">    520.00000000</i>
    <separator name="electronic convergence detail" >
     <i type="logical" name="LDIAG"> T  </i>
     <i type="logical" name="LSUBROT"> F  </i>
     <i name="WEIMIN">      0.00000000</i>
     <i name="EBREAK">      0.00000260</i>
     <i name="DEPER">      0.30000000</i>
     <i type="int" name="NRMM">     4</i>
     <i name="TIME">      0.40000000</i>
    </separator>
   </separator>
   <separator name="electronic mixer" >
    <i name="AMIX">      0.40000000</i>
    <i name="BMIX">      1.00000000</i>
    <i name="AMIN">      0.10000000</i>
    <i name="AMIX_MAG">      1.60000000</i>
    <i name="BMIX_MAG">      1.00000000</i>
    <separator name="electronic mixer details" >
     <i type="int" name="IMIX">     4</i>
     <i type="int" name="MAXMIX">   -45</i>
     <i name="WC">    100.00000000</i>
     <i type="int" name="INIMIX">     1</i>
     <i type="int" name="MIXPRE">     1</i>
     <i type="int" name="MREMOVE">     5</i>
    </separator>
   </separator>
   <separator name="electronic dipolcorrection" >
    <i type="logical" name="LDIPOL"> F  </i>
    <i type="logical" name="LMONO"> F  </i>
    <i type="int" name="IDIPOL">     0</i>
    <i name="EPSILON">      1.00000000</i>
    <v name="DIPOL">   -100.00000000   -100.00000000   -100.00000000</v>
    <i name="EFIELD">      0.00000000</i>
   </separator>
  </separator>
  <separator name="grids" >
   <i type="int" name="NGX">    30</i>
   <i type="int" name="NGY">    30</i>
   <i type="int" name="NGZ">    30</i>
   <i type="int" name="NGXF">    60</i>
   <i type="int" name="NGYF">    60</i>
   <i type="int" name="NGZF">    60</i>
   <i type="logical" name="ADDGRID"> F  </i>
  </separator>
  <separator name="ionic" >
   <i type="int" name="NSW">     0</i>
   <i type="int" name="IBRION">    -1</i>
   <i type="int" name="ISIF">     3</i>
   <i name="PSTRESS">      0.00000000</i>
   <i name="EDIFFG">      0.00250000</i>
   <i type="int" name="NFREE">     0</i>
   <i name="POTIM">      0.50000000</i>
   <i name="SMASS">     -3.00000000</i>
   <i name="SCALEE">      1.00000000</i>
  </separator>
  <separator name="ionic md" >
   <i name="TEBEG">      0.00010000</i>
   <i name="TEEND">      0.00010000</i>
   <i type="int" name="NBLOCK">     1</i>
   <i type="int" name="KBLOCK">     1</i>
   <i type="int" name="NPACO">   256</i>
   <i name="APACO">     16.00000000</i>
  </separator>
  <separator name="symmetry" >
   <i type="int" name="ISYM">     2</i>
   <i name="SYMPREC">      0.00001000</i>
  </separator>
  <separator name="dos" >
   <i type="logical" name="LORBIT"> F  </i>
   <v name="RWIGS">     -1.00000000     -1.00000000     -1.00000000</v>
   <i type="int" name="NEDOS">   301</i>
   <i name="EMIN">     10.00000000</i>
   <i name="EMAX">    -10.00000000</i>
   <i name="EFERMI">      0.00000000</i>
  </separator>
  <separator name="writing" >
   <i type="int" name="NWRITE">     2</i>
   <i type="logical" name="LWAVE"> F  </i>
   <i type="logical" name="LCHARG"> T  </i>
   <i type="logical" name="LPARD"> F  </i>
   <i type="logical" name="LVTOT"> F  </i>
   <i type="logical" name="LVHAR"> T  </i>
   <i type="logical" name="LELF"> F  </i>
   <i type="logical" name="LOPTICS"> F  </i>
   <v name="STM">      0.00000000      0.00000000      0.00000000      0.00000000      0.00000000      0.00000000      0.00000000</v>
  </separator>
  <separator name="performance" >
   <i type="int" name="NPAR">     8</i>
   <i type="int" name="NSIM">     4</i>
   <i type="int" name="NBLK">    -1</i>
   <i type="logical" name="LPLANE"> T  </i>
   <i type="logical" name="LSCALAPACK"> T  </i>
   <i type="logical" name="LSCAAWARE"> F  </i>
   <i type="logical" name="LSCALU"> F  </i>
   <i type="logical" name="LASYNC"> F  </i>
   <i type="logical" name="LORBITALREAL"> F  </i>
  </separator>
  <separator name="miscellaneous" >
   <i type="int" name="IDIOT">     3</i>
   <i type="logical" name="LMUSIC"> F  </i>
   <v name="POMASS">    137.32700000     47.88000000     16.00000000</v>
   <v name="DARWINR">      0.00000000      0.00000000      0.00000000</v>
   <v name="DARWINV">      1.00000000      1.00000000      1.00000000</v>
   <i type="logical" name="LCORR"> T  </i>
  </separator>
  <i type="logical" name="GGA_COMPAT"> T  </i>
  <i type="logical" name="LBERRY"> F  </i>
  <i type="int" name="ICORELEVEL">     0</i>
  <i type="logical" name="LDAU"> F  </i>
  <i type="int" name="I_CONSTRAINED_M">     0</i>
  <separator name="electronic exchange-correlation" >
   <i type="string" name="GGA">--</i>
   <i type="int" name="VOSKOWN">     0</i>
   <i type="logical" name="LHFCALC"> F  </i>
   <i type="string" name="PRECFOCK"></i>
   <i type="logical" name="LSYMGRAD"> F  </i>
   <i type="logical" name="LHFONE"> F  </i>
   <i type="logical" name="LRHFCALC"> F  </i>
   <i type="logical" name="LTHOMAS"> F  </i>
   <i type="logical" name="LMODELHF"> F  </i>
   <i name="ENCUT4O">     -1.00000000</i>
   <i type="int" name="EXXOEP">     0</i>
   <i type="int" name="FOURORBIT">     0</i>
   <i name="AEXX">      0.00000000</i>
   <i name="HFALPHA">      0.00000000</i>
   <i name="MCALPHA">      0.00000000</i>
   <i name="ALDAX">      1.00000000</i>
   <i name="AGGAX">      1.00000000</i>
   <i name="ALDAC">      1.00000000</i>
   <i name="AGGAC">      1.00000000</i>
   <i type="int" name="NKREDX">     1</i>
   <i type="int" name="NKREDY">     1</i>
   <i type="int" name="NKREDZ">     1</i>
   <i type="logical" name="SHIFTRED"> F  </i>
   <i type="logical" name="ODDONLY"> F  </i>
   <i type="logical" name="EVENONLY"> F  </i>
   <i type="int" name="LMAXFOCK">     0</i>
   <i type="int" name="NMAXFOCKAE">     0</i>
   <i type="logical" name="LFOCKAEDFT"> F  </i>
   <i name="HFSCREEN">      0.00000000</i>
   <i name="HFSCREENC">      0.00000000</i>
   <i type="int" name="NBANDSGWLOW">     0</i>
  </separator>
  <separator name="vdW DFT" >
   <i type="logical" name="LUSE_VDW"> F  </i>
   <i name="Zab_VDW">     -0.84910000</i>
   <i name="PARAM1">      0.12340000</i>
   <i name="PARAM2">      1.00000000</i>
   <i name="PARAM3">      0.00000000</i>
  </separator>
  <separator name="model GW" >
   <i type="int" name="MODEL_GW">     0</i>
   <i name="MODEL_EPS0">      7.87191011</i>
   <i name="MODEL_ALPHA">      1.00000000</i>
  </separator>
  <separator name="linear response parameters" >
   <i type="logical" name="LEPSILON"> F  </i>
   <i type="logical" name="LRPA"> F  </i>
   <i type="logical" name="LNABLA"> F  </i>
   <i type="logical" name="LVEL"> F  </i>
   <i type="int" name="KINTER">     0</i>
   <i name="CSHIFT">      0.10000000</i>
   <i name="OMEGAMAX">     -1.00000000</i>
   <i name="DEG_THRESHOLD">      0.00200000</i>
  </separator>
  <separator name="orbital magnetization" >
   <i type="logical" name="NUCIND"> F  </i>
   <v name="MAGPOS">      0.00000000      0.00000000      0.00000000</v>
   <i type="logical" name="LNICSALL"> T  </i>
   <i type="logical" name="ORBITALMAG"> F  </i>
   <i type="logical" name="LMAGBLOCH"> F  </i>
   <i type="logical" name="LCHIMAG"> F  </i>
   <i type="logical" name="LGAUGE"> T  </i>
   <i type="int" name="MAGATOM">     0</i>
   <v name="MAGDIPOL">      0.00000000      0.00000000      0.00000000</v>
   <v name="AVECCONST">      0.00000000      0.00000000      0.00000000</v>
  </separator>
  <separator name="response functions" >
   <i type="logical" name="LADDER"> F  </i>
   <i type="logical" name="LFXC"> F  </i>
   <i type="logical" name="LHARTREE"> T  </i>
   <i type="int" name="IBSE">     0</i>
   <i type="logical" name="LTCTE"> F  </i>
   <i type="logical" name="LTETE"> F  </i>
   <i type="logical" name="LTRIPLET"> F  </i>
   <i type="logical" name="LFXCEPS"> F  </i>
   <i type="logical" name="LFXHEG"> F  </i>
   <i type="logical" name="L2ORDER"> F  </i>
   <i type="logical" name="LUSEW"> F  </i>
   <i name="ENCUTGW">     -2.00000000</i>
   <i name="ENCUTGWSOFT">     -2.00000000</i>
   <i name="ENCUTLF">     -1.00000000</i>
   <i type="int" name="LMAXMP2">    -1</i>
   <i name="SCISSOR">      0.00000000</i>
   <i type="int" name="NOMEGA">     0</i>
   <i type="int" name="NOMEGAR">     0</i>
   <i type="int" name="NBANDSGW">    -1</i>
   <i type="int" name="NBANDSO">    -1</i>
   <i type="int" name="NBANDSV">    -1</i>
   <i type="int" name="NELM">   100</i>
   <i type="int" name="DIM">     3</i>
   <i type="int" name="ANTIRES">     0</i>
   <i name="OMEGAMAX">    -30.00000000</i>
   <i name="OMEGAMIN">    -30.00000000</i>
   <i name="OMEGATL">   -200.00000000</i>
   <i type="int" name="OMEGAGRID">     0</i>
   <i name="CSHIFT">     -0.10000000</i>
   <i type="logical" name="SELFENERGY"> F  </i>
   <i type="logical" name="LSPECTRAL"> F  </i>
   <i type="logical" name="ODDONLYGW"> F  </i>
   <i type="logical" name="EVENONLYGW"> F  </i>
   <i type="int" name="NKREDLFX">     1</i>
   <i type="int" name="NKREDLFY">     1</i>
   <i type="int" name="NKREDLFZ">     1</i>
   <i type="int" name="MAXMEM">  1800</i>
   <i type="int" name="TELESCOPE">     0</i>
   <i type="int" name="TAUPAR">     1</i>
  </separator>
  <separator name="External order field" >
   <i name="OFIELD_KAPPA">      0.00000000</i>
   <v name="OFIELD_K">      0.00000000      0.00000000      0.00000000</v>
   <i name="OFIELD_Q6_NEAR">      0.00000000</i>
   <i name="OFIELD_Q6_FAR">      0.00000000</i>
   <i name="OFIELD_A">      0.00000000</i>
  </separator>
 </parameters>
 <atominfo>
  <atoms>       5 </atoms>
  <types>       3 </types>
  <array name="atoms" >
   <dimension dim="1">ion</dimension>
   <field type="string">element</field>
   <field type="int">atomtype</field>
   <set>
    <rc><c>Ba</c><c>   1</c></rc>
    <rc><c>Ti</c><c>   2</c></rc>
    <rc><c>O </c><c>   3</c></rc>
    <rc><c>O </c><c>   3</c></rc>
    <rc><c>O </c><c>   3</c></rc>
   </set>
  </array>
  <array name="atomtypes" >
   <dimension dim="1">type</dimension>
   <field type="int">atomspertype</field>
   <field type="string">element</field>
   <field>mass</field>
   <field>valence</field>
   <field type="string">pseudopotential</field>
   <set>
    <rc><c>   1</c><c>Ba</c><c>    137.32700000</c><c>     10.00000000</c><c>  PAW_PBE Ba_sv 06Sep2000               </c></rc>
    <rc><c>   1</c><c>Ti</c><c>     47.88000000</c><c>     10.00000000</c><c>  PAW_PBE Ti_pv 07Sep2000               </c></rc>
    <rc><c>   3</c><c>O </c><c>     16.00000000</c><c>      6.00000000</c><c>  PAW_PBE O 08Apr2002                   </c></rc>
   </set>
  </array>
 </atominfo>
 <structure name="initialpos" >
  <crystal>
   <varray name="basis" >
    <v>       4.03304400       0.00000000       0.00000000 </v>
    <v>       0.00000000       4.03304400       0.00000000 </v>
    <v>       0.00000000       0.00000000       4.03304400 </v>
   </varray>
   <i name="volume">     65.59925095 </i>
   <varray name="rec_basis" >
    <v>       0.24795167       0.00000000       0.00000000 </v>
    <v>       0.00000000       0.24795167       0.00000000 </v>
    <v>       0.00000000       0.00000000       0.24795167 </v>
   </varray>
  </crystal>
  <varray name="positions" >
   <v>       0.00000000       0.00000000       0.00280000 </v>
   <v>       0.50000000       0.50000000       0.50280000 </v>
   <v>       0.00000000       0.50000000       0.50280000 </v>
   <v>       0.50000000       0.00000000       0.50280000 </v>
   <v>       0.50000000       0.50000000       0.00280000 </v>
  </varray>
 </structure>
 <calculation>
  <scstep>
   <time name="dav">    6.61    6.63</time>
   <time name="total">    7.10    7.14</time>
   <energy>
    <i name="alphaZ">    255.43339506 </i>
    <i name="ewald">  -2507.06893497 </i>
    <i name="hartreedc">   -637.64690023 </i>
    <i name="XCdc">    146.61906742 </i>
    <i name="pawpsdc">   3594.79918582 </i>
    <i name="pawaedc">  -3604.20542068 </i>
    <i name="eentropy">      0.00000000 </i>
    <i name="bandstr">   -328.34713090 </i>
    <i name="atom">   3040.52701931 </i>
    <i name="e_fr_energy">    -39.88971916 </i>
    <i name="e_wo_entrp">    -39.88971916 </i>
    <i name="e_0_energy">    -39.88971916 </i>
   </energy>
  </scstep>
  <scstep>
   <time name="dav">    6.58    6.58</time>
   <time name="total">    7.07    7.08</time>
   <energy>
    <i name="e_fr_energy">    -39.88889508 </i>
    <i name="e_wo_entrp">    -39.88889508 </i>
    <i name="e_0_energy">    -39.88889508 </i>
   </energy>
  </scstep>
  <scstep>
   <time name="dav">    6.50    6.50</time>
   <time name="total">    7.00    7.01</time>
   <energy>
    <i name="e_fr_energy">    -39.88688745 </i>
    <i name="e_wo_entrp">    -39.88688745 </i>
    <i name="e_0_energy">    -39.88688745 </i>
   </energy>
  </scstep>
  <scstep>
   <time name="dav">    4.19    4.19</time>
   <time name="total">    4.29    4.30</time>
   <energy>
    <i name="alphaZ">    255.43339506 </i>
    <i name="ewald">  -2507.06893497 </i>
    <i name="hartreedc">   -638.01634550 </i>
    <i name="XCdc">    146.62454784 </i>
    <i name="pawpsdc">   3592.15308996 </i>
    <i name="pawaedc">  -3601.53931006 </i>
    <i name="eentropy">      0.00000000 </i>
    <i name="bandstr">   -328.00036409 </i>
    <i name="atom">   3040.52701931 </i>
    <i name="e_fr_energy">    -39.88690245 </i>
    <i name="e_wo_entrp">    -39.88690245 </i>
    <i name="e_0_energy">    -39.88690245 </i>
   </energy>
  </scstep>
  <v name="PION">      0.00000000       0.00000000      43.93436812 </v>
  <v name="PSP1">      2.01652199      -2.01652191      -1.80196441 </v>
  <v name="PSP2">      2.01652195      -2.01652194      -1.80196465 </v>
  <v name="PELC">      4.03304393      -4.03304385      -3.60392906 </v>
  <structure>
   <crystal>
    <varray name="basis" >
     <v>       4.03304400       0.00000000       0.00000000 </v>
     <v>       0.00000000       4.03304400       0.00000000 </v>
     <v>       0.00000000       0.00000000       4.03304400 </v>
    </varray>
    <i name="volume">     65.59925095 </i>
    <varray name="rec_basis" >
     <v>       0.24795167       0.00000000       0.00000000 </v>
     <v>       0.00000000       0.24795167       0.00000000 </v>
     <v>       0.00000000       0.00000000       0.24795167 </v>
    </varray>
   </crystal>
   <varray name="positions" >
    <v>       0.00000000       0.00000000       0.00280000 </v>
    <v>       0.50000000       0.50000000       0.50280000 </v>
    <v>       0.00000000       0.50000000       0.50280000 </v>
    <v>       0.50000000       0.00000000       0.50280000 </v>
    <v>       0.50000000       0.50000000       0.00280000 </v>
   </varray>
  </structure>
  <varray name="forces" >
   <v>       0.00000000      -0.00000000       0.00000000 </v>
   <v>       0.00000000      -0.00000000      -0.00000000 </v>
   <v>      -0.00000000      -0.00000000       0.00000000 </v>
   <v>       0.00000000       0.00000000      -0.00000000 </v>
   <v>       0.00000000       0.00000000       0.00000000 </v>
  </varray>
  <varray name="stress" >
   <v>       0.36501096       0.00000000      -0.00000000 </v>
   <v>       0.00000000       0.36501096      -0.00000000 </v>
   <v>      -0.00000000       0.00000000       0.36501096 </v>
  </varray>
  <energy>
   <i name="e_fr_energy">    -39.88690245 </i>
   <i name="e_wo_entrp">    -39.88690245 </i>
   <i name="e_0_energy">      0.00000000 </i>
  </energy>
  <time name="totalsc">  182.31  182.74</time>
  <eigenvalues>
   <array>
    <dimension dim="1">band</dimension>
    <dimension dim="2">kpoint</dimension>
    <dimension dim="3">spin</dimension>
    <field>eigene</field>
    <field>occ</field>
    <set>
     <set comment="spin 1">
      <set comment="kpoint 1">
       <r>  -29.9736    1.0000 </r>
       <r>  -29.9736    1.0000 </r>
       <r>  -29.9736    1.0000 </r>
       <r>  -21.8598    1.0000 </r>
       <r>  -13.8401    1.0000 </r>
       <r>  -13.1456    1.0000 </r>
       <r>  -13.1456    1.0000 </r>
       <r>   -7.0300    1.0000 </r>
       <r>   -7.0300    1.0000 </r>
       <r>   -7.0300    1.0000 </r>
       <r>    0.7046    1.0000 </r>
       <r>    0.7046    1.0000 </r>
       <r>    0.7046    1.0000 </r>
       <r>    1.9649    1.0000 </r>
       <r>    1.9649    1.0000 </r>
       <r>    1.9649    1.0000 </r>
       <r>    2.8614    1.0000 </r>
       <r>    2.8614    1.0000 </r>
       <r>    2.8614    1.0000 </r>
       <r>    4.6822    0.0000 </r>
       <r>    4.6822    0.0000 </r>
       <r>    4.6822    0.0000 </r>
       <r>    6.7266    0.0000 </r>
       <r>    6.7266    0.0000 </r>
      </set>
      <set comment="kpoint 2">
       <r>  -29.9803    1.0000 </r>
       <r>  -29.9733    1.0000 </r>
       <r>  -29.9733    1.0000 </r>
       <r>  -21.8446    1.0000 </r>
       <r>  -13.8431    1.0000 </r>
       <r>  -13.1407    1.0000 </r>
       <r>  -13.1370    1.0000 </r>
       <r>   -7.0082    1.0000 </r>
       <r>   -7.0082    1.0000 </r>
       <r>   -6.9740    1.0000 </r>
       <r>    0.4574    1.0000 </r>
       <r>    0.6660    1.0000 </r>
       <r>    0.6660    1.0000 </r>
       <r>    1.7868    1.0000 </r>
       <r>    1.7868    1.0000 </r>
       <r>    1.8276    1.0000 </r>
       <r>    2.4722    1.0000 </r>
       <r>    2.7488    1.0000 </r>
       <r>    2.7488    1.0000 </r>
       <r>    4.7030    0.0000 </r>
       <r>    4.9920    0.0000 </r>
       <r>    4.9920    0.0000 </r>
       <r>    6.7275    0.0000 </r>
       <r>    7.1484    0.0000 </r>
      </set>
      <set comment="kpoint 3">
       <r>  -29.9965    1.0000 </r>
       <r>  -29.9727    1.0000 </r>
       <r>  -29.9727    1.0000 </r>
       <r>  -21.8074    1.0000 </r>
       <r>  -13.8925    1.0000 </r>
       <r>  -13.1287    1.0000 </r>
       <r>  -13.0662    1.0000 </r>
       <r>   -6.9543    1.0000 </r>
       <r>   -6.9543    1.0000 </r>
       <r>   -6.8406    1.0000 </r>
       <r>   -0.1279    1.0000 </r>
       <r>    0.5405    1.0000 </r>
       <r>    0.5405    1.0000 </r>
       <r>    1.4690    1.0000 </r>
       <r>    1.4690    1.0000 </r>
       <r>    1.5295    1.0000 </r>
       <r>    1.7851    1.0000 </r>
       <r>    2.5429    1.0000 </r>
       <r>    2.5429    1.0000 </r>
       <r>    4.7542    0.0000 </r>
       <r>    5.6104    0.0000 </r>
       <r>    5.6104    0.0000 </r>
       <r>    6.7296    0.0000 </r>
       <r>    7.9089    0.0000 </r>
      </set>
      <set comment="kpoint 4">
       <r>  -30.0126    1.0000 </r>
       <r>  -29.9720    1.0000 </r>
       <r>  -29.9720    1.0000 </r>
       <r>  -21.7695    1.0000 </r>
       <r>  -13.9812    1.0000 </r>
       <r>  -13.1164    1.0000 </r>
       <r>  -12.9438    1.0000 </r>
       <r>   -6.8986    1.0000 </r>
       <r>   -6.8986    1.0000 </r>
       <r>   -6.7093    1.0000 </r>
       <r>   -0.6938    1.0000 </r>
       <r>    0.3670    1.0000 </r>
       <r>    0.3670    1.0000 </r>
       <r>    1.2668    1.0000 </r>
       <r>    1.2687    1.0000 </r>
       <r>    1.2687    1.0000 </r>
       <r>    1.2737    1.0000 </r>
       <r>    2.3752    1.0000 </r>
       <r>    2.3752    1.0000 </r>
       <r>    4.8069    0.0000 </r>
       <r>    6.1436    0.0000 </r>
       <r>    6.1436    0.0000 </r>
       <r>    6.7316    0.0000 </r>
       <r>    8.4816    0.0000 </r>
      </set>
      <set comment="kpoint 5">
       <r>  -30.0192    1.0000 </r>
       <r>  -29.9718    1.0000 </r>
       <r>  -29.9718    1.0000 </r>
       <r>  -21.7536    1.0000 </r>
       <r>  -14.0243    1.0000 </r>
       <r>  -13.1115    1.0000 </r>
       <r>  -12.8828    1.0000 </r>
       <r>   -6.8749    1.0000 </r>
       <r>   -6.8749    1.0000 </r>
       <r>   -6.6554    1.0000 </r>
       <r>   -0.9219    1.0000 </r>
       <r>    0.2837    1.0000 </r>
       <r>    0.2838    1.0000 </r>
       <r>    1.0905    1.0000 </r>
       <r>    1.1660    1.0000 </r>
       <r>    1.2101    1.0000 </r>
       <r>    1.2101    1.0000 </r>
       <r>    2.3123    1.0000 </r>
       <r>    2.3123    1.0000 </r>
       <r>    4.8292    0.0000 </r>
       <r>    6.3516    0.0000 </r>
       <r>    6.3516    0.0000 </r>
       <r>    6.7324    0.0000 </r>
       <r>    8.6864    0.0000 </r>
      </set>
      <set comment="kpoint 6">
       <r>  -29.9802    1.0000 </r>
       <r>  -29.9798    1.0000 </r>
       <r>  -29.9730    1.0000 </r>
       <r>  -21.8301    1.0000 </r>
       <r>  -13.8340    1.0000 </r>
       <r>  -13.1398    1.0000 </r>
       <r>  -13.1300    1.0000 </r>
       <r>   -7.0341    1.0000 </r>
       <r>   -6.9858    1.0000 </r>
       <r>   -6.8946    1.0000 </r>
       <r>    0.3040    1.0000 </r>
       <r>    0.5417    1.0000 </r>
       <r>    0.6380    1.0000 </r>
       <r>    1.4176    1.0000 </r>
       <r>    1.6242    1.0000 </r>
       <r>    1.9739    1.0000 </r>
       <r>    2.2209    1.0000 </r>
       <r>    2.6164    1.0000 </r>
       <r>    2.6188    1.0000 </r>
       <r>    4.9660    0.0000 </r>
       <r>    5.0468    0.0000 </r>
       <r>    5.1859    0.0000 </r>
       <r>    6.9338    0.0000 </r>
       <r>    7.3764    0.0000 </r>
      </set>
      <set comment="kpoint 7">
       <r>  -29.9961    1.0000 </r>
       <r>  -29.9793    1.0000 </r>
       <r>  -29.9724    1.0000 </r>
       <r>  -21.7947    1.0000 </r>
       <r>  -13.8537    1.0000 </r>
       <r>  -13.1236    1.0000 </r>
       <r>  -13.0784    1.0000 </r>
       <r>   -7.0074    1.0000 </r>
       <r>   -6.9305    1.0000 </r>
       <r>   -6.7948    1.0000 </r>
       <r>   -0.1993    1.0000 </r>
       <r>    0.3700    1.0000 </r>
       <r>    0.5367    1.0000 </r>
       <r>    0.9592    1.0000 </r>
       <r>    1.3223    1.0000 </r>
       <r>    1.6882    1.0000 </r>
       <r>    1.9493    1.0000 </r>
       <r>    2.3774    1.0000 </r>
       <r>    2.4414    1.0000 </r>
       <r>    5.0392    0.0000 </r>
       <r>    5.6208    0.0000 </r>
       <r>    5.6749    0.0000 </r>
       <r>    7.0037    0.0000 </r>
       <r>    8.0955    0.0000 </r>
      </set>
      <set comment="kpoint 8">
       <r>  -30.0122    1.0000 </r>
       <r>  -29.9787    1.0000 </r>
       <r>  -29.9718    1.0000 </r>
       <r>  -21.7588    1.0000 </r>
       <r>  -13.9190    1.0000 </r>
       <r>  -13.1069    1.0000 </r>
       <r>  -12.9708    1.0000 </r>
       <r>   -6.9448    1.0000 </r>
       <r>   -6.8731    1.0000 </r>
       <r>   -6.7350    1.0000 </r>
       <r>   -0.7292    1.0000 </r>
       <r>    0.2405    1.0000 </r>
       <r>    0.3771    1.0000 </r>
       <r>    0.5478    1.0000 </r>
       <r>    1.1349    1.0000 </r>
       <r>    1.3943    1.0000 </r>
       <r>    1.8946    1.0000 </r>
       <r>    2.1861    1.0000 </r>
       <r>    2.2201    1.0000 </r>
       <r>    5.0821    0.0000 </r>
       <r>    6.1461    0.0000 </r>
       <r>    6.1654    0.0000 </r>
       <r>    7.0133    0.0000 </r>
       <r>    8.6770    0.0000 </r>
      </set>
      <set comment="kpoint 9">
       <r>  -30.0188    1.0000 </r>
       <r>  -29.9784    1.0000 </r>
       <r>  -29.9715    1.0000 </r>
       <r>  -21.7437    1.0000 </r>
       <r>  -13.9545    1.0000 </r>
       <r>  -13.1002    1.0000 </r>
       <r>  -12.9140    1.0000 </r>
       <r>   -6.9092    1.0000 </r>
       <r>   -6.8488    1.0000 </r>
       <r>   -6.7211    1.0000 </r>
       <r>   -0.9489    1.0000 </r>
       <r>    0.2205    1.0000 </r>
       <r>    0.2958    1.0000 </r>
       <r>    0.3591    1.0000 </r>
       <r>    1.0837    1.0000 </r>
       <r>    1.2971    1.0000 </r>
       <r>    1.9325    1.0000 </r>
       <r>    2.0743    1.0000 </r>
       <r>    2.1145    1.0000 </r>
       <r>    5.1001    0.0000 </r>
       <r>    6.3518    0.0000 </r>
       <r>    6.3693    0.0000 </r>
       <r>    7.0128    0.0000 </r>
       <r>    8.8855    0.0000 </r>
      </set>
      <set comment="kpoint 10">
       <r>  -29.9957    1.0000 </r>
       <r>  -29.9950    1.0000 </r>
       <r>  -29.9718    1.0000 </r>
       <r>  -21.7638    1.0000 </r>
       <r>  -13.7858    1.0000 </r>
       <r>  -13.1241    1.0000 </r>
       <r>  -13.0644    1.0000 </r>
       <r>   -7.0467    1.0000 </r>
       <r>   -6.8713    1.0000 </r>
       <r>   -6.7755    1.0000 </r>
       <r>   -0.4312    1.0000 </r>
       <r>    0.0202    1.0000 </r>
       <r>    0.3791    1.0000 </r>
       <r>    0.5066    1.0000 </r>
       <r>    1.0205    1.0000 </r>
       <r>    1.5472    1.0000 </r>
       <r>    2.0301    1.0000 </r>
       <r>    2.0716    1.0000 </r>
       <r>    2.5217    1.0000 </r>
       <r>    5.5713    0.0000 </r>
       <r>    5.6963    0.0000 </r>
       <r>    5.9353    0.0000 </r>
       <r>    7.2764    0.0000 </r>
       <r>    8.6877    0.0000 </r>
      </set>
      <set comment="kpoint 11">
       <r>  -30.0113    1.0000 </r>
       <r>  -29.9945    1.0000 </r>
       <r>  -29.9712    1.0000 </r>
       <r>  -21.7325    1.0000 </r>
       <r>  -13.7670    1.0000 </r>
       <r>  -13.0979    1.0000 </r>
       <r>  -13.0193    1.0000 </r>
       <r>   -7.0237    1.0000 </r>
       <r>   -6.8214    1.0000 </r>
       <r>   -6.8100    1.0000 </r>
       <r>   -0.8165    1.0000 </r>
       <r>   -0.2068    1.0000 </r>
       <r>   -0.0594    1.0000 </r>
       <r>    0.4036    1.0000 </r>
       <r>    0.8295    1.0000 </r>
       <r>    1.5678    1.0000 </r>
       <r>    1.8253    1.0000 </r>
       <r>    1.9927    1.0000 </r>
       <r>    2.5360    1.0000 </r>
       <r>    5.6501    0.0000 </r>
       <r>    6.1537    0.0000 </r>
       <r>    6.2973    0.0000 </r>
       <r>    7.3587    0.0000 </r>
       <r>    9.2662    0.0000 </r>
      </set>
      <set comment="kpoint 12">
       <r>  -30.0178    1.0000 </r>
       <r>  -29.9942    1.0000 </r>
       <r>  -29.9709    1.0000 </r>
       <r>  -21.7194    1.0000 </r>
       <r>  -13.7739    1.0000 </r>
       <r>  -13.0802    1.0000 </r>
       <r>  -12.9898    1.0000 </r>
       <r>   -6.9829    1.0000 </r>
       <r>   -6.8723    1.0000 </r>
       <r>   -6.7839    1.0000 </r>
       <r>   -1.0112    1.0000 </r>
       <r>   -0.3238    1.0000 </r>
       <r>   -0.1570    1.0000 </r>
       <r>    0.3300    1.0000 </r>
       <r>    0.7908    1.0000 </r>
       <r>    1.6544    1.0000 </r>
       <r>    1.7321    1.0000 </r>
       <r>    1.9136    1.0000 </r>
       <r>    2.5160    1.0000 </r>
       <r>    5.6620    0.0000 </r>
       <r>    6.3531    0.0000 </r>
       <r>    6.4703    0.0000 </r>
       <r>    7.3747    0.0000 </r>
       <r>    9.4822    0.0000 </r>
      </set>
      <set comment="kpoint 13">
       <r>  -30.0105    1.0000 </r>
       <r>  -30.0101    1.0000 </r>
       <r>  -29.9706    1.0000 </r>
       <r>  -21.7059    1.0000 </r>
       <r>  -13.6196    1.0000 </r>
       <r>  -13.1064    1.0000 </r>
       <r>  -13.0393    1.0000 </r>
       <r>   -7.0617    1.0000 </r>
       <r>   -6.9368    1.0000 </r>
       <r>   -6.7443    1.0000 </r>
       <r>   -0.9854    1.0000 </r>
       <r>   -0.5970    1.0000 </r>
       <r>   -0.5425    1.0000 </r>
       <r>    0.4184    1.0000 </r>
       <r>    0.5642    1.0000 </r>
       <r>    1.5296    1.0000 </r>
       <r>    1.7914    1.0000 </r>
       <r>    2.0975    1.0000 </r>
       <r>    2.7727    1.0000 </r>
       <r>    6.1304    0.0000 </r>
       <r>    6.1837    0.0000 </r>
       <r>    6.5302    0.0000 </r>
       <r>    7.4907    0.0000 </r>
       <r>    9.8894    0.0000 </r>
      </set>
      <set comment="kpoint 14">
       <r>  -30.0168    1.0000 </r>
       <r>  -30.0099    1.0000 </r>
       <r>  -29.9704    1.0000 </r>
       <r>  -21.6948    1.0000 </r>
       <r>  -13.5658    1.0000 </r>
       <r>  -13.0819    1.0000 </r>
       <r>  -13.0665    1.0000 </r>
       <r>   -7.0453    1.0000 </r>
       <r>   -7.0130    1.0000 </r>
       <r>   -6.7163    1.0000 </r>
       <r>   -1.1241    1.0000 </r>
       <r>   -0.7817    1.0000 </r>
       <r>   -0.6282    1.0000 </r>
       <r>    0.3756    1.0000 </r>
       <r>    0.5122    1.0000 </r>
       <r>    1.4158    1.0000 </r>
       <r>    1.9979    1.0000 </r>
       <r>    2.0462    1.0000 </r>
       <r>    2.8351    1.0000 </r>
       <r>    6.1601    0.0000 </r>
       <r>    6.3556    0.0000 </r>
       <r>    6.6556    0.0000 </r>
       <r>    7.5188    0.0000 </r>
       <r>   10.1337    0.0000 </r>
      </set>
      <set comment="kpoint 15">
       <r>  -30.0164    1.0000 </r>
       <r>  -30.0164    1.0000 </r>
       <r>  -29.9701    1.0000 </r>
       <r>  -21.6845    1.0000 </r>
       <r>  -13.4618    1.0000 </r>
       <r>  -13.0985    1.0000 </r>
       <r>  -13.0985    1.0000 </r>
       <r>   -7.0681    1.0000 </r>
       <r>   -7.0681    1.0000 </r>
       <r>   -6.6874    1.0000 </r>
       <r>   -1.2316    1.0000 </r>
       <r>   -0.9429    1.0000 </r>
       <r>   -0.7702    1.0000 </r>
       <r>    0.4002    1.0000 </r>
       <r>    0.4002    1.0000 </r>
       <r>    1.2932    1.0000 </r>
       <r>    2.1362    1.0000 </r>
       <r>    2.1362    1.0000 </r>
       <r>    2.9274    1.0000 </r>
       <r>    6.3568    0.0000 </r>
       <r>    6.3568    0.0000 </r>
       <r>    6.7577    0.0000 </r>
       <r>    7.5489    0.0000 </r>
       <r>   10.3996    0.0000 </r>
      </set>
      <set comment="kpoint 16">
       <r>  -29.9800    1.0000 </r>
       <r>  -29.9796    1.0000 </r>
       <r>  -29.9796    1.0000 </r>
       <r>  -21.8163    1.0000 </r>
       <r>  -13.8157    1.0000 </r>
       <r>  -13.1323    1.0000 </r>
       <r>  -13.1323    1.0000 </r>
       <r>   -7.0299    1.0000 </r>
       <r>   -7.0299    1.0000 </r>
       <r>   -6.8042    1.0000 </r>
       <r>    0.1493    1.0000 </r>
       <r>    0.5183    1.0000 </r>
       <r>    0.5183    1.0000 </r>
       <r>    1.3301    1.0000 </r>
       <r>    1.3301    1.0000 </r>
       <r>    1.9279    1.0000 </r>
       <r>    2.1051    1.0000 </r>
       <r>    2.5302    1.0000 </r>
       <r>    2.5302    1.0000 </r>
       <r>    5.1620    0.0000 </r>
       <r>    5.2289    0.0000 </r>
       <r>    5.2289    0.0000 </r>
       <r>    7.3754    0.0000 </r>
       <r>    7.3754    0.0000 </r>
      </set>
      <set comment="kpoint 17">
       <r>  -29.9958    1.0000 </r>
       <r>  -29.9792    1.0000 </r>
       <r>  -29.9789    1.0000 </r>
       <r>  -21.7825    1.0000 </r>
       <r>  -13.8111    1.0000 </r>
       <r>  -13.1137    1.0000 </r>
       <r>  -13.0913    1.0000 </r>
       <r>   -7.0203    1.0000 </r>
       <r>   -7.0150    1.0000 </r>
       <r>   -6.7113    1.0000 </r>
       <r>   -0.2815    1.0000 </r>
       <r>    0.2822    1.0000 </r>
       <r>    0.4401    1.0000 </r>
       <r>    0.9727    1.0000 </r>
       <r>    0.9851    1.0000 </r>
       <r>    1.5742    1.0000 </r>
       <r>    2.0803    1.0000 </r>
       <r>    2.3293    1.0000 </r>
       <r>    2.3643    1.0000 </r>
       <r>    5.2492    0.0000 </r>
       <r>    5.6943    0.0000 </r>
       <r>    5.7008    0.0000 </r>
       <r>    7.3711    0.0000 </r>
       <r>    8.1876    0.0000 </r>
      </set>
      <set comment="kpoint 18">
       <r>  -30.0118    1.0000 </r>
       <r>  -29.9785    1.0000 </r>
       <r>  -29.9783    1.0000 </r>
       <r>  -21.7483    1.0000 </r>
       <r>  -13.8558    1.0000 </r>
       <r>  -13.0950    1.0000 </r>
       <r>  -12.9913    1.0000 </r>
       <r>   -7.0115    1.0000 </r>
       <r>   -6.9188    1.0000 </r>
       <r>   -6.7056    1.0000 </r>
       <r>   -0.7613    1.0000 </r>
       <r>    0.1156    1.0000 </r>
       <r>    0.3347    1.0000 </r>
       <r>    0.4946    1.0000 </r>
       <r>    0.7973    1.0000 </r>
       <r>    1.5983    1.0000 </r>
       <r>    1.9472    1.0000 </r>
       <r>    2.1247    1.0000 </r>
       <r>    2.1438    1.0000 </r>
       <r>    5.2963    0.0000 </r>
       <r>    6.1772    0.0000 </r>
       <r>    6.1838    0.0000 </r>
       <r>    7.3619    0.0000 </r>
       <r>    8.8011    0.0000 </r>
      </set>
      <set comment="kpoint 19">
       <r>  -30.0184    1.0000 </r>
       <r>  -29.9782    1.0000 </r>
       <r>  -29.9780    1.0000 </r>
       <r>  -21.7339    1.0000 </r>
       <r>  -13.8843    1.0000 </r>
       <r>  -13.0872    1.0000 </r>
       <r>  -12.9367    1.0000 </r>
       <r>   -7.0080    1.0000 </r>
       <r>   -6.7930    1.0000 </r>
       <r>   -6.7911    1.0000 </r>
       <r>   -0.9708    1.0000 </r>
       <r>    0.1723    1.0000 </r>
       <r>    0.1959    1.0000 </r>
       <r>    0.2885    1.0000 </r>
       <r>    0.7398    1.0000 </r>
       <r>    1.7230    1.0000 </r>
       <r>    1.8829    1.0000 </r>
       <r>    1.9355    1.0000 </r>
       <r>    2.0703    1.0000 </r>
       <r>    5.3149    0.0000 </r>
       <r>    6.3796    0.0000 </r>
       <r>    6.3820    0.0000 </r>
       <r>    7.3549    0.0000 </r>
       <r>    9.0187    0.0000 </r>
      </set>
      <set comment="kpoint 20">
       <r>  -29.9953    1.0000 </r>
       <r>  -29.9947    1.0000 </r>
       <r>  -29.9784    1.0000 </r>
       <r>  -21.7528    1.0000 </r>
       <r>  -13.7321    1.0000 </r>
       <r>  -13.1102    1.0000 </r>
       <r>  -13.0730    1.0000 </r>
       <r>   -7.0845    1.0000 </r>
       <r>   -7.0371    1.0000 </r>
       <r>   -6.6637    1.0000 </r>
       <r>   -0.5069    1.0000 </r>
       <r>    0.0131    1.0000 </r>
       <r>    0.2441    1.0000 </r>
       <r>    0.5939    1.0000 </r>
       <r>    0.8826    1.0000 </r>
       <r>    1.2189    1.0000 </r>
       <r>    2.1220    1.0000 </r>
       <r>    2.2023    1.0000 </r>
       <r>    2.4633    1.0000 </r>
       <r>    5.6965    0.0000 </r>
       <r>    5.7856    0.0000 </r>
       <r>    5.9682    0.0000 </r>
       <r>    7.7467    0.0000 </r>
       <r>    8.6824    0.0000 </r>
      </set>
      <set comment="kpoint 21">
       <r>  -30.0109    1.0000 </r>
       <r>  -29.9942    1.0000 </r>
       <r>  -29.9778    1.0000 </r>
       <r>  -21.7227    1.0000 </r>
       <r>  -13.7012    1.0000 </r>
       <r>  -13.0808    1.0000 </r>
       <r>  -13.0251    1.0000 </r>
       <r>   -7.1039    1.0000 </r>
       <r>   -7.0115    1.0000 </r>
       <r>   -6.7156    1.0000 </r>
       <r>   -0.8363    1.0000 </r>
       <r>   -0.2346    1.0000 </r>
       <r>   -0.0244    1.0000 </r>
       <r>    0.3889    1.0000 </r>
       <r>    0.7096    1.0000 </r>
       <r>    1.2551    1.0000 </r>
       <r>    1.9582    1.0000 </r>
       <r>    2.1272    1.0000 </r>
       <r>    2.5057    1.0000 </r>
       <r>    5.7801    0.0000 </r>
       <r>    6.2141    0.0000 </r>
       <r>    6.3276    0.0000 </r>
       <r>    7.8159    0.0000 </r>
       <r>    9.2790    0.0000 </r>
      </set>
      <set comment="kpoint 22">
       <r>  -30.0175    1.0000 </r>
       <r>  -29.9939    1.0000 </r>
       <r>  -29.9775    1.0000 </r>
       <r>  -21.7100    1.0000 </r>
       <r>  -13.7034    1.0000 </r>
       <r>  -13.0631    1.0000 </r>
       <r>  -12.9930    1.0000 </r>
       <r>   -7.1142    1.0000 </r>
       <r>   -6.9528    1.0000 </r>
       <r>   -6.7848    1.0000 </r>
       <r>   -1.0210    1.0000 </r>
       <r>   -0.2823    1.0000 </r>
       <r>   -0.1410    1.0000 </r>
       <r>    0.3025    1.0000 </r>
       <r>    0.6638    1.0000 </r>
       <r>    1.3185    1.0000 </r>
       <r>    1.9649    1.0000 </r>
       <r>    1.9964    1.0000 </r>
       <r>    2.4978    1.0000 </r>
       <r>    5.7984    0.0000 </r>
       <r>    6.4067    0.0000 </r>
       <r>    6.4968    0.0000 </r>
       <r>    7.8220    0.0000 </r>
       <r>    9.5046    0.0000 </r>
      </set>
      <set comment="kpoint 23">
       <r>  -30.0102    1.0000 </r>
       <r>  -30.0099    1.0000 </r>
       <r>  -29.9771    1.0000 </r>
       <r>  -21.6968    1.0000 </r>
       <r>  -13.5503    1.0000 </r>
       <r>  -13.0864    1.0000 </r>
       <r>  -13.0297    1.0000 </r>
       <r>   -7.1405    1.0000 </r>
       <r>   -7.0954    1.0000 </r>
       <r>   -6.7826    1.0000 </r>
       <r>   -0.9824    1.0000 </r>
       <r>   -0.5428    1.0000 </r>
       <r>   -0.4640    1.0000 </r>
       <r>    0.4088    1.0000 </r>
       <r>    0.5701    1.0000 </r>
       <r>    1.0976    1.0000 </r>
       <r>    1.9716    1.0000 </r>
       <r>    2.2095    1.0000 </r>
       <r>    2.7666    1.0000 </r>
       <r>    6.2188    0.0000 </r>
       <r>    6.2648    0.0000 </r>
       <r>    6.5633    0.0000 </r>
       <r>    7.9660    0.0000 </r>
       <r>    9.8826    0.0000 </r>
      </set>
      <set comment="kpoint 24">
       <r>  -30.0165    1.0000 </r>
       <r>  -30.0096    1.0000 </r>
       <r>  -29.9769    1.0000 </r>
       <r>  -21.6859    1.0000 </r>
       <r>  -13.4947    1.0000 </r>
       <r>  -13.0603    1.0000 </r>
       <r>  -13.0513    1.0000 </r>
       <r>   -7.1603    1.0000 </r>
       <r>   -7.1041    1.0000 </r>
       <r>   -6.8294    1.0000 </r>
       <r>   -1.1222    1.0000 </r>
       <r>   -0.6245    1.0000 </r>
       <r>   -0.5905    1.0000 </r>
       <r>    0.3885    1.0000 </r>
       <r>    0.5327    1.0000 </r>
       <r>    1.0262    1.0000 </r>
       <r>    2.1316    1.0000 </r>
       <r>    2.1352    1.0000 </r>
       <r>    2.8383    1.0000 </r>
       <r>    6.2535    0.0000 </r>
       <r>    6.4305    0.0000 </r>
       <r>    6.6878    0.0000 </r>
       <r>    7.9889    0.0000 </r>
       <r>   10.1295    0.0000 </r>
      </set>
      <set comment="kpoint 25">
       <r>  -30.0161    1.0000 </r>
       <r>  -30.0161    1.0000 </r>
       <r>  -29.9766    1.0000 </r>
       <r>  -21.6758    1.0000 </r>
       <r>  -13.3893    1.0000 </r>
       <r>  -13.0759    1.0000 </r>
       <r>  -13.0759    1.0000 </r>
       <r>   -7.1637    1.0000 </r>
       <r>   -7.1637    1.0000 </r>
       <r>   -6.8621    1.0000 </r>
       <r>   -1.2286    1.0000 </r>
       <r>   -0.7679    1.0000 </r>
       <r>   -0.6891    1.0000 </r>
       <r>    0.4562    1.0000 </r>
       <r>    0.4562    1.0000 </r>
       <r>    0.8804    1.0000 </r>
       <r>    2.2257    1.0000 </r>
       <r>    2.2257    1.0000 </r>
       <r>    2.9399    1.0000 </r>
       <r>    6.4400    0.0000 </r>
       <r>    6.4400    0.0000 </r>
       <r>    6.7911    0.0000 </r>
       <r>    8.0129    0.0000 </r>
       <r>   10.5658    0.0000 </r>
      </set>
      <set comment="kpoint 26">
       <r>  -29.9948    1.0000 </r>
       <r>  -29.9941    1.0000 </r>
       <r>  -29.9941    1.0000 </r>
       <r>  -21.7259    1.0000 </r>
       <r>  -13.6168    1.0000 </r>
       <r>  -13.0764    1.0000 </r>
       <r>  -13.0764    1.0000 </r>
       <r>   -7.1763    1.0000 </r>
       <r>   -7.1763    1.0000 </r>
       <r>   -6.6610    1.0000 </r>
       <r>   -0.6520    1.0000 </r>
       <r>   -0.0048    1.0000 </r>
       <r>   -0.0048    1.0000 </r>
       <r>    0.5148    1.0000 </r>
       <r>    0.6965    1.0000 </r>
       <r>    0.6965    1.0000 </r>
       <r>    2.3007    1.0000 </r>
       <r>    2.3007    1.0000 </r>
       <r>    2.4610    1.0000 </r>
       <r>    6.0322    0.0000 </r>
       <r>    6.0495    0.0000 </r>
       <r>    6.0495    0.0000 </r>
       <r>    8.6651    0.0000 </r>
       <r>    8.6651    0.0000 </r>
      </set>
      <set comment="kpoint 27">
       <r>  -30.0101    1.0000 </r>
       <r>  -29.9937    1.0000 </r>
       <r>  -29.9934    1.0000 </r>
       <r>  -21.6987    1.0000 </r>
       <r>  -13.5393    1.0000 </r>
       <r>  -13.0415    1.0000 </r>
       <r>  -13.0363    1.0000 </r>
       <r>   -7.2691    1.0000 </r>
       <r>   -7.1896    1.0000 </r>
       <r>   -6.7907    1.0000 </r>
       <r>   -0.8695    1.0000 </r>
       <r>   -0.2906    1.0000 </r>
       <r>   -0.0214    1.0000 </r>
       <r>    0.1212    1.0000 </r>
       <r>    0.6034    1.0000 </r>
       <r>    0.7880    1.0000 </r>
       <r>    2.1819    1.0000 </r>
       <r>    2.3999    1.0000 </r>
       <r>    2.5376    1.0000 </r>
       <r>    6.1128    0.0000 </r>
       <r>    6.3911    0.0000 </r>
       <r>    6.4056    0.0000 </r>
       <r>    8.6387    0.0000 </r>
       <r>    9.3928    0.0000 </r>
      </set>
      <set comment="kpoint 28">
       <r>  -30.0166    1.0000 </r>
       <r>  -29.9934    1.0000 </r>
       <r>  -29.9931    1.0000 </r>
       <r>  -21.6873    1.0000 </r>
       <r>  -13.5226    1.0000 </r>
       <r>  -13.0269    1.0000 </r>
       <r>  -13.0023    1.0000 </r>
       <r>   -7.3078    1.0000 </r>
       <r>   -7.1397    1.0000 </r>
       <r>   -6.9008    1.0000 </r>
       <r>   -1.0458    1.0000 </r>
       <r>   -0.2160    1.0000 </r>
       <r>   -0.1381    1.0000 </r>
       <r>   -0.0269    1.0000 </r>
       <r>    0.5805    1.0000 </r>
       <r>    0.8636    1.0000 </r>
       <r>    2.1336    1.0000 </r>
       <r>    2.4096    1.0000 </r>
       <r>    2.5405    1.0000 </r>
       <r>    6.1398    0.0000 </r>
       <r>    6.5578    0.0000 </r>
       <r>    6.5642    0.0000 </r>
       <r>    8.6234    0.0000 </r>
       <r>    9.6502    0.0000 </r>
      </set>
      <set comment="kpoint 29">
       <r>  -30.0094    1.0000 </r>
       <r>  -30.0091    1.0000 </r>
       <r>  -29.9929    1.0000 </r>
       <r>  -21.6745    1.0000 </r>
       <r>  -13.3777    1.0000 </r>
       <r>  -13.0368    1.0000 </r>
       <r>  -13.0068    1.0000 </r>
       <r>   -7.3523    1.0000 </r>
       <r>   -7.3267    1.0000 </r>
       <r>   -6.9777    1.0000 </r>
       <r>   -0.9793    1.0000 </r>
       <r>   -0.5419    1.0000 </r>
       <r>   -0.1885    1.0000 </r>
       <r>    0.0693    1.0000 </r>
       <r>    0.5789    1.0000 </r>
       <r>    0.6501    1.0000 </r>
       <r>    2.3129    1.0000 </r>
       <r>    2.4625    1.0000 </r>
       <r>    2.7728    1.0000 </r>
       <r>    6.4580    0.0000 </r>
       <r>    6.4763    0.0000 </r>
       <r>    6.6437    0.0000 </r>
       <r>    8.9399    0.0000 </r>
       <r>    9.8519    0.0000 </r>
      </set>
      <set comment="kpoint 30">
       <r>  -30.0157    1.0000 </r>
       <r>  -30.0089    1.0000 </r>
       <r>  -29.9926    1.0000 </r>
       <r>  -21.6643    1.0000 </r>
       <r>  -13.3157    1.0000 </r>
       <r>  -13.0141    1.0000 </r>
       <r>  -13.0084    1.0000 </r>
       <r>   -7.4014    1.0000 </r>
       <r>   -7.3166    1.0000 </r>
       <r>   -7.1036    1.0000 </r>
       <r>   -1.1293    1.0000 </r>
       <r>   -0.6158    1.0000 </r>
       <r>   -0.1564    1.0000 </r>
       <r>    0.0031    1.0000 </r>
       <r>    0.5634    1.0000 </r>
       <r>    0.6458    1.0000 </r>
       <r>    2.3741    1.0000 </r>
       <r>    2.4740    1.0000 </r>
       <r>    2.8548    1.0000 </r>
       <r>    6.4949    0.0000 </r>
       <r>    6.6244    0.0000 </r>
       <r>    6.7672    0.0000 </r>
       <r>    8.9513    0.0000 </r>
       <r>   10.1056    0.0000 </r>
      </set>
      <set comment="kpoint 31">
       <r>  -30.0154    1.0000 </r>
       <r>  -30.0154    1.0000 </r>
       <r>  -29.9923    1.0000 </r>
       <r>  -21.6548    1.0000 </r>
       <r>  -13.2083    1.0000 </r>
       <r>  -13.0198    1.0000 </r>
       <r>  -13.0198    1.0000 </r>
       <r>   -7.3870    1.0000 </r>
       <r>   -7.3870    1.0000 </r>
       <r>   -7.2369    1.0000 </r>
       <r>   -1.2368    1.0000 </r>
       <r>   -0.7622    1.0000 </r>
       <r>   -0.1228    1.0000 </r>
       <r>    0.0533    1.0000 </r>
       <r>    0.5478    1.0000 </r>
       <r>    0.5478    1.0000 </r>
       <r>    2.4984    1.0000 </r>
       <r>    2.4984    1.0000 </r>
       <r>    2.9705    1.0000 </r>
       <r>    6.6501    0.0000 </r>
       <r>    6.6501    0.0000 </r>
       <r>    6.8733    0.0000 </r>
       <r>    8.9588    0.0000 </r>
       <r>   10.2861    0.0000 </r>
      </set>
      <set comment="kpoint 32">
       <r>  -30.0087    1.0000 </r>
       <r>  -30.0084    1.0000 </r>
       <r>  -30.0084    1.0000 </r>
       <r>  -21.6520    1.0000 </r>
       <r>  -13.1967    1.0000 </r>
       <r>  -12.9852    1.0000 </r>
       <r>  -12.9852    1.0000 </r>
       <r>   -7.5080    1.0000 </r>
       <r>   -7.5080    1.0000 </r>
       <r>   -7.2433    1.0000 </r>
       <r>   -1.0718    1.0000 </r>
       <r>   -0.5393    1.0000 </r>
       <r>   -0.5392    1.0000 </r>
       <r>    0.1752    1.0000 </r>
       <r>    0.5811    1.0000 </r>
       <r>    0.5811    1.0000 </r>
       <r>    2.6510    1.0000 </r>
       <r>    2.6510    1.0000 </r>
       <r>    2.8455    1.0000 </r>
       <r>    6.7252    0.0000 </r>
       <r>    6.7266    0.0000 </r>
       <r>    6.7266    0.0000 </r>
       <r>    9.7612    0.0000 </r>
       <r>    9.7612    0.0000 </r>
      </set>
      <set comment="kpoint 33">
       <r>  -30.0149    1.0000 </r>
       <r>  -30.0083    1.0000 </r>
       <r>  -30.0081    1.0000 </r>
       <r>  -21.6426    1.0000 </r>
       <r>  -13.1191    1.0000 </r>
       <r>  -12.9765    1.0000 </r>
       <r>  -12.9631    1.0000 </r>
       <r>   -7.5819    1.0000 </r>
       <r>   -7.5200    1.0000 </r>
       <r>   -7.3975    1.0000 </r>
       <r>   -1.2099    1.0000 </r>
       <r>   -0.6442    1.0000 </r>
       <r>   -0.5377    1.0000 </r>
       <r>    0.2439    1.0000 </r>
       <r>    0.5803    1.0000 </r>
       <r>    0.6071    1.0000 </r>
       <r>    2.6936    1.0000 </r>
       <r>    2.7855    1.0000 </r>
       <r>    2.9107    1.0000 </r>
       <r>    6.7607    0.0000 </r>
       <r>    6.8481    0.0000 </r>
       <r>    6.8499    0.0000 </r>
       <r>    9.6740    0.0000 </r>
       <r>    9.9792    0.0000 </r>
      </set>
      <set comment="kpoint 34">
       <r>  -30.0146    1.0000 </r>
       <r>  -30.0146    1.0000 </r>
       <r>  -30.0079    1.0000 </r>
       <r>  -21.6335    1.0000 </r>
       <r>  -13.0177    1.0000 </r>
       <r>  -12.9609    1.0000 </r>
       <r>  -12.9609    1.0000 </r>
       <r>   -7.6020    1.0000 </r>
       <r>   -7.6020    1.0000 </r>
       <r>   -7.5640    1.0000 </r>
       <r>   -1.3157    1.0000 </r>
       <r>   -0.7566    1.0000 </r>
       <r>   -0.5769    1.0000 </r>
       <r>    0.3953    1.0000 </r>
       <r>    0.5912    1.0000 </r>
       <r>    0.5912    1.0000 </r>
       <r>    2.8477    1.0000 </r>
       <r>    2.8477    1.0000 </r>
       <r>    3.0016    1.0000 </r>
       <r>    6.8835    0.0000 </r>
       <r>    6.8835    0.0000 </r>
       <r>    6.9577    0.0000 </r>
       <r>    9.5946    0.0000 </r>
       <r>   10.0113    0.0000 </r>
      </set>
      <set comment="kpoint 35">
       <r>  -30.0143    1.0000 </r>
       <r>  -30.0143    1.0000 </r>
       <r>  -30.0143    1.0000 </r>
       <r>  -21.6246    1.0000 </r>
       <r>  -12.9355    1.0000 </r>
       <r>  -12.9355    1.0000 </r>
       <r>  -12.9355    1.0000 </r>
       <r>   -7.6890    1.0000 </r>
       <r>   -7.6890    1.0000 </r>
       <r>   -7.6890    1.0000 </r>
       <r>   -1.4088    1.0000 </r>
       <r>   -0.7542    1.0000 </r>
       <r>   -0.7542    1.0000 </r>
       <r>    0.5990    1.0000 </r>
       <r>    0.5990    1.0000 </r>
       <r>    0.5990    1.0000 </r>
       <r>    3.0146    1.0000 </r>
       <r>    3.0146    1.0000 </r>
       <r>    3.0146    1.0000 </r>
       <r>    6.9933    0.0000 </r>
       <r>    6.9933    0.0000 </r>
       <r>    6.9933    0.0000 </r>
       <r>    9.6418    0.0000 </r>
       <r>    9.6418    0.0000 </r>
      </set>
     </set>
     <set comment="spin 2">
      <set comment="kpoint 1">
       <r>  -29.9736    1.0000 </r>
       <r>  -29.9736    1.0000 </r>
       <r>  -29.9736    1.0000 </r>
       <r>  -21.8598    1.0000 </r>
       <r>  -13.8401    1.0000 </r>
       <r>  -13.1456    1.0000 </r>
       <r>  -13.1456    1.0000 </r>
       <r>   -7.0300    1.0000 </r>
       <r>   -7.0300    1.0000 </r>
       <r>   -7.0300    1.0000 </r>
       <r>    0.7046    1.0000 </r>
       <r>    0.7046    1.0000 </r>
       <r>    0.7046    1.0000 </r>
       <r>    1.9649    1.0000 </r>
       <r>    1.9649    1.0000 </r>
       <r>    1.9649    1.0000 </r>
       <r>    2.8614    1.0000 </r>
       <r>    2.8614    1.0000 </r>
       <r>    2.8614    1.0000 </r>
       <r>    4.6822    0.0000 </r>
       <r>    4.6822    0.0000 </r>
       <r>    4.6822    0.0000 </r>
       <r>    6.7266    0.0000 </r>
       <r>    6.7266    0.0000 </r>
      </set>
      <set comment="kpoint 2">
       <r>  -29.9803    1.0000 </r>
       <r>  -29.9733    1.0000 </r>
       <r>  -29.9733    1.0000 </r>
       <r>  -21.8445    1.0000 </r>
       <r>  -13.8431    1.0000 </r>
       <r>  -13.1407    1.0000 </r>
       <r>  -13.1370    1.0000 </r>
       <r>   -7.0082    1.0000 </r>
       <r>   -7.0082    1.0000 </r>
       <r>   -6.9740    1.0000 </r>
       <r>    0.4574    1.0000 </r>
       <r>    0.6660    1.0000 </r>
       <r>    0.6660    1.0000 </r>
       <r>    1.7868    1.0000 </r>
       <r>    1.7868    1.0000 </r>
       <r>    1.8276    1.0000 </r>
       <r>    2.4722    1.0000 </r>
       <r>    2.7488    1.0000 </r>
       <r>    2.7488    1.0000 </r>
       <r>    4.7030    0.0000 </r>
       <r>    4.9920    0.0000 </r>
       <r>    4.9920    0.0000 </r>
       <r>    6.7275    0.0000 </r>
       <r>    7.1484    0.0000 </r>
      </set>
      <set comment="kpoint 3">
       <r>  -29.9965    1.0000 </r>
       <r>  -29.9727    1.0000 </r>
       <r>  -29.9727    1.0000 </r>
       <r>  -21.8074    1.0000 </r>
       <r>  -13.8925    1.0000 </r>
       <r>  -13.1287    1.0000 </r>
       <r>  -13.0662    1.0000 </r>
       <r>   -6.9543    1.0000 </r>
       <r>   -6.9543    1.0000 </r>
       <r>   -6.8406    1.0000 </r>
       <r>   -0.1279    1.0000 </r>
       <r>    0.5405    1.0000 </r>
       <r>    0.5405    1.0000 </r>
       <r>    1.4690    1.0000 </r>
       <r>    1.4690    1.0000 </r>
       <r>    1.5295    1.0000 </r>
       <r>    1.7850    1.0000 </r>
       <r>    2.5429    1.0000 </r>
       <r>    2.5429    1.0000 </r>
       <r>    4.7542    0.0000 </r>
       <r>    5.6104    0.0000 </r>
       <r>    5.6104    0.0000 </r>
       <r>    6.7296    0.0000 </r>
       <r>    7.9089    0.0000 </r>
      </set>
      <set comment="kpoint 4">
       <r>  -30.0126    1.0000 </r>
       <r>  -29.9720    1.0000 </r>
       <r>  -29.9720    1.0000 </r>
       <r>  -21.7695    1.0000 </r>
       <r>  -13.9813    1.0000 </r>
       <r>  -13.1164    1.0000 </r>
       <r>  -12.9438    1.0000 </r>
       <r>   -6.8986    1.0000 </r>
       <r>   -6.8986    1.0000 </r>
       <r>   -6.7093    1.0000 </r>
       <r>   -0.6938    1.0000 </r>
       <r>    0.3670    1.0000 </r>
       <r>    0.3670    1.0000 </r>
       <r>    1.2668    1.0000 </r>
       <r>    1.2687    1.0000 </r>
       <r>    1.2687    1.0000 </r>
       <r>    1.2737    1.0000 </r>
       <r>    2.3752    1.0000 </r>
       <r>    2.3752    1.0000 </r>
       <r>    4.8069    0.0000 </r>
       <r>    6.1436    0.0000 </r>
       <r>    6.1436    0.0000 </r>
       <r>    6.7316    0.0000 </r>
       <r>    8.4816    0.0000 </r>
      </set>
      <set comment="kpoint 5">
       <r>  -30.0192    1.0000 </r>
       <r>  -29.9718    1.0000 </r>
       <r>  -29.9718    1.0000 </r>
       <r>  -21.7536    1.0000 </r>
       <r>  -14.0243    1.0000 </r>
       <r>  -13.1115    1.0000 </r>
       <r>  -12.8828    1.0000 </r>
       <r>   -6.8749    1.0000 </r>
       <r>   -6.8749    1.0000 </r>
       <r>   -6.6554    1.0000 </r>
       <r>   -0.9219    1.0000 </r>
       <r>    0.2837    1.0000 </r>
       <r>    0.2838    1.0000 </r>
       <r>    1.0905    1.0000 </r>
       <r>    1.1660    1.0000 </r>
       <r>    1.2101    1.0000 </r>
       <r>    1.2101    1.0000 </r>
       <r>    2.3123    1.0000 </r>
       <r>    2.3123    1.0000 </r>
       <r>    4.8292    0.0000 </r>
       <r>    6.3516    0.0000 </r>
       <r>    6.3516    0.0000 </r>
       <r>    6.7324    0.0000 </r>
       <r>    8.6864    0.0000 </r>
      </set>
      <set comment="kpoint 6">
       <r>  -29.9802    1.0000 </r>
       <r>  -29.9798    1.0000 </r>
       <r>  -29.9730    1.0000 </r>
       <r>  -21.8301    1.0000 </r>
       <r>  -13.8340    1.0000 </r>
       <r>  -13.1398    1.0000 </r>
       <r>  -13.1300    1.0000 </r>
       <r>   -7.0341    1.0000 </r>
       <r>   -6.9858    1.0000 </r>
       <r>   -6.8946    1.0000 </r>
       <r>    0.3040    1.0000 </r>
       <r>    0.5417    1.0000 </r>
       <r>    0.6380    1.0000 </r>
       <r>    1.4176    1.0000 </r>
       <r>    1.6242    1.0000 </r>
       <r>    1.9739    1.0000 </r>
       <r>    2.2209    1.0000 </r>
       <r>    2.6164    1.0000 </r>
       <r>    2.6188    1.0000 </r>
       <r>    4.9660    0.0000 </r>
       <r>    5.0468    0.0000 </r>
       <r>    5.1860    0.0000 </r>
       <r>    6.9338    0.0000 </r>
       <r>    7.3764    0.0000 </r>
      </set>
      <set comment="kpoint 7">
       <r>  -29.9961    1.0000 </r>
       <r>  -29.9793    1.0000 </r>
       <r>  -29.9724    1.0000 </r>
       <r>  -21.7947    1.0000 </r>
       <r>  -13.8537    1.0000 </r>
       <r>  -13.1236    1.0000 </r>
       <r>  -13.0784    1.0000 </r>
       <r>   -7.0074    1.0000 </r>
       <r>   -6.9304    1.0000 </r>
       <r>   -6.7948    1.0000 </r>
       <r>   -0.1993    1.0000 </r>
       <r>    0.3700    1.0000 </r>
       <r>    0.5367    1.0000 </r>
       <r>    0.9592    1.0000 </r>
       <r>    1.3223    1.0000 </r>
       <r>    1.6882    1.0000 </r>
       <r>    1.9493    1.0000 </r>
       <r>    2.3774    1.0000 </r>
       <r>    2.4414    1.0000 </r>
       <r>    5.0392    0.0000 </r>
       <r>    5.6208    0.0000 </r>
       <r>    5.6749    0.0000 </r>
       <r>    7.0037    0.0000 </r>
       <r>    8.0955    0.0000 </r>
      </set>
      <set comment="kpoint 8">
       <r>  -30.0122    1.0000 </r>
       <r>  -29.9787    1.0000 </r>
       <r>  -29.9718    1.0000 </r>
       <r>  -21.7588    1.0000 </r>
       <r>  -13.9190    1.0000 </r>
       <r>  -13.1069    1.0000 </r>
       <r>  -12.9708    1.0000 </r>
       <r>   -6.9448    1.0000 </r>
       <r>   -6.8731    1.0000 </r>
       <r>   -6.7350    1.0000 </r>
       <r>   -0.7292    1.0000 </r>
       <r>    0.2405    1.0000 </r>
       <r>    0.3771    1.0000 </r>
       <r>    0.5478    1.0000 </r>
       <r>    1.1349    1.0000 </r>
       <r>    1.3943    1.0000 </r>
       <r>    1.8946    1.0000 </r>
       <r>    2.1861    1.0000 </r>
       <r>    2.2201    1.0000 </r>
       <r>    5.0821    0.0000 </r>
       <r>    6.1461    0.0000 </r>
       <r>    6.1654    0.0000 </r>
       <r>    7.0133    0.0000 </r>
       <r>    8.6770    0.0000 </r>
      </set>
      <set comment="kpoint 9">
       <r>  -30.0188    1.0000 </r>
       <r>  -29.9784    1.0000 </r>
       <r>  -29.9715    1.0000 </r>
       <r>  -21.7437    1.0000 </r>
       <r>  -13.9545    1.0000 </r>
       <r>  -13.1002    1.0000 </r>
       <r>  -12.9140    1.0000 </r>
       <r>   -6.9092    1.0000 </r>
[...]
        <r>  0.0000  0.0159  0.0000  0.0000  0.0000  0.0000  0.0000  0.0000  0.0000 </r>
        <r>  0.0000  0.0000  0.0000  0.0159  0.0000  0.0000  0.0000  0.0000  0.0000 </r>
        <r>  0.0000  0.0000  0.0000  0.0000  0.0000  0.0000  0.0000  0.0000  0.0000 </r>
       </set>
       <set comment="band 11">
        <r>  0.0000  0.0000  0.0000  0.0000  0.0010  0.0000  0.0000  0.0000  0.0000 </r>
        <r>  0.2115  0.0000  0.0031  0.0000  0.0000  0.0000  0.0191  0.0000  0.0000 </r>
        <r>  0.0000  0.0000  0.0000  0.2173  0.0000  0.0000  0.0000  0.0000  0.0000 </r>
        <r>  0.0000  0.2173  0.0000  0.0000  0.0000  0.0000  0.0000  0.0000  0.0000 </r>
        <r>  0.0018  0.0000  0.0878  0.0000  0.0000  0.0000  0.0000  0.0000  0.0000 </r>
       </set>
       <set comment="band 12">
        <r>  0.0000  0.0000  0.0000  0.0000  0.0000  0.0000  0.0000  0.0000  0.0000 </r>
        <r>  0.0000  0.0000  0.0000  0.0000  0.0000  0.0000  0.0000  0.0000  0.3969 </r>
        <r>  0.0000  0.0000  0.0000  0.2481  0.0000  0.0000  0.0000  0.0000  0.0000 </r>
        <r>  0.0000  0.2481  0.0000  0.0000  0.0000  0.0000  0.0000  0.0000  0.0000 </r>
        <r>  0.0000  0.0000  0.0000  0.0000  0.0000  0.0000  0.0000  0.0000  0.0000 </r>
       </set>
       <set comment="band 13">
        <r>  0.0000  0.0000  0.0000  0.0000  0.0004  0.0000  0.0000  0.0000  0.0000 </r>
        <r>  0.0068  0.0000  0.0125  0.0000  0.0000  0.0000  0.3546  0.0000  0.0000 </r>
        <r>  0.0000  0.0000  0.0000  0.0387  0.0000  0.0000  0.0000  0.0000  0.0000 </r>
        <r>  0.0000  0.0387  0.0000  0.0000  0.0000  0.0000  0.0000  0.0000  0.0000 </r>
        <r>  0.0008  0.0000  0.4285  0.0000  0.0000  0.0000  0.0000  0.0000  0.0000 </r>
       </set>
       <set comment="band 14">
        <r>  0.0044  0.0000  0.1344  0.0000  0.0000  0.0000  0.0036  0.0000  0.0000 </r>
        <r>  0.0000  0.0000  0.0000  0.0000  0.1677  0.0000  0.0000  0.0000  0.0000 </r>
        <r>  0.0000  0.2155  0.0000  0.0000  0.0000  0.0000  0.0000  0.0000  0.0000 </r>
        <r>  0.0000  0.0000  0.0000  0.2155  0.0000  0.0000  0.0000  0.0000  0.0000 </r>
        <r>  0.0000  0.0000  0.0000  0.0000  0.0000  0.0000  0.0000  0.0000  0.0000 </r>
       </set>
       <set comment="band 15">
        <r>  0.0000  0.0657  0.0000  0.0703  0.0000  0.0025  0.0000  0.0027  0.0000 </r>
        <r>  0.0000  0.0001  0.0000  0.0001  0.0000  0.0888  0.0000  0.0830  0.0000 </r>
        <r>  0.0001  0.0000  0.1188  0.0000  0.0000  0.0000  0.0000  0.0000  0.0000 </r>
        <r>  0.0001  0.0000  0.1270  0.0000  0.0000  0.0000  0.0000  0.0000  0.0000 </r>
        <r>  0.0000  0.0990  0.0000  0.0926  0.0000  0.0000  0.0000  0.0000  0.0000 </r>
       </set>
       <set comment="band 16">
        <r>  0.0000  0.0703  0.0000  0.0657  0.0000  0.0027  0.0000  0.0025  0.0000 </r>
        <r>  0.0000  0.0001  0.0000  0.0001  0.0000  0.0830  0.0000  0.0888  0.0000 </r>
        <r>  0.0001  0.0000  0.1270  0.0000  0.0000  0.0000  0.0000  0.0000  0.0000 </r>
        <r>  0.0001  0.0000  0.1188  0.0000  0.0000  0.0000  0.0000  0.0000  0.0000 </r>
        <r>  0.0000  0.0926  0.0000  0.0990  0.0000  0.0000  0.0000  0.0000  0.0000 </r>
       </set>
       <set comment="band 17">
        <r>  0.0000  0.0007  0.0000  0.0007  0.0000  0.0038  0.0000  0.0040  0.0000 </r>
        <r>  0.0000  0.0006  0.0000  0.0006  0.0000  0.0000  0.0000  0.0000  0.0000 </r>
        <r>  0.0007  0.0000  0.1586  0.0000  0.0000  0.0000  0.0000  0.0000  0.0000 </r>
        <r>  0.0008  0.0000  0.1658  0.0000  0.0000  0.0000  0.0000  0.0000  0.0000 </r>
        <r>  0.0000  0.2102  0.0000  0.2011  0.0000  0.0000  0.0000  0.0000  0.0000 </r>
       </set>
       <set comment="band 18">
        <r>  0.0000  0.0007  0.0000  0.0007  0.0000  0.0040  0.0000  0.0038  0.0000 </r>
        <r>  0.0000  0.0006  0.0000  0.0006  0.0000  0.0000  0.0000  0.0000  0.0000 </r>
        <r>  0.0008  0.0000  0.1658  0.0000  0.0000  0.0000  0.0000  0.0000  0.0000 </r>
        <r>  0.0007  0.0000  0.1586  0.0000  0.0000  0.0000  0.0000  0.0000  0.0000 </r>
        <r>  0.0000  0.2011  0.0000  0.2102  0.0000  0.0000  0.0000  0.0000  0.0000 </r>
       </set>
       <set comment="band 19">
        <r>  0.0000  0.0000  0.0000  0.0000  0.0000  0.0000  0.0000  0.0000  0.0029 </r>
        <r>  0.0000  0.0000  0.0000  0.0000  0.0000  0.0000  0.0000  0.0000  0.0000 </r>
        <r>  0.0000  0.3780  0.0000  0.0000  0.0000  0.0000  0.0000  0.0000  0.0000 </r>
        <r>  0.0000  0.0000  0.0000  0.3780  0.0000  0.0000  0.0000  0.0000  0.0000 </r>
        <r>  0.0000  0.0000  0.0000  0.0000  0.0000  0.0000  0.0000  0.0000  0.0000 </r>
       </set>
       <set comment="band 20">
        <r>  0.0000  0.0028  0.0000  0.0033  0.0000  0.0001  0.0000  0.0002  0.0000 </r>
        <r>  0.0000  0.0003  0.0000  0.0003  0.0000  0.4124  0.0000  0.3514  0.0000 </r>
        <r>  0.0002  0.0000  0.0445  0.0000  0.0000  0.0000  0.0000  0.0000  0.0000 </r>
        <r>  0.0002  0.0000  0.0522  0.0000  0.0000  0.0000  0.0000  0.0000  0.0000 </r>
        <r>  0.0000  0.0354  0.0000  0.0302  0.0000  0.0000  0.0000  0.0000  0.0000 </r>
       </set>
       <set comment="band 21">
        <r>  0.0000  0.0033  0.0000  0.0028  0.0000  0.0002  0.0000  0.0001  0.0000 </r>
        <r>  0.0000  0.0003  0.0000  0.0003  0.0000  0.3514  0.0000  0.4124  0.0000 </r>
        <r>  0.0002  0.0000  0.0522  0.0000  0.0000  0.0000  0.0000  0.0000  0.0000 </r>
        <r>  0.0002  0.0000  0.0445  0.0000  0.0000  0.0000  0.0000  0.0000  0.0000 </r>
        <r>  0.0000  0.0302  0.0000  0.0355  0.0000  0.0000  0.0000  0.0000  0.0000 </r>
       </set>
       <set comment="band 22">
        <r>  0.0005  0.0000  0.0048  0.0000  0.0000  0.0000  0.0045  0.0000  0.0000 </r>
        <r>  0.0000  0.0000  0.0000  0.0000  0.7781  0.0000  0.0000  0.0000  0.0000 </r>
        <r>  0.0000  0.0745  0.0000  0.0000  0.0000  0.0000  0.0000  0.0000  0.0000 </r>
        <r>  0.0000  0.0000  0.0000  0.0745  0.0000  0.0000  0.0000  0.0000  0.0000 </r>
        <r>  0.0000  0.0000  0.0000  0.0000  0.0000  0.0000  0.0000  0.0000  0.0000 </r>
       </set>
       <set comment="band 23">
        <r>  0.0000  0.0000  0.0000  0.0000  0.3710  0.0000  0.0000  0.0000  0.0000 </r>
        <r>  0.0008  0.0000  0.0340  0.0000  0.0000  0.0000  0.1872  0.0000  0.0000 </r>
        <r>  0.0000  0.0000  0.0000  0.0032  0.0000  0.0000  0.0000  0.0000  0.0000 </r>
        <r>  0.0000  0.0032  0.0000  0.0000  0.0000  0.0000  0.0000  0.0000  0.0000 </r>
        <r>  0.0708  0.0000  0.0415  0.0000  0.0000  0.0000  0.0000  0.0000  0.0000 </r>
       </set>
       <set comment="band 24">
        <r>  0.0000  0.0013  0.0000  0.0013  0.0000  0.2537  0.0000  0.2575  0.0000 </r>
        <r>  0.0000  0.0134  0.0000  0.0132  0.0000  0.0045  0.0000  0.0045  0.0000 </r>
        <r>  0.0333  0.0000  0.0087  0.0000  0.0000  0.0000  0.0000  0.0000  0.0000 </r>
        <r>  0.0338  0.0000  0.0088  0.0000  0.0000  0.0000  0.0000  0.0000  0.0000 </r>
        <r>  0.0000  0.0027  0.0000  0.0027  0.0000  0.0000  0.0000  0.0000  0.0000 </r>
       </set>
      </set>
      <set comment="kpoint 35">
       <set comment="band 1">
        <r>  0.0000  0.0000  0.0000  0.0000  0.0001  0.0000  0.0000  0.0000  0.0000 </r>
        <r>  0.0000  0.0000  0.9795  0.0000  0.0000  0.0000  0.0000  0.0000  0.0000 </r>
        <r>  0.0000  0.0000  0.0000  0.0000  0.0000  0.0000  0.0000  0.0000  0.0000 </r>
        <r>  0.0000  0.0000  0.0000  0.0000  0.0000  0.0000  0.0000  0.0000  0.0000 </r>
        <r>  0.0071  0.0000  0.0000  0.0000  0.0000  0.0000  0.0000  0.0000  0.0000 </r>
       </set>
       <set comment="band 2">
        <r>  0.0000  0.0000  0.0000  0.0000  0.0000  0.0000  0.0000  0.0000  0.0000 </r>
        <r>  0.0000  0.3387  0.0000  0.6408  0.0000  0.0000  0.0000  0.0000  0.0000 </r>
        <r>  0.0046  0.0000  0.0000  0.0000  0.0000  0.0000  0.0000  0.0000  0.0000 </r>
        <r>  0.0025  0.0000  0.0000  0.0000  0.0000  0.0000  0.0000  0.0000  0.0000 </r>
        <r>  0.0000  0.0000  0.0000  0.0000  0.0000  0.0000  0.0000  0.0000  0.0000 </r>
       </set>
       <set comment="band 3">
        <r>  0.0000  0.0000  0.0000  0.0000  0.0000  0.0000  0.0000  0.0000  0.0000 </r>
        <r>  0.0000  0.6408  0.0000  0.3387  0.0000  0.0000  0.0000  0.0000  0.0000 </r>
        <r>  0.0025  0.0000  0.0000  0.0000  0.0000  0.0000  0.0000  0.0000  0.0000 </r>
        <r>  0.0046  0.0000  0.0000  0.0000  0.0000  0.0000  0.0000  0.0000  0.0000 </r>
        <r>  0.0000  0.0000  0.0000  0.0000  0.0000  0.0000  0.0000  0.0000  0.0000 </r>
       </set>
       <set comment="band 4">
        <r>  0.9815  0.0000  0.0000  0.0000  0.0000  0.0000  0.0000  0.0000  0.0000 </r>
        <r>  0.0000  0.0000  0.0000  0.0000  0.0000  0.0000  0.0000  0.0000  0.0000 </r>
        <r>  0.0000  0.0000  0.0000  0.0000  0.0000  0.0000  0.0000  0.0000  0.0000 </r>
        <r>  0.0000  0.0000  0.0000  0.0000  0.0000  0.0000  0.0000  0.0000  0.0000 </r>
        <r>  0.0000  0.0000  0.0000  0.0000  0.0000  0.0000  0.0000  0.0000  0.0000 </r>
       </set>
       <set comment="band 5">
        <r>  0.0000  0.0000  0.0000  0.0000  0.0000  0.0042  0.0000  0.0022  0.0000 </r>
        <r>  0.0000  0.0139  0.0000  0.0265  0.0000  0.0000  0.0000  0.0000  0.0000 </r>
        <r>  0.5061  0.0000  0.0000  0.0000  0.0000  0.0000  0.0000  0.0000  0.0000 </r>
        <r>  0.2663  0.0000  0.0000  0.0000  0.0000  0.0000  0.0000  0.0000  0.0000 </r>
        <r>  0.0000  0.0000  0.0000  0.0000  0.0000  0.0000  0.0000  0.0000  0.0000 </r>
       </set>
       <set comment="band 6">
        <r>  0.0000  0.0000  0.0000  0.0000  0.0000  0.0022  0.0000  0.0042  0.0000 </r>
        <r>  0.0000  0.0264  0.0000  0.0139  0.0000  0.0000  0.0000  0.0000  0.0000 </r>
        <r>  0.2662  0.0000  0.0000  0.0000  0.0000  0.0000  0.0000  0.0000  0.0000 </r>
        <r>  0.5058  0.0000  0.0000  0.0000  0.0000  0.0000  0.0000  0.0000  0.0000 </r>
        <r>  0.0005  0.0000  0.0000  0.0000  0.0000  0.0000  0.0000  0.0000  0.0000 </r>
       </set>
       <set comment="band 7">
        <r>  0.0000  0.0000  0.0000  0.0000  0.0064  0.0000  0.0000  0.0000  0.0000 </r>
        <r>  0.0000  0.0000  0.0404  0.0000  0.0000  0.0000  0.0000  0.0000  0.0000 </r>
        <r>  0.0002  0.0000  0.0000  0.0000  0.0000  0.0000  0.0000  0.0000  0.0000 </r>
        <r>  0.0003  0.0000  0.0000  0.0000  0.0000  0.0000  0.0000  0.0000  0.0000 </r>
        <r>  0.7719  0.0000  0.0000  0.0000  0.0000  0.0000  0.0000  0.0000  0.0000 </r>
       </set>
       <set comment="band 8">
        <r>  0.0000  0.7562  0.0000  0.0431  0.0000  0.0000  0.0000  0.0000  0.0000 </r>
        <r>  0.0000  0.0000  0.0000  0.0000  0.0000  0.0004  0.0000  0.0078  0.0000 </r>
        <r>  0.0000  0.0000  0.0164  0.0000  0.0000  0.0000  0.0000  0.0000  0.0000 </r>
        <r>  0.0000  0.0000  0.0009  0.0000  0.0000  0.0000  0.0000  0.0000  0.0000 </r>
        <r>  0.0000  0.0009  0.0000  0.0164  0.0000  0.0000  0.0000  0.0000  0.0000 </r>
       </set>
       <set comment="band 9">
        <r>  0.0000  0.0431  0.0000  0.7562  0.0000  0.0000  0.0000  0.0000  0.0000 </r>
        <r>  0.0000  0.0000  0.0000  0.0000  0.0000  0.0078  0.0000  0.0004  0.0000 </r>
        <r>  0.0000  0.0000  0.0009  0.0000  0.0000  0.0000  0.0000  0.0000  0.0000 </r>
        <r>  0.0000  0.0000  0.0164  0.0000  0.0000  0.0000  0.0000  0.0000  0.0000 </r>
        <r>  0.0000  0.0164  0.0000  0.0009  0.0000  0.0000  0.0000  0.0000  0.0000 </r>
       </set>
       <set comment="band 10">
        <r>  0.0000  0.0000  0.7992  0.0000  0.0000  0.0000  0.0000  0.0000  0.0000 </r>
        <r>  0.0000  0.0000  0.0000  0.0000  0.0083  0.0000  0.0000  0.0000  0.0000 </r>
        <r>  0.0000  0.0174  0.0000  0.0000  0.0000  0.0000  0.0000  0.0000  0.0000 </r>
        <r>  0.0000  0.0000  0.0000  0.0174  0.0000  0.0000  0.0000  0.0000  0.0000 </r>
        <r>  0.0000  0.0000  0.0000  0.0000  0.0000  0.0000  0.0000  0.0000  0.0000 </r>
       </set>
       <set comment="band 11">
        <r>  0.0000  0.0000  0.0000  0.0000  0.0000  0.0000  0.0000  0.0000  0.0000 </r>
        <r>  0.2283  0.0000  0.0000  0.0000  0.0000  0.0000  0.0000  0.0000  0.0000 </r>
        <r>  0.0000  0.0000  0.0000  0.1740  0.0000  0.0000  0.0000  0.0000  0.0000 </r>
        <r>  0.0000  0.1740  0.0000  0.0000  0.0000  0.0000  0.0000  0.0000  0.0000 </r>
        <r>  0.0000  0.0000  0.1740  0.0000  0.0000  0.0000  0.0000  0.0000  0.0000 </r>
       </set>
       <set comment="band 12">
        <r>  0.0000  0.0000  0.0000  0.0000  0.0000  0.0000  0.0000  0.0000  0.0000 </r>
        <r>  0.0000  0.0000  0.0000  0.0000  0.0000  0.0000  0.0000  0.0000  0.3970 </r>
        <r>  0.0000  0.0000  0.0000  0.2482  0.0000  0.0000  0.0000  0.0000  0.0000 </r>
        <r>  0.0000  0.2482  0.0000  0.0000  0.0000  0.0000  0.0000  0.0000  0.0000 </r>
        <r>  0.0000  0.0000  0.0000  0.0000  0.0000  0.0000  0.0000  0.0000  0.0000 </r>
       </set>
       <set comment="band 13">
        <r>  0.0000  0.0000  0.0000  0.0000  0.0000  0.0000  0.0000  0.0000  0.0000 </r>
        <r>  0.0000  0.0000  0.0000  0.0000  0.0000  0.0000  0.3970  0.0000  0.0000 </r>
        <r>  0.0000  0.0000  0.0000  0.0827  0.0000  0.0000  0.0000  0.0000  0.0000 </r>
        <r>  0.0000  0.0827  0.0000  0.0000  0.0000  0.0000  0.0000  0.0000  0.0000 </r>
        <r>  0.0000  0.0000  0.3310  0.0000  0.0000  0.0000  0.0000  0.0000  0.0000 </r>
       </set>
       <set comment="band 14">
        <r>  0.0000  0.0000  0.1483  0.0000  0.0000  0.0000  0.0000  0.0000  0.0000 </r>
        <r>  0.0000  0.0000  0.0000  0.0000  0.1748  0.0000  0.0000  0.0000  0.0000 </r>
        <r>  0.0000  0.2175  0.0000  0.0000  0.0000  0.0000  0.0000  0.0000  0.0000 </r>
        <r>  0.0000  0.0000  0.0000  0.2175  0.0000  0.0000  0.0000  0.0000  0.0000 </r>
        <r>  0.0000  0.0000  0.0000  0.0000  0.0000  0.0000  0.0000  0.0000  0.0000 </r>
       </set>
       <set comment="band 15">
        <r>  0.0000  0.1361  0.0000  0.0122  0.0000  0.0000  0.0000  0.0000  0.0000 </r>
        <r>  0.0000  0.0000  0.0000  0.0000  0.0000  0.0144  0.0000  0.1604  0.0000 </r>
        <r>  0.0000  0.0000  0.1996  0.0000  0.0000  0.0000  0.0000  0.0000  0.0000 </r>
        <r>  0.0000  0.0000  0.0179  0.0000  0.0000  0.0000  0.0000  0.0000  0.0000 </r>
        <r>  0.0000  0.0179  0.0000  0.1996  0.0000  0.0000  0.0000  0.0000  0.0000 </r>
       </set>
       <set comment="band 16">
        <r>  0.0000  0.0122  0.0000  0.1361  0.0000  0.0000  0.0000  0.0000  0.0000 </r>
        <r>  0.0000  0.0000  0.0000  0.0000  0.0000  0.1604  0.0000  0.0144  0.0000 </r>
        <r>  0.0000  0.0000  0.0179  0.0000  0.0000  0.0000  0.0000  0.0000  0.0000 </r>
        <r>  0.0000  0.0000  0.1996  0.0000  0.0000  0.0000  0.0000  0.0000  0.0000 </r>
        <r>  0.0000  0.1996  0.0000  0.0179  0.0000  0.0000  0.0000  0.0000  0.0000 </r>
       </set>
       <set comment="band 17">
        <r>  0.0000  0.0000  0.0000  0.0000  0.0000  0.0000  0.0000  0.0000  0.0000 </r>
        <r>  0.0000  0.0000  0.0000  0.0000  0.0000  0.0000  0.0000  0.0000  0.0000 </r>
        <r>  0.0000  0.3792  0.0000  0.0000  0.0000  0.0000  0.0000  0.0000  0.0000 </r>
        <r>  0.0000  0.0000  0.0000  0.3792  0.0000  0.0000  0.0000  0.0000  0.0000 </r>
        <r>  0.0000  0.0000  0.0000  0.0000  0.0000  0.0000  0.0000  0.0000  0.0000 </r>
       </set>
       <set comment="band 18">
        <r>  0.0000  0.0000  0.0000  0.0000  0.0000  0.0000  0.0000  0.0000  0.0000 </r>
        <r>  0.0000  0.0000  0.0000  0.0000  0.0000  0.0000  0.0000  0.0000  0.0000 </r>
        <r>  0.0000  0.0000  0.0364  0.0000  0.0000  0.0000  0.0000  0.0000  0.0000 </r>
        <r>  0.0000  0.0000  0.3428  0.0000  0.0000  0.0000  0.0000  0.0000  0.0000 </r>
        <r>  0.0000  0.3428  0.0000  0.0364  0.0000  0.0000  0.0000  0.0000  0.0000 </r>
       </set>
       <set comment="band 19">
        <r>  0.0000  0.0000  0.0000  0.0000  0.0000  0.0000  0.0000  0.0000  0.0000 </r>
        <r>  0.0000  0.0000  0.0000  0.0000  0.0000  0.0000  0.0000  0.0000  0.0000 </r>
        <r>  0.0000  0.0000  0.3428  0.0000  0.0000  0.0000  0.0000  0.0000  0.0000 </r>
        <r>  0.0000  0.0000  0.0364  0.0000  0.0000  0.0000  0.0000  0.0000  0.0000 </r>
        <r>  0.0000  0.0364  0.0000  0.3428  0.0000  0.0000  0.0000  0.0000  0.0000 </r>
       </set>
       <set comment="band 20">
        <r>  0.0000  0.0023  0.0000  0.0036  0.0000  0.0000  0.0000  0.0000  0.0000 </r>
        <r>  0.0000  0.0000  0.0000  0.0000  0.0000  0.4698  0.0000  0.3019  0.0000 </r>
        <r>  0.0000  0.0000  0.0317  0.0000  0.0000  0.0000  0.0000  0.0000  0.0000 </r>
        <r>  0.0000  0.0000  0.0493  0.0000  0.0000  0.0000  0.0000  0.0000  0.0000 </r>
        <r>  0.0000  0.0493  0.0000  0.0317  0.0000  0.0000  0.0000  0.0000  0.0000 </r>
       </set>
       <set comment="band 21">
        <r>  0.0000  0.0036  0.0000  0.0023  0.0000  0.0000  0.0000  0.0000  0.0000 </r>
        <r>  0.0000  0.0000  0.0000  0.0000  0.0003  0.3019  0.0000  0.4697  0.0000 </r>
        <r>  0.0000  0.0000  0.0493  0.0000  0.0000  0.0000  0.0000  0.0000  0.0000 </r>
        <r>  0.0000  0.0000  0.0317  0.0000  0.0000  0.0000  0.0000  0.0000  0.0000 </r>
        <r>  0.0000  0.0317  0.0000  0.0493  0.0000  0.0000  0.0000  0.0000  0.0000 </r>
       </set>
       <set comment="band 22">
        <r>  0.0000  0.0000  0.0059  0.0000  0.0000  0.0000  0.0000  0.0000  0.0000 </r>
        <r>  0.0000  0.0000  0.0000  0.0000  0.7715  0.0001  0.0000  0.0002  0.0000 </r>
        <r>  0.0000  0.0809  0.0000  0.0000  0.0000  0.0000  0.0000  0.0000  0.0000 </r>
        <r>  0.0000  0.0000  0.0000  0.0809  0.0000  0.0000  0.0000  0.0000  0.0000 </r>
        <r>  0.0000  0.0000  0.0000  0.0000  0.0000  0.0000  0.0000  0.0000  0.0000 </r>
       </set>
       <set comment="band 23">
        <r>  0.0000  0.0000  0.0000  0.0000  0.0000  0.3404  0.0000  0.1760  0.0000 </r>
        <r>  0.0000  0.0098  0.0000  0.0189  0.0000  0.0000  0.0000  0.0000  0.0000 </r>
        <r>  0.0490  0.0000  0.0000  0.0000  0.0000  0.0000  0.0000  0.0000  0.0000 </r>
        <r>  0.0253  0.0000  0.0000  0.0000  0.0000  0.0000  0.0000  0.0000  0.0000 </r>
        <r>  0.0000  0.0000  0.0000  0.0000  0.0000  0.0000  0.0000  0.0000  0.0000 </r>
       </set>
       <set comment="band 24">
        <r>  0.0000  0.0000  0.0000  0.0000  0.4600  0.0192  0.0000  0.0372  0.0000 </r>
        <r>  0.0000  0.0021  0.0255  0.0011  0.0000  0.0000  0.0000  0.0000  0.0000 </r>
        <r>  0.0028  0.0000  0.0000  0.0000  0.0000  0.0000  0.0000  0.0000  0.0000 </r>
        <r>  0.0054  0.0000  0.0000  0.0000  0.0000  0.0000  0.0000  0.0000  0.0000 </r>
        <r>  0.0662  0.0000  0.0000  0.0000  0.0000  0.0000  0.0000  0.0000  0.0000 </r>
       </set>
      </set>
     </set>
    </set>
   </array>
  </projected>
 </calculation>
 <structure name="finalpos" >
  <crystal>
   <varray name="basis" >
    <v>       4.03304400       0.00000000       0.00000000 </v>
    <v>       0.00000000       4.03304400       0.00000000 </v>
    <v>       0.00000000       0.00000000       4.03304400 </v>
   </varray>
   <i name="volume">     65.59925095 </i>
   <varray name="rec_basis" >
    <v>       0.24795167       0.00000000       0.00000000 </v>
    <v>       0.00000000       0.24795167       0.00000000 </v>
    <v>       0.00000000       0.00000000       0.24795167 </v>
   </varray>
  </crystal>
  <varray name="positions" >
   <v>       0.00000000       0.00000000       0.00280000 </v>
   <v>       0.50000000       0.50000000       0.50280000 </v>
   <v>       0.00000000       0.50000000       0.50280000 </v>
   <v>       0.50000000       0.00000000       0.50280000 </v>
   <v>       0.50000000       0.50000000       0.00280000 </v>
  </varray>
 </structure>
</modeling>
