
Running Job 1 of 1 mol.qin
qchem mol.qin_57999.0 /tmp/qchem57999/ 1
srun -n 1 /global/common/cori/software/qchem/5.1beta/exe/qcprog.exe mol.qin_57999.0 /tmp/qchem57999/

Process 0 of 1 is on nid00679 - thread support 0
initial socket setup ...start
initial socket setup ...done 
now start server 0 ... 
Check license passed

                  Welcome to Q-Chem
     A Quantum Leap Into The Future Of Chemistry


 Q-Chem 5.1, Q-Chem, Inc., Pleasanton, CA (2018)

 Yihan Shao,  Zhengting Gan,  E. Epifanovsky,  A. T. B. Gilbert,  M. Wormit,  
 J. Kussmann,  A. W. Lange,  A. Behn,  Jia Deng,  Xintian Feng,  D. Ghosh,  
 M. Goldey,  P. R. Horn,  L. D. Jacobson,  I. Kaliman,  T. Kus,  A. Landau,  
 Jie Liu,  E. I. Proynov,  R. M. Richard,  R. P. Steele,  E. J. Sundstrom,  
 H. L. Woodcock III,  P. M. Zimmerman,  D. Zuev,  B. Albrecht,  E. Alguire,  
 S. A. Baeppler,  D. Barton,  Z. Benda,  Y. A. Bernard,  E. J. Berquist,  
 K. B. Bravaya,  H. Burton,  D. Casanova,  Chun-Min Chang,  Yunqing Chen,  
 A. Chien,  K. D. Closser,  M. P. Coons,  S. Coriani,  S. Dasgupta,  
 A. L. Dempwolff,  M. Diedenhofen,  Hainam Do,  R. G. Edgar,  Po-Tung Fang,  
 S. Faraji,  S. Fatehi,  Qingguo Feng,  K. D. Fenk,  J. Fosso-Tande,  
 Qinghui Ge,  A. Ghysels,  G. Gidofalvi,  J. Gomes,  J. Gonthier,  A. Gunina,  
 M. W. D. Hanson-Heine,  P. H. P. Harbach,  A. W. Hauser,  J. E. Herr,  
 E. G. Hohenstein,  Z. C. Holden,  Kerwin Hui,  T.-C. Jagau,  Hyunjun Ji,  
 B. Kaduk,  K. Khistyaev,  Jaehoon Kim,  P. Klunzinger,  K. Koh,  
 D. Kosenkov,  L. Koulias,  T. Kowalczyk,  C. M. Krauter,  A. Kunitsa,  
 Ka Un Lao,  A. Laurent,  K. V. Lawler,  Joonho Lee,  D. Lefrancois,  
 S. Lehtola,  D. S. Levine,  Yi-Pei Li,  You-Sheng Lin,  Fenglai Liu,  
 E. Livshits,  A. Luenser,  P. Manohar,  E. Mansoor,  S. F. Manzer,  
 Shan-Ping Mao,  Yuezhi Mao,  N. Mardirossian,  A. V. Marenich,  
 T. Markovich,  L. A. Martinez-Martinez,  S. A. Maurer,  N. J. Mayhall,  
 S. C. McKenzie,  J.-M. Mewes,  A. F. Morrison,  J. W. Mullinax,  K. Nanda,  
 T. S. Nguyen-Beck,  R. Olivares-Amaya,  J. A. Parkhill,  T. M. Perrine,  
 F. Plasser,  P. Pokhilko,  S. Prager,  A. Prociuk,  E. Ramos,  D. R. Rehn,  
 F. Rob,  M. Schneider,  N. Sergueev,  S. M. Sharada,  S. Sharma,  
 D. W. Small,  T. Stauch,  T. Stein,  Yu-Chuan Su,  A. J. W. Thom,  
 A. Tkatchenko,  T. Tsuchimochi,  N. M. Tubman,  L. Vogt,  M. L. Vidal,  
 O. Vydrov,  M. A. Watson,  J. Wenzel,  M. de Wergifosse,  T. A. Wesolowski,  
 A. White,  J. Witte,  A. Yamada,  Jun Yang,  K. Yao,  S. Yeganeh,  
 S. R. Yost,  Zhi-Qiang You,  A. Zech,  Igor Ying Zhang,  Xing Zhang,  
 Yan Zhao,  Ying Zhu,  B. R. Brooks,  G. K. L. Chan,  C. J. Cramer,  
 M. S. Gordon,  W. J. Hehre,  A. Klamt,  M. W. Schmidt,  C. D. Sherrill,  
 D. G. Truhlar,  A. Aspuru-Guzik,  R. Baer,  A. T. Bell,  N. A. Besley,  
 Jeng-Da Chai,  R. A. DiStasio Jr.,  A. Dreuw,  B. D. Dunietz,  
 T. R. Furlani,  Chao-Ping Hsu,  Yousung Jung,  Jing Kong,  D. S. Lambrecht,  
 WanZhen Liang,  C. Ochsenfeld,  V. A. Rassolov,  L. V. Slipchenko,  
 J. E. Subotnik,  T. Van Voorhis,  J. M. Herbert,  A. I. Krylov,  
 P. M. W. Gill,  M. Head-Gordon

 Contributors to earlier versions of Q-Chem not listed above: 
 R. D. Adamson,  B. Austin,  J. Baker,  G. J. O. Beran,  K. Brandhorst,  
 S. T. Brown,  E. F. C. Byrd,  A. K. Chakraborty,  C.-L. Cheng,  
 Siu Hung Chien,  D. M. Chipman,  D. L. Crittenden,  H. Dachsel,  
 R. J. Doerksen,  A. D. Dutoi,  L. Fusti-Molnar,  W. A. Goddard III,  
 A. Golubeva-Zadorozhnaya,  S. R. Gwaltney,  G. Hawkins,  A. Heyden,  
 S. Hirata,  G. Kedziora,  F. J. Keil,  C. Kelley,  Jihan Kim,  R. A. King,  
 R. Z. Khaliullin,  P. P. Korambath,  W. Kurlancheek,  A. M. Lee,  M. S. Lee,  
 S. V. Levchenko,  Ching Yeh Lin,  D. Liotard,  R. C. Lochan,  I. Lotan,  
 P. E. Maslen,  N. Nair,  D. P. O'Neill,  D. Neuhauser,  E. Neuscamman,  
 C. M. Oana,  R. Olson,  B. Peters,  R. Peverati,  P. A. Pieniazek,  
 Y. M. Rhee,  J. Ritchie,  M. A. Rohrdanz,  E. Rosta,  N. J. Russ,  
 H. F. Schaefer III,  N. E. Schultz,  N. Shenvi,  A. C. Simmonett,  A. Sodt,  
 D. Stuck,  K. S. Thanthiriwatte,  V. Vanovschi,  Tao Wang,  A. Warshel,  
 C. F. Williams,  Q. Wu,  X. Xu,  W. Zhang

 Please cite Q-Chem as follows:
 Y. Shao et al., Mol. Phys. 113, 184-215 (2015)
 DOI: 10.1080/00268976.2014.952696

 Q-Chem 5.1.0 for Intel X86 EM64T Linux

 Parts of Q-Chem use Armadillo 8.300.2 (Tropical Shenanigans).
 http://arma.sourceforge.net/

 Q-Chem begins on Tue Jun  5 11:46:18 2018  

Host: cori01
0

     Scratch files written to /tmp/qchem57999//
 Mar1918  _RNUM -1
 Parallel job on  1  processors
Processing $rem in /global/common/cori/software/qchem/5.1beta/config/preferences.
 MEM_TOTAL  2000 
Symmetry turned off for PCM/SM12/SMD calculation

Checking the input file for inconsistencies... 	...done.

--------------------------------------------------------------
User input:
--------------------------------------------------------------
$molecule
0 2
O      0.8779337884      0.1045304172     -0.0027678592
C      1.0853313527     -1.2199936882     -0.0065929103
C     -0.4866703097      0.3041532442      0.0020446440
O      2.1541186567     -1.7578077803     -0.0118119962
O     -0.0972679529     -1.8511128514     -0.0042766824
C     -1.0774970281     -0.8811613352      0.0019012090
Li      4.0533658887     -2.1319067492     -0.0158289800
H     -0.8425954436      1.3182233094      0.0053798436
H     -2.1014518465     -1.2075124896      0.0049210606
$end

$rem
job_type = opt
basis = 6-311++g**
max_scf_cycles = 200
gen_scfman = true
scf_algorithm = diis
method = wb97xd
geom_opt_max_cycles = 200
solvent_method = pcm
sym_ignore = true
$end

$pcm
heavypoints 194
hpoints 194
radii uff
theory cpcm
vdwscale 1.1
$end

$solvent
dielectric 10.0
$end
--------------------------------------------------------------
 ----------------------------------------------------------------
             Standard Nuclear Orientation (Angstroms)
    I     Atom           X                Y                Z
 ----------------------------------------------------------------
    1      O       0.8779337884     0.1045304172    -0.0027678592
    2      C       1.0853313527    -1.2199936882    -0.0065929103
    3      C      -0.4866703097     0.3041532442     0.0020446440
    4      O       2.1541186567    -1.7578077803    -0.0118119962
    5      O      -0.0972679529    -1.8511128514    -0.0042766824
    6      C      -1.0774970281    -0.8811613352     0.0019012090
    7      Li      4.0533658887    -2.1319067492    -0.0158289800
    8      H      -0.8425954436     1.3182233094     0.0053798436
    9      H      -2.1014518465    -1.2075124896     0.0049210606
 ----------------------------------------------------------------
 Nuclear Repulsion Energy =   251.3156635708 hartrees
 There are       24 alpha and       23 beta electrons
 Requested basis set is 6-311++G(d,p)
 There are 52 shells and 168 basis functions

 Total QAlloc Memory Limit   2000 MB
 Mega-Array Size       188 MB
 MEM_STATIC part       192 MB
 Discretize the solute cavity surface with Lebedev spheres
	Using 194 Lebedev grid points for each H atom
	Using 194 Lebedev grid points for other atoms
	Atomic van der Waals radii will be scaled by 1.10
 Remove points where switching function is < 1.0e-08
 Keep 905 surface tesserae and discard 841 interior tesserae
 Molecular Surface Area = 129.345 Angst**2
 A cutoff of  1.0D-11 yielded   1320 shell pairs
 There are     14137 function pairs (     15357 Cartesian)
 
 -------------------------------------------------------
 OpenMP Integral Computing Module                       
 Release: version 1.0, May 2013, Q-Chem Inc. Pittsburgh 
 -------------------------------------------------------
 Integral Job Info:
 Integral job number is                      11
 Integral operator is                         1
 short-range coefficients              22203600
 long-range coefficients              100000000
 Omega coefficients                         200
 if combine SR and LR in K                    1
 Integral screening is                        0
 Integral computing path is                   2
 max size of driver memory is            800000
 size of driver memory is                593474
 size of scratch memory is              2428936
 max col of scratch BK array               1296
 max len of scratch array in speh3          155
 max len of scratch index in speh4           18
 max int batch size is                      520
 min int batch size is                       52
 fixed nKL is                                52
 max L of basis functions is                  2
 order of int derivative is                   0
 number of shells is                         52
 number of basis is                         175
 number of cartesian basis is               175
 number of contracted shell pairs          1320
 number of primitive shell pairs           3885
 maxK2 (contraction) of shell pair           36
 max number of K2 of shell pair               1
 max number of CS2 of shell pair            239
 max number of PS2 of shell pair            876
 mem total for path MDJ                  537338
 -------------------------------------------------------
 Smallest overlap matrix eigenvalue = 3.01E-05

 Scale SEOQF with 1.000000e-02/1.000000e-02/1.000000e-02

 Standard Electronic Orientation quadrupole field applied
 Nucleus-field energy     =     0.0000000010 hartrees
 Guess from superposition of atomic densities
 Warning:  Energy on first SCF cycle will be non-variational
 SAD guess density has 47.000000 electrons

 -----------------------------------------------------------------------
  General SCF calculation program by
  Eric Jon Sundstrom, Paul Horn, Yuezhi Mao, Dmitri Zuev, Alec White,
  David Stuck, Shaama M.S., Shane Yost, Joonho Lee, David Small,
  Daniel Levine, Susi Lehtola, Hugh Burton, Evgeny Epifanovsky
 -----------------------------------------------------------------------
 Exchange:     0.2220 Hartree-Fock + 1.0000 wB97X-D + LR-HF
 Correlation:  1.0000 wB97X-D
 Using SG-2 standard quadrature grid
 Dispersion:   Grimme D
 using 32 threads for integral computing
 -------------------------------------------------------
 OpenMP Integral computing Module                
 Release: version 1.0, May 2013, Q-Chem Inc. Pittsburgh 
 -------------------------------------------------------
 using 32 threads for integral computing
 -------------------------------------------------------
 OpenMP Integral computing Module                
 Release: version 1.0, May 2013, Q-Chem Inc. Pittsburgh 
 -------------------------------------------------------
 -------------------------------------------------------
 OpenMP BLAS3 based DFT computing Module                
 Release: version 1.0, May 2013, Q-Chem Inc. Pittsburgh 
 -------------------------------------------------------
 A unrestricted SCF calculation will be
 performed using DIIS
 SCF converges when DIIS error is below 1.0e-08
 ---------------------------------------
  Cycle       Energy         DIIS error
 ---------------------------------------
    1    -350.2670826934      2.56e-02  
    2    -348.5210360513      3.68e-03  
    3    -348.4569522942      4.77e-03  
    4    -348.6665289916      4.48e-04  
    5    -348.6679743930      2.49e-04  
    6    -348.6685685393      3.91e-05  
    7    -348.6685967604      1.33e-05  
    8    -348.6686021249      4.83e-06  
    9    -348.6686047790      2.38e-06  
   10    -348.6686063855      1.72e-06  
   11    -348.6686075917      1.42e-06  
   12    -348.6686084238      1.14e-06  
   13    -348.6686092093      9.06e-07  
   14    -348.6686099601      6.94e-07  
   15    -348.6686106334      4.12e-07  
   16    -348.6686108889      1.64e-07  
   17    -348.6686109065      1.01e-07  
   18    -348.6686109088      6.53e-08  
   19    -348.6686109103      5.39e-08  
   20    -348.6686109125      3.13e-08  
   21    -348.6686109134      1.32e-08  
   22    -348.6686109135      6.35e-09  Convergence criterion met
 ---------------------------------------
 SCF time:   CPU 531.24s  wall 19.00s 
 SCF   energy in the final basis set =     -348.6686109135
<S^2> =          0.750166552

************** Final PCM Free Energy Summary **************
 G_electrostatic  =      -0.02107326 hartree =     -13.22367069 kcal/mol
 G_cavitation     =       0.00000000 hartree =       0.00000000 kcal/mol
 G_dispersion     =       0.00000000 hartree =       0.00000000 kcal/mol
 G_repulsion      =       0.00000000 hartree =       0.00000000 kcal/mol
 --------------------------------------------------
 Non-electrostatic Free Energy =       0.00000000 hartree =       0.00000000 kcal/mol
 Total                         =      -0.02107326 hartree =     -13.22367069 kcal/mol
 --------------------------------------------------
 SCF Energy (H0 + V/2)                       =    -348.66861091 
 Solute Internal Energy (H0)                 =    -348.64753765 
 Total Free Energy (H0 + V/2 + non-elec)     =    -348.66861091 hartree
                                             = -218792.85558865 kcal/mol
***********************************************************

 
 --------------------------------------------------------------
 
                    Orbital Energies (a.u.)
 --------------------------------------------------------------
 
 Alpha MOs
 -- Occupied --
-19.361 -19.361 -19.278 -10.507 -10.378 -10.377  -2.038  -1.334
 -1.210  -1.197  -0.912  -0.798  -0.763  -0.670  -0.648  -0.603
 -0.600  -0.536  -0.520  -0.511  -0.495  -0.440  -0.355  -0.094
 -- Virtual --
  0.029   0.032   0.033   0.047   0.060   0.062   0.064   0.068
  0.077   0.080   0.084   0.113   0.117   0.133   0.135   0.159
  0.163   0.164   0.176   0.184   0.188   0.196   0.205   0.207
  0.209   0.217   0.230   0.258   0.277   0.283   0.313   0.325
  0.334   0.334   0.346   0.362   0.366   0.379   0.387   0.396
  0.412   0.442   0.455   0.475   0.483   0.533   0.550   0.585
  0.602   0.607   0.610   0.615   0.633   0.644   0.658   0.666
  0.704   0.754   0.765   0.781   0.806   0.850   0.875   0.878
  0.900   0.914   0.957   0.998   1.070   1.074   1.108   1.120
  1.194   1.200   1.227   1.234   1.248   1.266   1.328   1.335
  1.383   1.420   1.484   1.516   1.564   1.653   1.743   1.774
  1.796   1.797   1.809   1.819   1.851   1.930   1.953   2.018
  2.117   2.184   2.214   2.476   2.591   2.617   2.718   2.770
  2.780   2.795   2.833   2.862   2.920   3.015   3.023   3.103
  3.110   3.179   3.220   3.249   3.276   3.444   3.444   3.478
  3.603   3.687   3.689   3.922   4.040   4.054   4.119   4.252
  4.261   5.027   5.032   5.123   5.248   5.382   5.535   5.580
  5.982   6.043  23.793  23.937  24.389  49.922  50.032  50.154
 
 Beta MOs
 -- Occupied --
-19.360 -19.360 -19.278 -10.507 -10.378 -10.377  -2.036  -1.334
 -1.210  -1.197  -0.912  -0.798  -0.763  -0.670  -0.648  -0.603
 -0.599  -0.536  -0.520  -0.511  -0.495  -0.439  -0.355
 -- Virtual --
  0.040   0.060   0.062   0.066   0.069   0.069   0.080   0.089
  0.105   0.124   0.136   0.140   0.163   0.167   0.171   0.172
  0.182   0.196   0.206   0.221   0.238   0.249   0.263   0.265
  0.279   0.287   0.293   0.306   0.313   0.316   0.321   0.339
  0.350   0.351   0.369   0.383   0.407   0.409   0.418   0.446
  0.448   0.462   0.479   0.491   0.500   0.544   0.556   0.605
  0.605   0.624   0.643   0.645   0.671   0.707   0.707   0.749
  0.751   0.776   0.795   0.814   0.842   0.852   0.873   0.878
  0.916   0.963   0.973   1.000   1.005   1.078   1.110   1.121
  1.125   1.195   1.211   1.233   1.237   1.249   1.273   1.329
  1.348   1.385   1.427   1.484   1.544   1.567   1.661   1.744
  1.776   1.796   1.798   1.812   1.819   1.858   1.931   1.955
  2.020   2.118   2.184   2.214   2.477   2.591   2.618   2.718
  2.771   2.781   2.795   2.833   2.863   2.921   3.016   3.023
  3.103   3.110   3.179   3.220   3.250   3.276   3.445   3.445
  3.479   3.604   3.690   3.690   3.929   4.041   4.054   4.120
  4.254   4.262   5.027   5.032   5.124   5.250   5.382   5.535
  5.580   5.983   6.043  23.793  23.937  24.389  49.922  50.032
 50.155
 --------------------------------------------------------------
 
          Ground-State Mulliken Net Atomic Charges

     Atom                 Charge (a.u.)    Spin (a.u.)
  --------------------------------------------------------
      1 O                    -0.062605      -0.013306
      2 C                     0.290316      -0.016536
      3 C                    -0.129956      -0.007320
      4 O                    -0.357457      -0.031329
      5 O                    -0.053724      -0.011114
      6 C                    -0.123259       0.035423
      7 Li                   -0.113597       1.041476
      8 H                     0.276194      -0.001070
      9 H                     0.274089       0.003777
  --------------------------------------------------------
  Sum of atomic charges =    -0.000000
  Sum of spin   charges =     1.000000

 -----------------------------------------------------------------
                    Cartesian Multipole Moments
 -----------------------------------------------------------------
    Charge (ESU x 10^10)
                -0.0000
    Dipole Moment (Debye)
         X     -10.3579      Y       3.4324      Z       0.0290
       Tot      10.9118
    Quadrupole Moments (Debye-Ang)
        XX     -88.2031     XY      17.8898     YY     -54.7182
        XZ       0.1019     YZ      -0.0462     ZZ     -48.4512
    Octopole Moments (Debye-Ang^2)
       XXX    -490.6445    XXY     150.4079    XYY    -126.4762
       YYY     209.4045    XXZ       1.0229    XYZ      -0.2436
       YYZ       0.4861    XZZ     -82.2902    YZZ      60.8743
       ZZZ       1.0255
    Hexadecapole Moments (Debye-Ang^3)
      XXXX   -3607.7737   XXXY    1033.6991   XXYY    -760.9430
      XYYY     615.7226   YYYY    -976.0502   XXXZ       7.3027
      XXYZ      -2.0953   XYYZ       1.8415   YYYZ      -2.3826
      XXZZ    -446.8050   XYZZ     176.5267   YYZZ    -187.7706
      XZZZ       4.0062   YZZZ      -2.1193   ZZZZ    -200.3986
 -----------------------------------------------------------------
 Calculating analytic gradient of the SCF energy
 Gradient of SCF Energy
            1           2           3           4           5           6
    1  -0.0010865   0.0029555   0.0134830   0.0027405  -0.0054527   0.0056801
    2   0.0068689  -0.0015743   0.0025866  -0.0020482  -0.0033966  -0.0118137
    3   0.0000569   0.0000729  -0.0001210  -0.0000529  -0.0000793   0.0000410
            7           8           9
    1   0.0009556  -0.0051280  -0.0141476
    2  -0.0001749   0.0136660  -0.0041136
    3  -0.0000023   0.0000346   0.0000502
 Max gradient component =       1.415E-02
 RMS gradient           =       5.786E-03
 Computing fast CPCM-SWIG gradient
 Updating gradient with PCM contributions...
 -- total gradient after adding PCM contribution --
---------------------------------------------------
  Atom         X              Y              Z     
---------------------------------------------------
   1      -0.003199       0.002429       0.000053
   2       0.005602      -0.003257       0.000052
   3       0.003288      -0.000296      -0.000096
   4      -0.000189       0.002400      -0.000015
   5      -0.003636       0.000810      -0.000079
   6       0.002297      -0.002349       0.000075
   7      -0.004376       0.000330       0.000012
   8       0.000242       0.000216      -0.000010
   9      -0.000028      -0.000282       0.000008
---------------------------------------------------
 Number of fixed atoms: 0
 Gradient time:  CPU 49.13 s  wall 2.92 s
 Geometry Optimization Parameters
   NAtoms,    NIC,     NZ,  NCons,   NDum,   NFix, NCnnct, MaxDiis
        9      53       0       0       0       0       0       0


** GEOMETRY OPTIMIZATION IN DELOCALIZED INTERNAL COORDINATES **
   Searching for a Minimum

   Optimization Cycle:   1

                       Coordinates (Angstroms)
     ATOM                X               Y               Z
      1  O         0.8779337884    0.1045304172   -0.0027678592
      2  C         1.0853313527   -1.2199936882   -0.0065929103
      3  C        -0.4866703097    0.3041532442    0.0020446440
      4  O         2.1541186567   -1.7578077803   -0.0118119962
      5  O        -0.0972679529   -1.8511128514   -0.0042766824
      6  C        -1.0774970281   -0.8811613352    0.0019012090
      7  Li        4.0533658887   -2.1319067492   -0.0158289800
      8  H        -0.8425954436    1.3182233094    0.0053798436
      9  H        -2.1014518465   -1.2075124896    0.0049210606
   Point Group: c1    Number of degrees of freedom:    21


   Energy is   -348.668610914


 Attempting to Generate Delocalized Internal Coordinates

 21 Hessian modes will be used to form the next step
  Hessian Eigenvalues:
     0.021884    0.024802    0.027324    0.030120    0.030430    0.042566
     0.101793    0.160000    0.160000    0.225786    0.247349    0.250000
     0.250000    0.366394    0.366413    0.452868    0.476690    0.518437
     0.559703    0.595659    1.066090

 Minimum Search - Taking Simple RFO Step
 Searching for Lamda that Minimizes Along All modes
 Value Taken    Lamda =  -0.00028234
 Step Taken.  Stepsize is  0.045143

                             Maximum     Tolerance    Cnvgd?
         Gradient           0.005750      0.000300      NO
         Displacement       0.027870      0.001200      NO
         Energy change     *********      0.000001      NO


 New Cartesian Coordinates Obtained by Inverse Iteration

 Displacement from previous Coordinates is:  0.052616
 ----------------------------------------------------------------
             Standard Nuclear Orientation (Angstroms)
    I     Atom           X                Y                Z
 ----------------------------------------------------------------
    1      O       0.8776727943     0.0999502459    -0.0035360584
    2      C       1.0824510092    -1.2235712380    -0.0069438878
    3      C      -0.4896151716     0.3051056189     0.0023714467
    4      O       2.1531867744    -1.7633770703    -0.0118561174
    5      O      -0.1006588159    -1.8510284711    -0.0034388495
    6      C      -1.0828052182    -0.8781577458     0.0016228379
    7      Li      4.0768921271    -2.1298278545    -0.0157265168
    8      H      -0.8442055807     1.3194612089     0.0059042699
    9      H      -2.1076508129    -1.2011426171     0.0045712045
 ----------------------------------------------------------------
 Nuclear Repulsion Energy =   250.9992915690 hartrees
 There are       24 alpha and       23 beta electrons
 Discretize the solute cavity surface with Lebedev spheres
	Using 194 Lebedev grid points for each H atom
	Using 194 Lebedev grid points for other atoms
	Atomic van der Waals radii will be scaled by 1.10
 Remove points where switching function is < 1.0e-08
 Keep 907 surface tesserae and discard 839 interior tesserae
 Molecular Surface Area = 129.598 Angst**2
 Nucleus-field energy     =     0.0000000010 hartrees
 Requested basis set is 6-311++G(d,p)
 There are 52 shells and 168 basis functions
 A cutoff of  1.0D-11 yielded   1320 shell pairs
 There are     14137 function pairs (     15357 Cartesian)
 Smallest overlap matrix eigenvalue = 3.02E-05
 Guess MOs from SCF MO coefficient file
 Reading MOs from coefficient file
 Reading MOs from coefficient file

 -----------------------------------------------------------------------
  General SCF calculation program by
  Eric Jon Sundstrom, Paul Horn, Yuezhi Mao, Dmitri Zuev, Alec White,
  David Stuck, Shaama M.S., Shane Yost, Joonho Lee, David Small,
  Daniel Levine, Susi Lehtola, Hugh Burton, Evgeny Epifanovsky
 -----------------------------------------------------------------------
 Exchange:     0.2220 Hartree-Fock + 1.0000 wB97X-D + LR-HF
 Correlation:  1.0000 wB97X-D
 Using SG-2 standard quadrature grid
 Dispersion:   Grimme D
 using 32 threads for integral computing
 -------------------------------------------------------
 OpenMP Integral computing Module                
 Release: version 1.0, May 2013, Q-Chem Inc. Pittsburgh 
 -------------------------------------------------------
 using 32 threads for integral computing
 -------------------------------------------------------
 OpenMP Integral computing Module                
 Release: version 1.0, May 2013, Q-Chem Inc. Pittsburgh 
 -------------------------------------------------------
 -------------------------------------------------------
 OpenMP BLAS3 based DFT computing Module                
 Release: version 1.0, May 2013, Q-Chem Inc. Pittsburgh 
 -------------------------------------------------------
 A unrestricted SCF calculation will be
 performed using DIIS
 SCF converges when DIIS error is below 1.0e-08
 ---------------------------------------
  Cycle       Energy         DIIS error
 ---------------------------------------
    1    -350.1709578427      2.25e-04  
    2    -348.6678386445      1.81e-04  
    3    -348.6684472428      7.84e-05  
    4    -348.6685775135      5.16e-05  
    5    -348.6686839329      2.77e-05  
    6    -348.6687331876      1.66e-05  
    7    -348.6687680289      1.15e-05  
    8    -348.6687991462      7.78e-06  
    9    -348.6688170900      4.70e-06  
   10    -348.6688261727      2.85e-06  
   11    -348.6688297046      1.93e-06  
   12    -348.6688318463      1.22e-06  
   13    -348.6688325354      6.06e-07  
   14    -348.6688327240      2.29e-07  
   15    -348.6688327471      1.62e-07  
   16    -348.6688327559      1.41e-07  
   17    -348.6688327654      1.17e-07  
   18    -348.6688327867      6.68e-08  
   19    -348.6688327953      2.44e-08  
   20    -348.6688327961      9.72e-09  Convergence criterion met
 ---------------------------------------
 SCF time:   CPU 483.09s  wall 17.00s 
 SCF   energy in the final basis set =     -348.6688327961
<S^2> =          0.750162845

************** Final PCM Free Energy Summary **************
 G_electrostatic  =      -0.02143127 hartree =     -13.44832296 kcal/mol
 G_cavitation     =       0.00000000 hartree =       0.00000000 kcal/mol
 G_dispersion     =       0.00000000 hartree =       0.00000000 kcal/mol
 G_repulsion      =       0.00000000 hartree =       0.00000000 kcal/mol
 --------------------------------------------------
 Non-electrostatic Free Energy =       0.00000000 hartree =       0.00000000 kcal/mol
 Total                         =      -0.02143127 hartree =     -13.44832296 kcal/mol
 --------------------------------------------------
 SCF Energy (H0 + V/2)                       =    -348.66883280 
 Solute Internal Energy (H0)                 =    -348.64740153 
 Total Free Energy (H0 + V/2 + non-elec)     =    -348.66883280 hartree
                                             = -218792.99482208 kcal/mol
***********************************************************

 
 --------------------------------------------------------------
 
                    Orbital Energies (a.u.)
 --------------------------------------------------------------
 
 Alpha MOs
 -- Occupied --
-19.360 -19.360 -19.277 -10.507 -10.378 -10.377  -2.038  -1.333
 -1.209  -1.195  -0.912  -0.798  -0.762  -0.669  -0.647  -0.603
 -0.598  -0.536  -0.519  -0.510  -0.493  -0.438  -0.355  -0.094
 -- Virtual --
  0.029   0.032   0.033   0.047   0.059   0.062   0.064   0.068
  0.077   0.080   0.084   0.113   0.116   0.133   0.135   0.159
  0.163   0.164   0.176   0.183   0.188   0.197   0.204   0.207
  0.209   0.217   0.229   0.258   0.277   0.282   0.313   0.324
  0.334   0.335   0.347   0.362   0.366   0.378   0.387   0.396
  0.411   0.442   0.454   0.474   0.482   0.532   0.549   0.585
  0.602   0.607   0.611   0.616   0.633   0.644   0.657   0.666
  0.705   0.753   0.764   0.779   0.805   0.851   0.874   0.876
  0.900   0.913   0.955   0.998   1.069   1.070   1.108   1.120
  1.194   1.199   1.228   1.234   1.248   1.266   1.328   1.333
  1.384   1.417   1.485   1.517   1.565   1.649   1.744   1.774
  1.795   1.796   1.809   1.819   1.850   1.930   1.953   2.017
  2.117   2.181   2.215   2.477   2.590   2.616   2.718   2.770
  2.780   2.795   2.831   2.863   2.921   3.016   3.020   3.100
  3.105   3.177   3.220   3.251   3.274   3.441   3.443   3.479
  3.602   3.684   3.687   3.919   4.036   4.053   4.120   4.247
  4.260   5.027   5.032   5.123   5.247   5.382   5.531   5.575
  5.980   6.043  23.789  23.933  24.391  49.921  50.032  50.153
 
 Beta MOs
 -- Occupied --
-19.360 -19.360 -19.277 -10.507 -10.378 -10.377  -2.037  -1.333
 -1.209  -1.194  -0.912  -0.798  -0.762  -0.669  -0.647  -0.603
 -0.598  -0.536  -0.519  -0.510  -0.493  -0.438  -0.355
 -- Virtual --
  0.040   0.060   0.062   0.066   0.069   0.069   0.080   0.088
  0.105   0.124   0.136   0.140   0.163   0.166   0.170   0.172
  0.182   0.195   0.204   0.220   0.238   0.248   0.263   0.264
  0.279   0.286   0.292   0.306   0.313   0.316   0.322   0.339
  0.350   0.350   0.368   0.383   0.406   0.409   0.417   0.446
  0.447   0.461   0.478   0.490   0.499   0.544   0.556   0.604
  0.605   0.623   0.643   0.643   0.671   0.708   0.709   0.749
  0.753   0.777   0.794   0.814   0.841   0.852   0.872   0.879
  0.916   0.961   0.970   0.999   1.004   1.076   1.110   1.120
  1.121   1.195   1.209   1.233   1.238   1.248   1.274   1.329
  1.346   1.386   1.424   1.485   1.545   1.568   1.657   1.745
  1.776   1.796   1.797   1.812   1.819   1.856   1.932   1.955
  2.019   2.117   2.182   2.215   2.478   2.591   2.616   2.718
  2.770   2.780   2.795   2.831   2.864   2.921   3.017   3.020
  3.100   3.105   3.178   3.220   3.251   3.275   3.441   3.444
  3.479   3.603   3.686   3.688   3.926   4.037   4.053   4.120
  4.249   4.260   5.027   5.032   5.124   5.249   5.383   5.531
  5.576   5.981   6.043  23.789  23.933  24.391  49.921  50.032
 50.153
 --------------------------------------------------------------
 
          Ground-State Mulliken Net Atomic Charges

     Atom                 Charge (a.u.)    Spin (a.u.)
  --------------------------------------------------------
      1 O                    -0.064779      -0.012733
      2 C                     0.289223      -0.014010
      3 C                    -0.127507      -0.008730
      4 O                    -0.366549      -0.029821
      5 O                    -0.056346      -0.010588
      6 C                    -0.122135       0.036395
      7 Li                   -0.103477       1.036854
      8 H                     0.276854      -0.001181
      9 H                     0.274714       0.003813
  --------------------------------------------------------
  Sum of atomic charges =    -0.000000
  Sum of spin   charges =     1.000000

 -----------------------------------------------------------------
                    Cartesian Multipole Moments
 -----------------------------------------------------------------
    Charge (ESU x 10^10)
                -0.0000
    Dipole Moment (Debye)
         X     -10.3851      Y       3.4353      Z       0.0188
       Tot      10.9386
    Quadrupole Moments (Debye-Ang)
        XX     -88.2964     XY      17.7962     YY     -54.6658
        XZ       0.0604     YZ      -0.0201     ZZ     -48.4372
    Octopole Moments (Debye-Ang^2)
       XXX    -493.4442    XXY     150.2952    XYY    -126.2845
       YYY     209.0796    XXZ       0.8146    XYZ      -0.1527
       YYZ       0.4098    XZZ     -82.4803    YZZ      60.8005
       ZZZ       0.9486
    Hexadecapole Moments (Debye-Ang^3)
      XXXX   -3642.7206   XXXY    1037.4686   XXYY    -762.5454
      XYYY     615.2313   YYYY    -973.0931   XXXZ       6.2179
      XXYZ      -1.6345   XYYZ       1.5343   YYYZ      -2.0839
      XXZZ    -449.5361   XYZZ     176.7647   YYZZ    -187.2441
      XZZZ       3.6848   YZZZ      -1.9319   ZZZZ    -199.7929
 -----------------------------------------------------------------
 Calculating analytic gradient of the SCF energy
 Gradient of SCF Energy
            1           2           3           4           5           6
    1   0.0008758  -0.0003319   0.0109526   0.0053426  -0.0028781   0.0035358
    2   0.0045085  -0.0002856   0.0031045  -0.0032852  -0.0031950  -0.0102391
    3  -0.0000360  -0.0000567   0.0000521  -0.0000046   0.0001001  -0.0001333
            7           8           9
    1   0.0022072  -0.0054684  -0.0142356
    2  -0.0004387   0.0134750  -0.0036445
    3  -0.0000142   0.0000611   0.0000315
 Max gradient component =       1.424E-02
 RMS gradient           =       5.300E-03
 Computing fast CPCM-SWIG gradient
 Updating gradient with PCM contributions...
 -- total gradient after adding PCM contribution --
---------------------------------------------------
  Atom         X              Y              Z     
---------------------------------------------------
   1      -0.001304       0.000207      -0.000038
   2       0.002153      -0.001861      -0.000068
   3       0.000721       0.000215       0.000081
   4       0.002856       0.001002       0.000015
   5      -0.001160       0.000953       0.000098
   6       0.000199      -0.000729      -0.000100
   7      -0.003346       0.000103       0.000009
   8      -0.000068      -0.000004       0.000013
   9      -0.000050       0.000115      -0.000009
---------------------------------------------------
 Number of fixed atoms: 0
 Gradient time:  CPU 48.10 s  wall 2.54 s
 Geometry Optimization Parameters
   NAtoms,    NIC,     NZ,  NCons,   NDum,   NFix, NCnnct, MaxDiis
        9      53       0       0       0       0       0       0

 Cartesian Hessian Update
 Hessian Updated using BFGS Update


** GEOMETRY OPTIMIZATION IN DELOCALIZED INTERNAL COORDINATES **
   Searching for a Minimum

   Optimization Cycle:   2

                       Coordinates (Angstroms)
     ATOM                X               Y               Z
      1  O         0.8776727943    0.0999502459   -0.0035360584
      2  C         1.0824510092   -1.2235712380   -0.0069438878
      3  C        -0.4896151716    0.3051056189    0.0023714467
      4  O         2.1531867744   -1.7633770703   -0.0118561174
      5  O        -0.1006588159   -1.8510284711   -0.0034388495
      6  C        -1.0828052182   -0.8781577458    0.0016228379
      7  Li        4.0768921271   -2.1298278545   -0.0157265168
      8  H        -0.8442055807    1.3194612089    0.0059042699
      9  H        -2.1076508129   -1.2011426171    0.0045712045
   Point Group: c1    Number of degrees of freedom:    21


   Energy is   -348.668832796

 Hessian Updated using BFGS Update

 21 Hessian modes will be used to form the next step
  Hessian Eigenvalues:
     0.021886    0.024921    0.027325    0.030120    0.030444    0.033729
     0.042567    0.160000    0.162147    0.225834    0.239708    0.249790
     0.270013    0.366403    0.366478    0.452869    0.496056    0.541236
     0.560871    0.607085    1.142004

 Minimum Search - Taking Simple RFO Step
 Searching for Lamda that Minimizes Along All modes
 Value Taken    Lamda =  -0.00042063
 Step Taken.  Stepsize is  0.109615

                             Maximum     Tolerance    Cnvgd?
         Gradient           0.002640      0.000300      NO
         Displacement       0.071500      0.001200      NO
         Energy change     -0.000222      0.000001      NO


 New Cartesian Coordinates Obtained by Inverse Iteration

 Displacement from previous Coordinates is:  0.112453
 ----------------------------------------------------------------
             Standard Nuclear Orientation (Angstroms)
    I     Atom           X                Y                Z
 ----------------------------------------------------------------
    1      O       0.8781941115     0.0930858108    -0.0023169443
    2      C       1.0707742845    -1.2301625964    -0.0066713217
    3      C      -0.4917040898     0.3063182395     0.0019206582
    4      O       2.1415485192    -1.7763842870    -0.0120470179
    5      O      -0.1113509370    -1.8543057445    -0.0049167925
    6      C      -1.0908514759    -0.8732791430     0.0022953811
    7      Li      4.1264729101    -2.1194171828    -0.0157617721
    8      H      -0.8406310339     1.3224623337     0.0050820245
    9      H      -2.1171851829    -1.1909053533     0.0053841140
 ----------------------------------------------------------------
 Nuclear Repulsion Energy =   250.5591990302 hartrees
 There are       24 alpha and       23 beta electrons
 Discretize the solute cavity surface with Lebedev spheres
	Using 194 Lebedev grid points for each H atom
	Using 194 Lebedev grid points for other atoms
	Atomic van der Waals radii will be scaled by 1.10
 Remove points where switching function is < 1.0e-08
 Keep 910 surface tesserae and discard 836 interior tesserae
 Molecular Surface Area = 130.115 Angst**2
 Nucleus-field energy     =     0.0000000010 hartrees
 Requested basis set is 6-311++G(d,p)
 There are 52 shells and 168 basis functions
 A cutoff of  1.0D-11 yielded   1319 shell pairs
 There are     14125 function pairs (     15345 Cartesian)
 Smallest overlap matrix eigenvalue = 3.02E-05
 Guess MOs from SCF MO coefficient file
 Reading MOs from coefficient file
 Reading MOs from coefficient file

 -----------------------------------------------------------------------
  General SCF calculation program by
  Eric Jon Sundstrom, Paul Horn, Yuezhi Mao, Dmitri Zuev, Alec White,
  David Stuck, Shaama M.S., Shane Yost, Joonho Lee, David Small,
  Daniel Levine, Susi Lehtola, Hugh Burton, Evgeny Epifanovsky
 -----------------------------------------------------------------------
 Exchange:     0.2220 Hartree-Fock + 1.0000 wB97X-D + LR-HF
 Correlation:  1.0000 wB97X-D
 Using SG-2 standard quadrature grid
 Dispersion:   Grimme D
 using 32 threads for integral computing
 -------------------------------------------------------
 OpenMP Integral computing Module                
 Release: version 1.0, May 2013, Q-Chem Inc. Pittsburgh 
 -------------------------------------------------------
 using 32 threads for integral computing
 -------------------------------------------------------
 OpenMP Integral computing Module                
 Release: version 1.0, May 2013, Q-Chem Inc. Pittsburgh 
 -------------------------------------------------------
 -------------------------------------------------------
 OpenMP BLAS3 based DFT computing Module                
 Release: version 1.0, May 2013, Q-Chem Inc. Pittsburgh 
 -------------------------------------------------------
 A unrestricted SCF calculation will be
 performed using DIIS
 SCF converges when DIIS error is below 1.0e-08
 ---------------------------------------
  Cycle       Energy         DIIS error
 ---------------------------------------
    1    -350.1586549510      2.73e-04  
    2    -348.6680185325      1.92e-04  
    3    -348.6686972884      8.90e-05  
    4    -348.6688474992      5.06e-05  
    5    -348.6689552825      2.49e-05  
    6    -348.6690008635      1.42e-05  
    7    -348.6690344911      9.67e-06  
    8    -348.6690624939      6.81e-06  
    9    -348.6690789558      3.84e-06  
   10    -348.6690861039      2.40e-06  
   11    -348.6690888558      1.71e-06  
   12    -348.6690905413      1.16e-06  
   13    -348.6690911301      5.89e-07  
   14    -348.6690913065      2.59e-07  
   15    -348.6690913341      2.00e-07  
   16    -348.6690913476      1.72e-07  
   17    -348.6690913655      1.41e-07  
   18    -348.6690913996      6.87e-08  
   19    -348.6690914083      2.25e-08  
   20    -348.6690914089      5.89e-09  Convergence criterion met
 ---------------------------------------
 SCF time:   CPU 480.47s  wall 17.00s 
 SCF   energy in the final basis set =     -348.6690914089
<S^2> =          0.750152793

************** Final PCM Free Energy Summary **************
 G_electrostatic  =      -0.02217829 hartree =     -13.91708901 kcal/mol
 G_cavitation     =       0.00000000 hartree =       0.00000000 kcal/mol
 G_dispersion     =       0.00000000 hartree =       0.00000000 kcal/mol
 G_repulsion      =       0.00000000 hartree =       0.00000000 kcal/mol
 --------------------------------------------------
 Non-electrostatic Free Energy =       0.00000000 hartree =       0.00000000 kcal/mol
 Total                         =      -0.02217829 hartree =     -13.91708901 kcal/mol
 --------------------------------------------------
 SCF Energy (H0 + V/2)                       =    -348.66909141 
 Solute Internal Energy (H0)                 =    -348.64691312 
 Total Free Energy (H0 + V/2 + non-elec)     =    -348.66909141 hartree
                                             = -218793.15710405 kcal/mol
***********************************************************

 
 --------------------------------------------------------------
 
                    Orbital Energies (a.u.)
 --------------------------------------------------------------
 
 Alpha MOs
 -- Occupied --
-19.360 -19.360 -19.275 -10.505 -10.379 -10.378  -2.039  -1.333
 -1.208  -1.191  -0.912  -0.797  -0.761  -0.668  -0.646  -0.603
 -0.594  -0.537  -0.519  -0.510  -0.490  -0.435  -0.356  -0.095
 -- Virtual --
  0.029   0.032   0.033   0.047   0.059   0.062   0.065   0.068
  0.077   0.080   0.084   0.112   0.116   0.132   0.135   0.159
  0.163   0.164   0.176   0.183   0.188   0.197   0.202   0.207
  0.208   0.216   0.228   0.259   0.278   0.282   0.313   0.323
  0.333   0.334   0.347   0.361   0.365   0.378   0.386   0.396
  0.409   0.442   0.454   0.472   0.481   0.531   0.548   0.586
  0.602   0.606   0.612   0.617   0.633   0.644   0.657   0.664
  0.705   0.751   0.764   0.776   0.804   0.851   0.871   0.875
  0.897   0.913   0.952   0.998   1.063   1.067   1.109   1.120
  1.193   1.197   1.227   1.234   1.249   1.267   1.328   1.328
  1.385   1.413   1.485   1.516   1.565   1.644   1.744   1.773
  1.793   1.797   1.810   1.819   1.849   1.930   1.954   2.014
  2.116   2.181   2.216   2.476   2.591   2.616   2.717   2.769
  2.780   2.795   2.829   2.865   2.922   3.013   3.022   3.097
  3.100   3.179   3.221   3.253   3.273   3.438   3.442   3.482
  3.604   3.683   3.688   3.910   4.028   4.053   4.116   4.230
  4.260   5.027   5.032   5.123   5.248   5.381   5.528   5.576
  5.978   6.040  23.785  23.930  24.393  49.921  50.032  50.152
 
 Beta MOs
 -- Occupied --
-19.360 -19.360 -19.274 -10.505 -10.378 -10.378  -2.037  -1.333
 -1.208  -1.190  -0.912  -0.797  -0.761  -0.668  -0.646  -0.603
 -0.594  -0.537  -0.519  -0.509  -0.490  -0.435  -0.356
 -- Virtual --
  0.040   0.059   0.062   0.066   0.069   0.071   0.080   0.088
  0.106   0.124   0.136   0.140   0.162   0.166   0.169   0.172
  0.182   0.195   0.203   0.220   0.238   0.247   0.259   0.264
  0.279   0.286   0.291   0.305   0.308   0.316   0.322   0.338
  0.349   0.350   0.366   0.382   0.405   0.408   0.415   0.444
  0.447   0.459   0.478   0.490   0.496   0.543   0.553   0.603
  0.605   0.622   0.643   0.645   0.669   0.710   0.714   0.750
  0.758   0.778   0.791   0.815   0.841   0.852   0.868   0.879
  0.917   0.957   0.962   0.999   1.004   1.074   1.109   1.111
  1.121   1.194   1.207   1.232   1.238   1.249   1.275   1.328
  1.340   1.387   1.419   1.485   1.545   1.568   1.651   1.746
  1.775   1.794   1.797   1.814   1.819   1.854   1.931   1.956
  2.016   2.116   2.182   2.216   2.476   2.592   2.617   2.717
  2.770   2.780   2.795   2.830   2.866   2.923   3.013   3.022
  3.097   3.100   3.179   3.222   3.254   3.273   3.439   3.442
  3.482   3.605   3.685   3.689   3.918   4.030   4.053   4.117
  4.232   4.260   5.028   5.032   5.124   5.249   5.381   5.529
  5.576   5.979   6.040  23.785  23.931  24.393  49.921  50.032
 50.152
 --------------------------------------------------------------
 
          Ground-State Mulliken Net Atomic Charges

     Atom                 Charge (a.u.)    Spin (a.u.)
  --------------------------------------------------------
      1 O                    -0.066738      -0.011301
      2 C                     0.285617      -0.008522
      3 C                    -0.123408      -0.012321
      4 O                    -0.385487      -0.026269
      5 O                    -0.057884      -0.009296
      6 C                    -0.123503       0.039219
      7 Li                   -0.081066       1.026065
      8 H                     0.277472      -0.001486
      9 H                     0.274998       0.003911
  --------------------------------------------------------
  Sum of atomic charges =    -0.000000
  Sum of spin   charges =     1.000000

 -----------------------------------------------------------------
                    Cartesian Multipole Moments
 -----------------------------------------------------------------
    Charge (ESU x 10^10)
                -0.0000
    Dipole Moment (Debye)
         X     -10.3876      Y       3.3996      Z       0.0256
       Tot      10.9298
    Quadrupole Moments (Debye-Ang)
        XX     -88.5367     XY      17.4635     YY     -54.3872
        XZ       0.0823     YZ      -0.0403     ZZ     -48.3737
    Octopole Moments (Debye-Ang^2)
       XXX    -499.2151    XXY     149.2583    XYY    -125.1291
       YYY     207.3732    XXZ       0.9402    XYZ      -0.1977
       YYZ       0.4563    XZZ     -82.7167    YZZ      60.4324
       ZZZ       0.9889
    Hexadecapole Moments (Debye-Ang^3)
      XXXX   -3717.5345   XXXY    1039.9424   XXYY    -761.8882
      XYYY     609.2082   YYYY    -961.0363   XXXZ       6.9288
      XXYZ      -1.8910   XYYZ       1.6941   YYYZ      -2.2622
      XXZZ    -454.6063   XYZZ     176.1822   YYZZ    -185.2463
      XZZZ       3.8875   YZZZ      -2.0413   ZZZZ    -197.9816
 -----------------------------------------------------------------
 Calculating analytic gradient of the SCF energy
 Gradient of SCF Energy
            1           2           3           4           5           6
    1   0.0048823  -0.0080666   0.0087440   0.0063177   0.0007494   0.0022856
    2   0.0028873   0.0032026   0.0030885  -0.0043724  -0.0054186  -0.0083999
    3   0.0001138   0.0001464  -0.0002211  -0.0000837  -0.0002206   0.0002048
            7           8           9
    1   0.0046143  -0.0054041  -0.0141226
    2  -0.0008599   0.0133481  -0.0034757
    3  -0.0000124   0.0000121   0.0000606
 Max gradient component =       1.412E-02
 RMS gradient           =       5.441E-03
 Computing fast CPCM-SWIG gradient
 Updating gradient with PCM contributions...
 -- total gradient after adding PCM contribution --
---------------------------------------------------
  Atom         X              Y              Z     
---------------------------------------------------
   1       0.002536      -0.001270       0.000109
   2      -0.005738       0.001704       0.000129
   3      -0.001518       0.000269      -0.000199
   4       0.004726      -0.000355      -0.000052
   5       0.002360      -0.001264      -0.000219
   6      -0.000964       0.001101       0.000238
   7      -0.001385      -0.000242       0.000006
   8      -0.000080      -0.000138      -0.000030
   9       0.000063       0.000195       0.000018
---------------------------------------------------
 Number of fixed atoms: 0
 Gradient time:  CPU 47.65 s  wall 2.50 s
 Geometry Optimization Parameters
   NAtoms,    NIC,     NZ,  NCons,   NDum,   NFix, NCnnct, MaxDiis
        9      53       0       0       0       0       0       0

 Cartesian Hessian Update
 Hessian Updated using BFGS Update


** GEOMETRY OPTIMIZATION IN DELOCALIZED INTERNAL COORDINATES **
   Searching for a Minimum

   Optimization Cycle:   3

                       Coordinates (Angstroms)
     ATOM                X               Y               Z
      1  O         0.8781941115    0.0930858108   -0.0023169443
      2  C         1.0707742845   -1.2301625964   -0.0066713217
      3  C        -0.4917040898    0.3063182395    0.0019206582
      4  O         2.1415485192   -1.7763842870   -0.0120470179
      5  O        -0.1113509370   -1.8543057445   -0.0049167925
      6  C        -1.0908514759   -0.8732791430    0.0022953811
      7  Li        4.1264729101   -2.1194171828   -0.0157617721
      8  H        -0.8406310339    1.3224623337    0.0050820245
      9  H        -2.1171851829   -1.1909053533    0.0053841140
   Point Group: c1    Number of degrees of freedom:    21


   Energy is   -348.669091409

 Hessian Updated using BFGS Update

 21 Hessian modes will be used to form the next step
  Hessian Eigenvalues:
     0.020497    0.021890    0.025469    0.027326    0.030124    0.030483
     0.042567    0.160000    0.162149    0.225857    0.235984    0.251209
     0.293056    0.366403    0.366502    0.452890    0.516338    0.542514
     0.560818    0.615099    1.203145

 Minimum Search - Taking Simple RFO Step
 Searching for Lamda that Minimizes Along All modes
 Value Taken    Lamda =  -0.00013478
 Step Taken.  Stepsize is  0.069837

                             Maximum     Tolerance    Cnvgd?
         Gradient           0.003670      0.000300      NO
         Displacement       0.041189      0.001200      NO
         Energy change     -0.000259      0.000001      NO


 New Cartesian Coordinates Obtained by Inverse Iteration

 Displacement from previous Coordinates is:  0.075692
 ----------------------------------------------------------------
             Standard Nuclear Orientation (Angstroms)
    I     Atom           X                Y                Z
 ----------------------------------------------------------------
    1      O       0.8767355058     0.0877515714    -0.0045538553
    2      C       1.0657930528    -1.2364887265    -0.0071214552
    3      C      -0.4922584497     0.3068669961     0.0028056375
    4      O       2.1333938871    -1.7879043038    -0.0118725564
    5      O      -0.1200195726    -1.8542718651    -0.0023660102
    6      C      -1.0961541651    -0.8699358775     0.0012762013
    7      Li      4.1574467680    -2.1087548162    -0.0158129775
    8      H      -0.8361681317     1.3248298463     0.0065463838
    9      H      -2.1235017888    -1.1846807478     0.0040669612
 ----------------------------------------------------------------
 Nuclear Repulsion Energy =   250.3456792424 hartrees
 There are       24 alpha and       23 beta electrons
 Discretize the solute cavity surface with Lebedev spheres
	Using 194 Lebedev grid points for each H atom
	Using 194 Lebedev grid points for other atoms
	Atomic van der Waals radii will be scaled by 1.10
 Remove points where switching function is < 1.0e-08
 Keep 912 surface tesserae and discard 834 interior tesserae
 Molecular Surface Area = 130.440 Angst**2
 Nucleus-field energy     =     0.0000000010 hartrees
 Requested basis set is 6-311++G(d,p)
 There are 52 shells and 168 basis functions
 A cutoff of  1.0D-11 yielded   1319 shell pairs
 There are     14125 function pairs (     15345 Cartesian)
 Smallest overlap matrix eigenvalue = 3.01E-05
 Guess MOs from SCF MO coefficient file
 Reading MOs from coefficient file
 Reading MOs from coefficient file

 -----------------------------------------------------------------------
  General SCF calculation program by
  Eric Jon Sundstrom, Paul Horn, Yuezhi Mao, Dmitri Zuev, Alec White,
  David Stuck, Shaama M.S., Shane Yost, Joonho Lee, David Small,
  Daniel Levine, Susi Lehtola, Hugh Burton, Evgeny Epifanovsky
 -----------------------------------------------------------------------
 Exchange:     0.2220 Hartree-Fock + 1.0000 wB97X-D + LR-HF
 Correlation:  1.0000 wB97X-D
 Using SG-2 standard quadrature grid
 Dispersion:   Grimme D
 using 32 threads for integral computing
 -------------------------------------------------------
 OpenMP Integral computing Module                
 Release: version 1.0, May 2013, Q-Chem Inc. Pittsburgh 
 -------------------------------------------------------
 using 32 threads for integral computing
 -------------------------------------------------------
 OpenMP Integral computing Module                
 Release: version 1.0, May 2013, Q-Chem Inc. Pittsburgh 
 -------------------------------------------------------
 -------------------------------------------------------
 OpenMP BLAS3 based DFT computing Module                
 Release: version 1.0, May 2013, Q-Chem Inc. Pittsburgh 
 -------------------------------------------------------
 A unrestricted SCF calculation will be
 performed using DIIS
 SCF converges when DIIS error is below 1.0e-08
 ---------------------------------------
  Cycle       Energy         DIIS error
 ---------------------------------------
    1    -350.1413563901      2.34e-04  
    2    -348.6681241887      1.85e-04  
    3    -348.6687851704      7.73e-05  
    4    -348.6689269266      5.16e-05  
    5    -348.6690359867      2.91e-05  
    6    -348.6690867819      1.73e-05  
    7    -348.6691235796      1.20e-05  
    8    -348.6691534644      8.46e-06  
    9    -348.6691743472      4.90e-06  
   10    -348.6691844652      2.86e-06  
   11    -348.6691879988      1.94e-06  
   12    -348.6691901506      1.23e-06  
   13    -348.6691908096      6.46e-07  
   14    -348.6691910303      2.71e-07  
   15    -348.6691910639      2.04e-07  
   16    -348.6691910788      1.78e-07  
   17    -348.6691910973      1.46e-07  
   18    -348.6691911338      7.14e-08  
   19    -348.6691911432      2.42e-08  
   20    -348.6691911438      9.48e-09  Convergence criterion met
 ---------------------------------------
 SCF time:   CPU 483.66s  wall 16.00s 
 SCF   energy in the final basis set =     -348.6691911438
<S^2> =          0.750145569

************** Final PCM Free Energy Summary **************
 G_electrostatic  =      -0.02261049 hartree =     -14.18829767 kcal/mol
 G_cavitation     =       0.00000000 hartree =       0.00000000 kcal/mol
 G_dispersion     =       0.00000000 hartree =       0.00000000 kcal/mol
 G_repulsion      =       0.00000000 hartree =       0.00000000 kcal/mol
 --------------------------------------------------
 Non-electrostatic Free Energy =       0.00000000 hartree =       0.00000000 kcal/mol
 Total                         =      -0.02261049 hartree =     -14.18829767 kcal/mol
 --------------------------------------------------
 SCF Energy (H0 + V/2)                       =    -348.66919114 
 Solute Internal Energy (H0)                 =    -348.64658065 
 Total Free Energy (H0 + V/2 + non-elec)     =    -348.66919114 hartree
                                             = -218793.21968866 kcal/mol
***********************************************************

 
 --------------------------------------------------------------
 
                    Orbital Energies (a.u.)
 --------------------------------------------------------------
 
 Alpha MOs
 -- Occupied --
-19.359 -19.359 -19.274 -10.504 -10.378 -10.377  -2.040  -1.332
 -1.208  -1.190  -0.912  -0.796  -0.761  -0.668  -0.646  -0.603
 -0.593  -0.536  -0.518  -0.509  -0.490  -0.434  -0.355  -0.095
 -- Virtual --
  0.030   0.032   0.033   0.047   0.059   0.062   0.066   0.068
  0.077   0.080   0.084   0.112   0.116   0.132   0.135   0.159
  0.163   0.164   0.175   0.183   0.188   0.197   0.202   0.207
  0.208   0.216   0.228   0.260   0.279   0.282   0.313   0.322
  0.333   0.334   0.347   0.360   0.365   0.377   0.386   0.396
  0.408   0.442   0.454   0.471   0.481   0.531   0.548   0.587
  0.602   0.607   0.613   0.618   0.633   0.644   0.658   0.662
  0.705   0.749   0.765   0.774   0.804   0.851   0.868   0.875
  0.894   0.914   0.950   0.998   1.059   1.066   1.109   1.120
  1.194   1.196   1.228   1.235   1.249   1.268   1.326   1.328
  1.385   1.411   1.485   1.513   1.565   1.642   1.745   1.773
  1.794   1.797   1.810   1.820   1.848   1.931   1.954   2.014
  2.116   2.182   2.216   2.476   2.592   2.616   2.718   2.768
  2.780   2.795   2.830   2.866   2.923   3.014   3.022   3.097
  3.100   3.179   3.221   3.254   3.273   3.439   3.443   3.482
  3.606   3.684   3.691   3.902   4.026   4.053   4.118   4.220
  4.259   5.028   5.032   5.123   5.248   5.382   5.527   5.575
  5.976   6.041  23.784  23.930  24.395  49.922  50.032  50.152
 
 Beta MOs
 -- Occupied --
-19.359 -19.359 -19.274 -10.504 -10.378 -10.377  -2.038  -1.332
 -1.207  -1.190  -0.912  -0.796  -0.761  -0.667  -0.646  -0.603
 -0.592  -0.536  -0.518  -0.509  -0.489  -0.434  -0.355
 -- Virtual --
  0.040   0.060   0.062   0.066   0.069   0.072   0.080   0.088
  0.106   0.124   0.135   0.140   0.162   0.166   0.168   0.172
  0.182   0.195   0.203   0.220   0.238   0.246   0.255   0.265
  0.279   0.286   0.291   0.304   0.306   0.316   0.322   0.338
  0.349   0.349   0.364   0.382   0.404   0.408   0.415   0.443
  0.446   0.457   0.477   0.489   0.495   0.543   0.551   0.604
  0.605   0.623   0.643   0.644   0.669   0.712   0.713   0.750
  0.761   0.778   0.789   0.815   0.842   0.852   0.867   0.879
  0.916   0.955   0.957   0.999   1.004   1.072   1.102   1.111
  1.121   1.195   1.206   1.232   1.239   1.249   1.275   1.329
  1.337   1.387   1.416   1.486   1.544   1.567   1.648   1.747
  1.775   1.795   1.797   1.814   1.820   1.853   1.932   1.956
  2.016   2.116   2.182   2.217   2.476   2.592   2.616   2.718
  2.769   2.780   2.795   2.830   2.867   2.923   3.014   3.022
  3.097   3.100   3.179   3.222   3.254   3.273   3.440   3.444
  3.482   3.606   3.685   3.693   3.911   4.027   4.054   4.118
  4.222   4.259   5.028   5.033   5.124   5.250   5.382   5.528
  5.575   5.977   6.041  23.784  23.931  24.395  49.922  50.032
 50.153
 --------------------------------------------------------------
 
          Ground-State Mulliken Net Atomic Charges

     Atom                 Charge (a.u.)    Spin (a.u.)
  --------------------------------------------------------
      1 O                    -0.069491      -0.010409
      2 C                     0.284681      -0.005050
      3 C                    -0.120965      -0.015011
      4 O                    -0.392602      -0.024312
      5 O                    -0.060290      -0.008437
      6 C                    -0.124552       0.041096
      7 Li                   -0.068854       1.019917
      8 H                     0.277368      -0.001747
      9 H                     0.274705       0.003954
  --------------------------------------------------------
  Sum of atomic charges =    -0.000000
  Sum of spin   charges =     1.000000

 -----------------------------------------------------------------
                    Cartesian Multipole Moments
 -----------------------------------------------------------------
    Charge (ESU x 10^10)
                -0.0000
    Dipole Moment (Debye)
         X     -10.3309      Y       3.3325      Z       0.0159
       Tot      10.8551
    Quadrupole Moments (Debye-Ang)
        XX     -88.5605     XY      17.0440     YY     -54.0796
        XZ       0.0505     YZ      -0.0071     ZZ     -48.3239
    Octopole Moments (Debye-Ang^2)
       XXX    -502.1417    XXY     147.5970    XYY    -123.6352
       YYY     205.5499    XXZ       0.7633    XYZ      -0.1222
       YYZ       0.3793    XZZ     -82.7774    YZZ      60.0635
       ZZZ       0.9290
    Hexadecapole Moments (Debye-Ang^3)
      XXXX   -3761.0360   XXXY    1035.3634   XXYY    -757.4657
      XYYY     601.3833   YYYY    -949.1912   XXXZ       6.0877
      XXYZ      -1.4723   XYYZ       1.4413   YYYZ      -1.9405
      XXZZ    -457.4218   XYZZ     175.1048   YYZZ    -183.3992
      XZZZ       3.6603   YZZZ      -1.8475   ZZZZ    -196.6883
 -----------------------------------------------------------------
 Calculating analytic gradient of the SCF energy
 Gradient of SCF Energy
            1           2           3           4           5           6
    1   0.0043717  -0.0070398   0.0083437   0.0048845   0.0010721   0.0020499
    2   0.0023686   0.0028091   0.0026395  -0.0043181  -0.0045349  -0.0078151
    3  -0.0001989  -0.0001081   0.0002816   0.0000227   0.0002862  -0.0003543
            7           8           9
    1   0.0056911  -0.0052816  -0.0140917
    2  -0.0009841   0.0133464  -0.0035114
    3  -0.0000225   0.0000915   0.0000019
 Max gradient component =       1.409E-02
 RMS gradient           =       5.231E-03
 Computing fast CPCM-SWIG gradient
 Updating gradient with PCM contributions...
 -- total gradient after adding PCM contribution --
---------------------------------------------------
  Atom         X              Y              Z     
---------------------------------------------------
   1       0.002020      -0.001707      -0.000197
   2      -0.004797       0.001321      -0.000116
   3      -0.001879      -0.000069       0.000315
   4       0.003718      -0.000309       0.000028
   5       0.002660      -0.000459       0.000282
   6      -0.001114       0.001578      -0.000324
   7      -0.000538      -0.000391       0.000006
   8      -0.000068      -0.000057       0.000040
   9      -0.000002       0.000092      -0.000035
---------------------------------------------------
 Number of fixed atoms: 0
 Gradient time:  CPU 48.22 s  wall 2.51 s
 Geometry Optimization Parameters
   NAtoms,    NIC,     NZ,  NCons,   NDum,   NFix, NCnnct, MaxDiis
        9      53       0       0       0       0       0       0

 Cartesian Hessian Update
 Hessian Updated using BFGS Update


** GEOMETRY OPTIMIZATION IN DELOCALIZED INTERNAL COORDINATES **
   Searching for a Minimum

   Optimization Cycle:   4

                       Coordinates (Angstroms)
     ATOM                X               Y               Z
      1  O         0.8767355058    0.0877515714   -0.0045538553
      2  C         1.0657930528   -1.2364887265   -0.0071214552
      3  C        -0.4922584497    0.3068669961    0.0028056375
      4  O         2.1333938871   -1.7879043038   -0.0118725564
      5  O        -0.1200195726   -1.8542718651   -0.0023660102
      6  C        -1.0961541651   -0.8699358775    0.0012762013
      7  Li        4.1574467680   -2.1087548162   -0.0158129775
      8  H        -0.8361681317    1.3248298463    0.0065463838
      9  H        -2.1235017888   -1.1846807478    0.0040669612
   Point Group: c1    Number of degrees of freedom:    21


   Energy is   -348.669191144

 Hessian Updated using BFGS Update

 21 Hessian modes will be used to form the next step
  Hessian Eigenvalues:
     0.011133    0.021891    0.027314    0.028437    0.030151    0.031073
     0.042567    0.160008    0.162235    0.221700    0.226072    0.252187
     0.295653    0.366403    0.366610    0.452972    0.488017    0.540734
     0.560912    0.612525    1.111584

 Minimum Search - Taking Simple RFO Step
 Searching for Lamda that Minimizes Along All modes
 Value Taken    Lamda =  -0.00013698
 Step Taken.  Stepsize is  0.093492

                             Maximum     Tolerance    Cnvgd?
         Gradient           0.002964      0.000300      NO
         Displacement       0.052513      0.001200      NO
         Energy change     -0.000100      0.000001      NO


 New Cartesian Coordinates Obtained by Inverse Iteration

 Displacement from previous Coordinates is:  0.113030
 ----------------------------------------------------------------
             Standard Nuclear Orientation (Angstroms)
    I     Atom           X                Y                Z
 ----------------------------------------------------------------
    1      O       0.8762042476     0.0787431703    -0.0011263663
    2      C       1.0580198881    -1.2483676282    -0.0066928350
    3      C      -0.4896743030     0.3068430272     0.0014282876
    4      O       2.1196328958    -1.8072927449    -0.0124645834
    5      O      -0.1350447254    -1.8564958011    -0.0061346410
    6      C      -1.1023283299    -0.8658460199     0.0028770690
    7      Li      4.1958682679    -2.0840386056    -0.0155772040
    8      H      -0.8255879254     1.3275506435     0.0043873252
    9      H      -2.1318229101    -1.1736839645     0.0062712770
 ----------------------------------------------------------------
 Nuclear Repulsion Energy =   250.1143350923 hartrees
 There are       24 alpha and       23 beta electrons
 Discretize the solute cavity surface with Lebedev spheres
	Using 194 Lebedev grid points for each H atom
	Using 194 Lebedev grid points for other atoms
	Atomic van der Waals radii will be scaled by 1.10
 Remove points where switching function is < 1.0e-08
 Keep 915 surface tesserae and discard 831 interior tesserae
 Molecular Surface Area = 130.856 Angst**2
 Nucleus-field energy     =     0.0000000010 hartrees
 Requested basis set is 6-311++G(d,p)
 There are 52 shells and 168 basis functions
 A cutoff of  1.0D-11 yielded   1317 shell pairs
 There are     14106 function pairs (     15323 Cartesian)
 Smallest overlap matrix eigenvalue = 3.01E-05
 Guess MOs from SCF MO coefficient file
 Reading MOs from coefficient file
 Reading MOs from coefficient file

 -----------------------------------------------------------------------
  General SCF calculation program by
  Eric Jon Sundstrom, Paul Horn, Yuezhi Mao, Dmitri Zuev, Alec White,
  David Stuck, Shaama M.S., Shane Yost, Joonho Lee, David Small,
  Daniel Levine, Susi Lehtola, Hugh Burton, Evgeny Epifanovsky
 -----------------------------------------------------------------------
 Exchange:     0.2220 Hartree-Fock + 1.0000 wB97X-D + LR-HF
 Correlation:  1.0000 wB97X-D
 Using SG-2 standard quadrature grid
 Dispersion:   Grimme D
 using 32 threads for integral computing
 -------------------------------------------------------
 OpenMP Integral computing Module                
 Release: version 1.0, May 2013, Q-Chem Inc. Pittsburgh 
 -------------------------------------------------------
 using 32 threads for integral computing
 -------------------------------------------------------
 OpenMP Integral computing Module                
 Release: version 1.0, May 2013, Q-Chem Inc. Pittsburgh 
 -------------------------------------------------------
 -------------------------------------------------------
 OpenMP BLAS3 based DFT computing Module                
 Release: version 1.0, May 2013, Q-Chem Inc. Pittsburgh 
 -------------------------------------------------------
 A unrestricted SCF calculation will be
 performed using DIIS
 SCF converges when DIIS error is below 1.0e-08
 ---------------------------------------
  Cycle       Energy         DIIS error
 ---------------------------------------
    1    -350.1284420401      2.83e-04  
    2    -348.6681667061      1.87e-04  
    3    -348.6688739585      7.68e-05  
    4    -348.6690250163      4.77e-05  
    5    -348.6691266551      2.59e-05  
    6    -348.6691717420      1.49e-05  
    7    -348.6692065367      1.01e-05  
    8    -348.6692346905      7.19e-06  
    9    -348.6692529821      3.97e-06  
   10    -348.6692608307      2.43e-06  
   11    -348.6692636019      1.77e-06  
   12    -348.6692652843      1.21e-06  
   13    -348.6692659735      6.41e-07  
   14    -348.6692661936      4.03e-07  
   15    -348.6692662381      3.05e-07  
   16    -348.6692662689      2.46e-07  
   17    -348.6692662993      2.26e-07  
   18    -348.6692663324      1.74e-07  
   19    -348.6692663786      1.07e-07  
   20    -348.6692663896      4.11e-08  
   21    -348.6692663913      1.34e-08  
   22    -348.6692663914      7.94e-09  Convergence criterion met
 ---------------------------------------
 SCF time:   CPU 537.56s  wall 19.00s 
 SCF   energy in the final basis set =     -348.6692663914
<S^2> =          0.750136048

************** Final PCM Free Energy Summary **************
 G_electrostatic  =      -0.02313616 hartree =     -14.51815680 kcal/mol
 G_cavitation     =       0.00000000 hartree =       0.00000000 kcal/mol
 G_dispersion     =       0.00000000 hartree =       0.00000000 kcal/mol
 G_repulsion      =       0.00000000 hartree =       0.00000000 kcal/mol
 --------------------------------------------------
 Non-electrostatic Free Energy =       0.00000000 hartree =       0.00000000 kcal/mol
 Total                         =      -0.02313616 hartree =     -14.51815680 kcal/mol
 --------------------------------------------------
 SCF Energy (H0 + V/2)                       =    -348.66926639 
 Solute Internal Energy (H0)                 =    -348.64613024 
 Total Free Energy (H0 + V/2 + non-elec)     =    -348.66926639 hartree
                                             = -218793.26690722 kcal/mol
***********************************************************

 
 --------------------------------------------------------------
 
                    Orbital Energies (a.u.)
 --------------------------------------------------------------
 
 Alpha MOs
 -- Occupied --
-19.358 -19.358 -19.274 -10.503 -10.377 -10.376  -2.040  -1.331
 -1.207  -1.190  -0.911  -0.795  -0.760  -0.666  -0.645  -0.602
 -0.591  -0.535  -0.517  -0.508  -0.489  -0.434  -0.354  -0.095
 -- Virtual --
  0.030   0.032   0.033   0.047   0.060   0.062   0.067   0.068
  0.077   0.080   0.084   0.112   0.116   0.132   0.135   0.159
  0.164   0.164   0.175   0.183   0.189   0.197   0.203   0.207
  0.208   0.216   0.227   0.260   0.280   0.283   0.313   0.321
  0.333   0.334   0.348   0.359   0.364   0.376   0.385   0.396
  0.406   0.442   0.455   0.469   0.481   0.532   0.548   0.589
  0.602   0.608   0.614   0.618   0.633   0.644   0.659   0.661
  0.704   0.746   0.765   0.772   0.804   0.851   0.864   0.873
  0.889   0.916   0.947   0.998   1.054   1.065   1.110   1.120
  1.194   1.195   1.228   1.236   1.250   1.268   1.323   1.328
  1.385   1.409   1.486   1.507   1.564   1.641   1.746   1.773
  1.796   1.797   1.811   1.820   1.847   1.931   1.954   2.014
  2.116   2.183   2.217   2.476   2.592   2.616   2.718   2.768
  2.781   2.796   2.831   2.867   2.924   3.016   3.020   3.100
  3.102   3.179   3.220   3.253   3.275   3.442   3.446   3.482
  3.607   3.686   3.699   3.890   4.023   4.054   4.119   4.207
  4.259   5.028   5.033   5.122   5.250   5.381   5.528   5.575
  5.973   6.042  23.785  23.931  24.394  49.923  50.032  50.153
 
 Beta MOs
 -- Occupied --
-19.358 -19.358 -19.273 -10.503 -10.377 -10.376  -2.038  -1.331
 -1.206  -1.190  -0.911  -0.795  -0.760  -0.666  -0.645  -0.602
 -0.591  -0.535  -0.517  -0.508  -0.489  -0.433  -0.354
 -- Virtual --
  0.039   0.060   0.062   0.067   0.069   0.072   0.080   0.089
  0.107   0.124   0.135   0.139   0.161   0.166   0.167   0.172
  0.182   0.195   0.204   0.220   0.237   0.245   0.249   0.263
  0.279   0.286   0.289   0.300   0.304   0.316   0.323   0.338
  0.348   0.348   0.362   0.381   0.403   0.408   0.414   0.441
  0.446   0.455   0.476   0.489   0.494   0.543   0.549   0.605
  0.605   0.624   0.642   0.644   0.668   0.715   0.718   0.751
  0.765   0.779   0.787   0.816   0.844   0.853   0.865   0.879
  0.917   0.947   0.953   1.000   1.005   1.071   1.093   1.112
  1.121   1.196   1.204   1.233   1.240   1.250   1.276   1.329
  1.333   1.387   1.414   1.486   1.539   1.566   1.646   1.747
  1.775   1.797   1.797   1.815   1.820   1.851   1.932   1.955
  2.016   2.116   2.183   2.217   2.476   2.593   2.617   2.719
  2.768   2.781   2.796   2.832   2.867   2.925   3.016   3.021
  3.100   3.103   3.179   3.220   3.253   3.275   3.442   3.446
  3.482   3.608   3.687   3.702   3.899   4.023   4.054   4.120
  4.209   4.259   5.029   5.033   5.123   5.251   5.381   5.528
  5.576   5.974   6.042  23.785  23.931  24.394  49.923  50.032
 50.153
 --------------------------------------------------------------
 
          Ground-State Mulliken Net Atomic Charges

     Atom                 Charge (a.u.)    Spin (a.u.)
  --------------------------------------------------------
      1 O                    -0.072614      -0.009327
      2 C                     0.283347      -0.000672
      3 C                    -0.118251      -0.019276
      4 O                    -0.399050      -0.021959
      5 O                    -0.063005      -0.007256
      6 C                    -0.126542       0.044407
      7 Li                   -0.054815       1.012257
      8 H                     0.276903      -0.002209
      9 H                     0.274027       0.004035
  --------------------------------------------------------
  Sum of atomic charges =    -0.000000
  Sum of spin   charges =     1.000000

 -----------------------------------------------------------------
                    Cartesian Multipole Moments
 -----------------------------------------------------------------
    Charge (ESU x 10^10)
                -0.0000
    Dipole Moment (Debye)
         X     -10.2154      Y       3.1860      Z       0.0263
       Tot      10.7007
    Quadrupole Moments (Debye-Ang)
        XX     -88.5094     XY      16.1769     YY     -53.4658
        XZ       0.0780     YZ      -0.0456     ZZ     -48.2599
    Octopole Moments (Debye-Ang^2)
       XXX    -505.1364    XXY     143.5897    XYY    -120.3750
       YYY     201.8529    XXZ       0.9399    XYZ      -0.1781
       YYZ       0.4533    XZZ     -82.7781    YZZ      59.3437
       ZZZ       0.9809
    Hexadecapole Moments (Debye-Ang^3)
      XXXX   -3811.5975   XXXY    1016.4297   XXYY    -743.9692
      XYYY     583.0367   YYYY    -925.8401   XXXZ       6.9458
      XXYZ      -1.8153   XYYZ       1.6229   YYYZ      -2.2229
      XXZZ    -460.5653   XYZZ     172.1682   YYZZ    -179.9288
      XZZZ       3.8680   YZZZ      -2.0118   ZZZZ    -195.0099
 -----------------------------------------------------------------
 Calculating analytic gradient of the SCF energy
 Gradient of SCF Energy
            1           2           3           4           5           6
    1   0.0030564  -0.0041057   0.0091894   0.0019151  -0.0003977   0.0024037
    2   0.0031663   0.0014744   0.0024322  -0.0035047  -0.0039057  -0.0083723
    3   0.0003210   0.0001907  -0.0005058  -0.0001061  -0.0004421   0.0004825
            7           8           9
    1   0.0067851  -0.0049614  -0.0138849
    2  -0.0010050   0.0132586  -0.0035438
    3  -0.0000123  -0.0000244   0.0000965
 Max gradient component =       1.388E-02
 RMS gradient           =       5.054E-03
 Computing fast CPCM-SWIG gradient
 Updating gradient with PCM contributions...
 -- total gradient after adding PCM contribution --
---------------------------------------------------
  Atom         X              Y              Z     
---------------------------------------------------
   1       0.000704      -0.000853       0.000313
   2      -0.001904      -0.000042       0.000170
   3      -0.000980      -0.000082      -0.000487
   4       0.001190       0.000541      -0.000078
   5       0.001211       0.000077      -0.000438
   6      -0.000637       0.000862       0.000518
   7       0.000334      -0.000443       0.000015
   8       0.000056       0.000019      -0.000062
   9       0.000026      -0.000079       0.000049
---------------------------------------------------
 Number of fixed atoms: 0
 Gradient time:  CPU 48.65 s  wall 2.58 s
 Geometry Optimization Parameters
   NAtoms,    NIC,     NZ,  NCons,   NDum,   NFix, NCnnct, MaxDiis
        9      53       0       0       0       0       0       0

 Cartesian Hessian Update
 Hessian Updated using BFGS Update


** GEOMETRY OPTIMIZATION IN DELOCALIZED INTERNAL COORDINATES **
   Searching for a Minimum

   Optimization Cycle:   5

                       Coordinates (Angstroms)
     ATOM                X               Y               Z
      1  O         0.8762042476    0.0787431703   -0.0011263663
      2  C         1.0580198881   -1.2483676282   -0.0066928350
      3  C        -0.4896743030    0.3068430272    0.0014282876
      4  O         2.1196328958   -1.8072927449   -0.0124645834
      5  O        -0.1350447254   -1.8564958011   -0.0061346410
      6  C        -1.1023283299   -0.8658460199    0.0028770690
      7  Li        4.1958682679   -2.0840386056   -0.0155772040
      8  H        -0.8255879254    1.3275506435    0.0043873252
      9  H        -2.1318229101   -1.1736839645    0.0062712770
   Point Group: c1    Number of degrees of freedom:    21


   Energy is   -348.669266391

 Hessian Updated using BFGS Update

 21 Hessian modes will be used to form the next step
  Hessian Eigenvalues:
     0.009870    0.021891    0.027320    0.029858    0.030212    0.034975
     0.042570    0.160009    0.162848    0.195631    0.225945    0.252152
     0.301154    0.366404    0.366619    0.452925    0.461593    0.538435
     0.560910    0.598004    1.067904

 Minimum Search - Taking Simple RFO Step
 Searching for Lamda that Minimizes Along All modes
 Value Taken    Lamda =  -0.00004276
 Step Taken.  Stepsize is  0.038689

                             Maximum     Tolerance    Cnvgd?
         Gradient           0.001285      0.000300      NO
         Displacement       0.017042      0.001200      NO
         Energy change     -0.000075      0.000001      NO


 New Cartesian Coordinates Obtained by Inverse Iteration

 Displacement from previous Coordinates is:  0.057779
 ----------------------------------------------------------------
             Standard Nuclear Orientation (Angstroms)
    I     Atom           X                Y                Z
 ----------------------------------------------------------------
    1      O       0.8775570144     0.0737057021    -0.0049181279
    2      C       1.0544793755    -1.2553236535    -0.0067816123
    3      C      -0.4860934421     0.3061354621     0.0030109188
    4      O       2.1123995603    -1.8185043274    -0.0117029045
    5      O      -0.1424879917    -1.8589260318    -0.0016299267
    6      C      -1.1037162266    -0.8644395251     0.0009963782
    7      Li      4.2065135867    -2.0661357875    -0.0162536203
    8      H      -0.8186133926     1.3279619081     0.0067451971
    9      H      -2.1347713782    -1.1670616701     0.0035020266
 ----------------------------------------------------------------
 Nuclear Repulsion Energy =   250.0792809298 hartrees
 There are       24 alpha and       23 beta electrons
 Discretize the solute cavity surface with Lebedev spheres
	Using 194 Lebedev grid points for each H atom
	Using 194 Lebedev grid points for other atoms
	Atomic van der Waals radii will be scaled by 1.10
 Remove points where switching function is < 1.0e-08
 Keep 912 surface tesserae and discard 834 interior tesserae
 Molecular Surface Area = 130.968 Angst**2
 Nucleus-field energy     =     0.0000000010 hartrees
 Requested basis set is 6-311++G(d,p)
 There are 52 shells and 168 basis functions
 A cutoff of  1.0D-11 yielded   1317 shell pairs
 There are     14106 function pairs (     15323 Cartesian)
 Smallest overlap matrix eigenvalue = 3.01E-05
 Guess MOs from SCF MO coefficient file
 Reading MOs from coefficient file
 Reading MOs from coefficient file

 -----------------------------------------------------------------------
  General SCF calculation program by
  Eric Jon Sundstrom, Paul Horn, Yuezhi Mao, Dmitri Zuev, Alec White,
  David Stuck, Shaama M.S., Shane Yost, Joonho Lee, David Small,
  Daniel Levine, Susi Lehtola, Hugh Burton, Evgeny Epifanovsky
 -----------------------------------------------------------------------
 Exchange:     0.2220 Hartree-Fock + 1.0000 wB97X-D + LR-HF
 Correlation:  1.0000 wB97X-D
 Using SG-2 standard quadrature grid
 Dispersion:   Grimme D
 using 32 threads for integral computing
 -------------------------------------------------------
 OpenMP Integral computing Module                
 Release: version 1.0, May 2013, Q-Chem Inc. Pittsburgh 
 -------------------------------------------------------
 using 32 threads for integral computing
 -------------------------------------------------------
 OpenMP Integral computing Module                
 Release: version 1.0, May 2013, Q-Chem Inc. Pittsburgh 
 -------------------------------------------------------
 -------------------------------------------------------
 OpenMP BLAS3 based DFT computing Module                
 Release: version 1.0, May 2013, Q-Chem Inc. Pittsburgh 
 -------------------------------------------------------
 A unrestricted SCF calculation will be
 performed using DIIS
 SCF converges when DIIS error is below 1.0e-08
 ---------------------------------------
[...]
 A cutoff of  1.0D-11 yielded   1322 shell pairs
 There are     14145 function pairs (     15365 Cartesian)
 Smallest overlap matrix eigenvalue = 2.97E-05
 Guess MOs from SCF MO coefficient file
 Reading MOs from coefficient file
 Reading MOs from coefficient file

 -----------------------------------------------------------------------
  General SCF calculation program by
  Eric Jon Sundstrom, Paul Horn, Yuezhi Mao, Dmitri Zuev, Alec White,
  David Stuck, Shaama M.S., Shane Yost, Joonho Lee, David Small,
  Daniel Levine, Susi Lehtola, Hugh Burton, Evgeny Epifanovsky
 -----------------------------------------------------------------------
 Exchange:     0.2220 Hartree-Fock + 1.0000 wB97X-D + LR-HF
 Correlation:  1.0000 wB97X-D
 Using SG-2 standard quadrature grid
 Dispersion:   Grimme D
 using 32 threads for integral computing
 -------------------------------------------------------
 OpenMP Integral computing Module                
 Release: version 1.0, May 2013, Q-Chem Inc. Pittsburgh 
 -------------------------------------------------------
 using 32 threads for integral computing
 -------------------------------------------------------
 OpenMP Integral computing Module                
 Release: version 1.0, May 2013, Q-Chem Inc. Pittsburgh 
 -------------------------------------------------------
 -------------------------------------------------------
 OpenMP BLAS3 based DFT computing Module                
 Release: version 1.0, May 2013, Q-Chem Inc. Pittsburgh 
 -------------------------------------------------------
 A unrestricted SCF calculation will be
 performed using DIIS
 SCF converges when DIIS error is below 1.0e-08
 ---------------------------------------
  Cycle       Energy         DIIS error
 ---------------------------------------
    1    -350.1175917878      2.28e-04  
    2    -348.6689570900      1.95e-04  
    3    -348.6696662821      8.58e-05  
    4    -348.6698278387      6.11e-05  
    5    -348.6699546573      3.78e-05  
    6    -348.6700193141      2.66e-05  
    7    -348.6700569943      2.10e-05  
    8    -348.6700858962      1.74e-05  
    9    -348.6701112911      1.41e-05  
   10    -348.6701337066      1.09e-05  
   11    -348.6701427147      9.39e-06  
   12    -348.6701516284      7.69e-06  
   13    -348.6701594675      5.89e-06  
   14    -348.6701636142      4.71e-06  
   15    -348.6701655694      4.07e-06  
   16    -348.6701670253      3.55e-06  
   17    -348.6701716202      3.69e-07  
   18    -348.6701717698      2.11e-07  
   19    -348.6701718576      1.45e-07  
   20    -348.6701718697      9.37e-08  
   21    -348.6701718716      4.63e-08  
   22    -348.6701718720      2.21e-08  
   23    -348.6701718721      7.65e-09  Convergence criterion met
 ---------------------------------------
 SCF time:   CPU 560.30s  wall 20.00s 
 SCF   energy in the final basis set =     -348.6701718721
<S^2> =          0.750115641

************** Final PCM Free Energy Summary **************
 G_electrostatic  =      -0.02542432 hartree =     -15.95400434 kcal/mol
 G_cavitation     =       0.00000000 hartree =       0.00000000 kcal/mol
 G_dispersion     =       0.00000000 hartree =       0.00000000 kcal/mol
 G_repulsion      =       0.00000000 hartree =       0.00000000 kcal/mol
 --------------------------------------------------
 Non-electrostatic Free Energy =       0.00000000 hartree =       0.00000000 kcal/mol
 Total                         =      -0.02542432 hartree =     -15.95400434 kcal/mol
 --------------------------------------------------
 SCF Energy (H0 + V/2)                       =    -348.67017187 
 Solute Internal Energy (H0)                 =    -348.64474755 
 Total Free Energy (H0 + V/2 + non-elec)     =    -348.67017187 hartree
                                             = -218793.83510497 kcal/mol
***********************************************************

 
 --------------------------------------------------------------
 
                    Orbital Energies (a.u.)
 --------------------------------------------------------------
 
 Alpha MOs
 -- Occupied --
-19.358 -19.358 -19.274 -10.502 -10.377 -10.376  -2.039  -1.331
 -1.207  -1.190  -0.910  -0.795  -0.760  -0.665  -0.645  -0.602
 -0.586  -0.535  -0.517  -0.508  -0.489  -0.437  -0.354  -0.096
 -- Virtual --
  0.028   0.031   0.031   0.046   0.060   0.063   0.068   0.070
  0.074   0.081   0.082   0.114   0.118   0.134   0.136   0.156
  0.164   0.166   0.168   0.180   0.188   0.193   0.204   0.206
  0.211   0.213   0.231   0.262   0.279   0.285   0.309   0.327
  0.329   0.331   0.347   0.353   0.354   0.368   0.383   0.397
  0.404   0.436   0.454   0.479   0.488   0.538   0.545   0.588
  0.599   0.617   0.620   0.621   0.639   0.649   0.666   0.686
  0.694   0.713   0.750   0.784   0.796   0.842   0.853   0.872
  0.904   0.918   0.937   1.006   1.023   1.050   1.115   1.120
  1.188   1.200   1.233   1.254   1.255   1.286   1.305   1.327
  1.384   1.399   1.462   1.488   1.560   1.641   1.741   1.768
  1.797   1.800   1.816   1.820   1.838   1.934   1.958   2.002
  2.117   2.183   2.217   2.476   2.588   2.619   2.718   2.771
  2.785   2.797   2.831   2.880   2.957   3.019   3.023   3.100
  3.107   3.180   3.212   3.251   3.275   3.441   3.441   3.480
  3.606   3.688   3.743   3.862   4.008   4.060   4.121   4.149
  4.261   5.027   5.035   5.118   5.291   5.374   5.526   5.582
  5.973   6.044  23.786  23.918  24.394  49.924  50.033  50.146
 
 Beta MOs
 -- Occupied --
-19.358 -19.358 -19.274 -10.502 -10.377 -10.376  -2.038  -1.330
 -1.206  -1.189  -0.910  -0.795  -0.759  -0.665  -0.644  -0.602
 -0.586  -0.535  -0.517  -0.508  -0.489  -0.437  -0.353
 -- Virtual --
  0.038   0.058   0.061   0.063   0.072   0.073   0.084   0.088
  0.100   0.127   0.138   0.143   0.158   0.169   0.175   0.178
  0.188   0.201   0.206   0.221   0.231   0.247   0.251   0.258
  0.275   0.277   0.293   0.293   0.301   0.321   0.335   0.345
  0.349   0.351   0.370   0.374   0.381   0.403   0.419   0.424
  0.440   0.454   0.484   0.490   0.507   0.547   0.553   0.590
  0.605   0.619   0.640   0.662   0.664   0.699   0.706   0.744
  0.764   0.766   0.799   0.819   0.830   0.842   0.855   0.869
  0.881   0.938   0.989   1.013   1.024   1.044   1.052   1.118
  1.122   1.197   1.201   1.240   1.255   1.259   1.289   1.316
  1.328   1.386   1.402   1.483   1.488   1.561   1.646   1.744
  1.770   1.799   1.800   1.819   1.820   1.842   1.935   1.960
  2.004   2.117   2.183   2.217   2.476   2.588   2.619   2.719
  2.772   2.786   2.798   2.832   2.881   2.959   3.019   3.024
  3.100   3.107   3.180   3.213   3.251   3.276   3.441   3.441
  3.480   3.607   3.689   3.744   3.876   4.008   4.061   4.122
  4.150   4.261   5.027   5.036   5.118   5.292   5.375   5.527
  5.582   5.974   6.045  23.786  23.918  24.394  49.924  50.033
 50.146
 --------------------------------------------------------------
 
          Ground-State Mulliken Net Atomic Charges

     Atom                 Charge (a.u.)    Spin (a.u.)
  --------------------------------------------------------
      1 O                    -0.084860      -0.006329
      2 C                     0.254458       0.025471
      3 C                    -0.068913      -0.055770
      4 O                    -0.375006      -0.037197
      5 O                    -0.072017      -0.003199
      6 C                    -0.181250       0.108500
      7 Li                   -0.034011       0.974592
      8 H                     0.285246      -0.012795
      9 H                     0.276353       0.006729
  --------------------------------------------------------
  Sum of atomic charges =     0.000000
  Sum of spin   charges =     1.000000

 -----------------------------------------------------------------
                    Cartesian Multipole Moments
 -----------------------------------------------------------------
    Charge (ESU x 10^10)
                -0.0000
    Dipole Moment (Debye)
         X      -9.0326      Y       0.9066      Z       0.0612
       Tot       9.0782
    Quadrupole Moments (Debye-Ang)
        XX     -79.4943     XY       1.1791     YY     -47.8571
        XZ       0.2789     YZ      -0.0203     ZZ     -48.5660
    Octopole Moments (Debye-Ang^2)
       XXX    -424.3973    XXY      49.5316    XYY     -74.7392
       YYY     156.3081    XXZ       1.8872    XYZ      -0.1406
       YYZ       0.4913    XZZ     -78.7234    YZZ      46.8873
       ZZZ       1.5020
    Hexadecapole Moments (Debye-Ang^3)
      XXXX   -3114.5389   XXXY     348.5012   XXYY    -440.3452
      XYYY     266.8790   YYYY    -672.6608   XXXZ      12.7643
      XXYZ      -1.4226   XYYZ       1.9094   YYYZ      -1.7133
      XXZZ    -416.3703   XYZZ      93.5935   YYZZ    -139.2450
      XZZZ       6.1919   YZZZ      -1.8077   ZZZZ    -200.6825
 -----------------------------------------------------------------
 Calculating analytic gradient of the SCF energy
 Gradient of SCF Energy
            1           2           3           4           5           6
    1   0.0029061  -0.0021725   0.0113609   0.0006667  -0.0020229   0.0006607
    2   0.0055596   0.0025388   0.0015065  -0.0097594  -0.0038688  -0.0094870
    3   0.0000207   0.0000044  -0.0000371   0.0000471  -0.0000287   0.0000131
            7           8           9
    1   0.0056093  -0.0031420  -0.0138663
    2   0.0027065   0.0126073  -0.0018034
    3  -0.0000545   0.0000299   0.0000053
 Max gradient component =       1.387E-02
 RMS gradient           =       5.410E-03
 Computing fast CPCM-SWIG gradient
 Updating gradient with PCM contributions...
 -- total gradient after adding PCM contribution --
---------------------------------------------------
  Atom         X              Y              Z     
---------------------------------------------------
   1       0.000093      -0.000109       0.000015
   2      -0.000173       0.000127       0.000018
   3      -0.000081       0.000022      -0.000021
   4       0.000070      -0.000103      -0.000022
   5       0.000075      -0.000032      -0.000017
   6      -0.000037       0.000077       0.000017
   7       0.000038      -0.000015       0.000013
   8       0.000017       0.000006      -0.000001
   9      -0.000001       0.000025      -0.000002
---------------------------------------------------
 Number of fixed atoms: 0
 Gradient time:  CPU 48.93 s  wall 2.58 s
 Geometry Optimization Parameters
   NAtoms,    NIC,     NZ,  NCons,   NDum,   NFix, NCnnct, MaxDiis
        9      53       0       0       0       0       0       0

 Cartesian Hessian Update
 Hessian Updated using BFGS Update


** GEOMETRY OPTIMIZATION IN DELOCALIZED INTERNAL COORDINATES **
   Searching for a Minimum

   Optimization Cycle:  17

                       Coordinates (Angstroms)
     ATOM                X               Y               Z
      1  O         0.9738801695   -0.1044099850   -0.0000288651
      2  C         1.0091777822   -1.4438248124   -0.0030716402
      3  C        -0.3587600274    0.2709731931    0.0018077734
      4  O         2.0040916879   -2.1181900203   -0.0057551381
      5  O        -0.2430321789   -1.9186411915   -0.0030113926
      6  C        -1.0954361214   -0.8281693765    0.0001661226
      7  Li        4.0091968312   -1.4820110400   -0.0220293124
      8  H        -0.5812116119    1.3222370759    0.0042818091
      9  H        -2.1526394255   -1.0205517663    0.0006089723
   Point Group: c1    Number of degrees of freedom:    21


   Energy is   -348.670171872

 Hessian Updated using BFGS Update

 21 Hessian modes will be used to form the next step
  Hessian Eigenvalues:
     0.017901    0.022274    0.027426    0.030063    0.033872    0.042257
     0.051156    0.057560    0.158120    0.159885    0.225644    0.262924
     0.282401    0.366413    0.366592    0.422348    0.453651    0.546584
     0.556951    0.597969    1.081968

 Minimum Search - Taking Simple RFO Step
 Searching for Lamda that Minimizes Along All modes
 Value Taken    Lamda =   0.00000000
 Step Taken.  Stepsize is  0.001558

                             Maximum     Tolerance    Cnvgd?
         Gradient           0.000117      0.000300     YES
         Displacement       0.000906      0.001200     YES
         Energy change     -0.000000      0.000001     YES


                       Distance Matrix (Angstroms)
             O (  1)   C (  2)   C (  3)   O (  4)   O (  5)   C (  6)
   C (  2)  1.339883
   C (  3)  1.384502  2.193584
   O (  4)  2.262008  1.201927  3.360242
   O (  5)  2.184564  1.339209  2.192676  2.255968
   C (  6)  2.192236  2.192816  1.323181  3.357270  1.384099
   Li(  7)  3.333379  3.000322  4.706652  2.103672  4.274630  5.146385
   H (  8)  2.110367  3.190688  1.074545  4.303537  3.258483  2.211039
   H (  9)  3.257981  3.190025  2.210439  4.299217  2.110255  1.074565
             Li(  7)   H (  8)
   H (  8)  5.379252
   H (  9)  6.179133  2.821003
 
 Final energy is   -348.670171872145     


 ******************************
 **  OPTIMIZATION CONVERGED  **
 ******************************

                       Coordinates (Angstroms)
     ATOM                X               Y               Z
      1  O         0.9738801695   -0.1044099850   -0.0000288651
      2  C         1.0091777822   -1.4438248124   -0.0030716402
      3  C        -0.3587600274    0.2709731931    0.0018077734
      4  O         2.0040916879   -2.1181900203   -0.0057551381
      5  O        -0.2430321789   -1.9186411915   -0.0030113926
      6  C        -1.0954361214   -0.8281693765    0.0001661226
      7  Li        4.0091968312   -1.4820110400   -0.0220293124
      8  H        -0.5812116119    1.3222370759    0.0042818091
      9  H        -2.1526394255   -1.0205517663    0.0006089723

Z-matrix Print:
$molecule
0 2
O 
C  1 1.339883
O  2 1.201927 1 125.639631
O  2 1.339209 1 109.256237 3 -179.984069 0
C  4 1.384099 2 107.248254 1 0.001797 0
H  5 1.074565 4 117.700707 2 179.995749 0
C  5 1.323181 4 108.154852 2 0.006461 0
H  7 1.074545 5 134.221170 4 180.000000 0
Li 3 2.103672 2 128.266709 1 -0.532030 0
$end

 
 --------------------------------------------------------------
 
                    Orbital Energies (a.u.)
 --------------------------------------------------------------
 
 Alpha MOs
 -- Occupied --
-19.358 -19.358 -19.274 -10.502 -10.377 -10.376  -2.039  -1.331
 -1.207  -1.190  -0.910  -0.795  -0.760  -0.665  -0.645  -0.602
 -0.586  -0.535  -0.517  -0.508  -0.489  -0.437  -0.354  -0.096
 -- Virtual --
  0.028   0.031   0.031   0.046   0.060   0.063   0.068   0.070
  0.074   0.081   0.082   0.114   0.118   0.134   0.136   0.156
  0.164   0.166   0.168   0.180   0.188   0.193   0.204   0.206
  0.211   0.213   0.231   0.262   0.279   0.285   0.309   0.327
  0.329   0.331   0.347   0.353   0.354   0.368   0.383   0.397
  0.404   0.436   0.454   0.479   0.488   0.538   0.545   0.588
  0.599   0.617   0.620   0.621   0.639   0.649   0.666   0.686
  0.694   0.713   0.750   0.784   0.796   0.842   0.853   0.872
  0.904   0.918   0.937   1.006   1.023   1.050   1.115   1.120
  1.188   1.200   1.233   1.254   1.255   1.286   1.305   1.327
  1.384   1.399   1.462   1.488   1.560   1.641   1.741   1.768
  1.797   1.800   1.816   1.820   1.838   1.934   1.958   2.002
  2.117   2.183   2.217   2.476   2.588   2.619   2.718   2.771
  2.785   2.797   2.831   2.880   2.957   3.019   3.023   3.100
  3.107   3.180   3.212   3.251   3.275   3.441   3.441   3.480
  3.606   3.688   3.743   3.862   4.008   4.060   4.121   4.149
  4.261   5.027   5.035   5.118   5.291   5.374   5.526   5.582
  5.973   6.044  23.786  23.918  24.394  49.924  50.033  50.146
 
 Beta MOs
 -- Occupied --
-19.358 -19.358 -19.274 -10.502 -10.377 -10.376  -2.038  -1.330
 -1.206  -1.189  -0.910  -0.795  -0.759  -0.665  -0.644  -0.602
 -0.586  -0.535  -0.517  -0.508  -0.489  -0.437  -0.353
 -- Virtual --
  0.038   0.058   0.061   0.063   0.072   0.073   0.084   0.088
  0.100   0.127   0.138   0.143   0.158   0.169   0.175   0.178
  0.188   0.201   0.206   0.221   0.231   0.247   0.251   0.258
  0.275   0.277   0.293   0.293   0.301   0.321   0.335   0.345
  0.349   0.351   0.370   0.374   0.381   0.403   0.419   0.424
  0.440   0.454   0.484   0.490   0.507   0.547   0.553   0.590
  0.605   0.619   0.640   0.662   0.664   0.699   0.706   0.744
  0.764   0.766   0.799   0.819   0.830   0.842   0.855   0.869
  0.881   0.938   0.989   1.013   1.024   1.044   1.052   1.118
  1.122   1.197   1.201   1.240   1.255   1.259   1.289   1.316
  1.328   1.386   1.402   1.483   1.488   1.561   1.646   1.744
  1.770   1.799   1.800   1.819   1.820   1.842   1.935   1.960
  2.004   2.117   2.183   2.217   2.476   2.588   2.619   2.719
  2.772   2.786   2.798   2.832   2.881   2.959   3.019   3.024
  3.100   3.107   3.180   3.213   3.251   3.276   3.441   3.441
  3.480   3.607   3.689   3.744   3.876   4.008   4.061   4.122
  4.150   4.261   5.027   5.036   5.118   5.292   5.375   5.527
  5.582   5.974   6.045  23.786  23.918  24.394  49.924  50.033
 50.146
 --------------------------------------------------------------
 
          Ground-State Mulliken Net Atomic Charges

     Atom                 Charge (a.u.)    Spin (a.u.)
  --------------------------------------------------------
      1 O                    -0.084860      -0.006329
      2 C                     0.254458       0.025471
      3 C                    -0.068913      -0.055770
      4 O                    -0.375006      -0.037197
      5 O                    -0.072017      -0.003199
      6 C                    -0.181250       0.108500
      7 Li                   -0.034011       0.974592
      8 H                     0.285246      -0.012795
      9 H                     0.276353       0.006729
  --------------------------------------------------------
  Sum of atomic charges =     0.000000
  Sum of spin   charges =     1.000000

 -----------------------------------------------------------------
                    Cartesian Multipole Moments
 -----------------------------------------------------------------
    Charge (ESU x 10^10)
                -0.0000
    Dipole Moment (Debye)
         X      -9.0326      Y       0.9066      Z       0.0612
       Tot       9.0782
    Quadrupole Moments (Debye-Ang)
        XX     -79.4943     XY       1.1791     YY     -47.8571
        XZ       0.2789     YZ      -0.0203     ZZ     -48.5660
    Octopole Moments (Debye-Ang^2)
       XXX    -424.3973    XXY      49.5316    XYY     -74.7392
       YYY     156.3081    XXZ       1.8872    XYZ      -0.1406
       YYZ       0.4913    XZZ     -78.7234    YZZ      46.8873
       ZZZ       1.5020
    Hexadecapole Moments (Debye-Ang^3)
      XXXX   -3114.5389   XXXY     348.5012   XXYY    -440.3452
      XYYY     266.8790   YYYY    -672.6608   XXXZ      12.7643
      XXYZ      -1.4226   XYYZ       1.9094   YYYZ      -1.7133
      XXZZ    -416.3703   XYZZ      93.5935   YYZZ    -139.2450
      XZZZ       6.1919   YZZZ      -1.8077   ZZZZ    -200.6825
 -----------------------------------------------------------------
Archival summary:
1\1\nid00679\OPT\ProcedureUnspecified\BasisUnspecified\33i12(2)\sblau\TueJun511:52:222018TueJun511:52:222018\0\\#,OPT,ProcedureUnspecified,BasisUnspecified,\\0,2\O\C,1,1.33988\O,2,1.20193,1,125.64\O,2,1.33921,1,109.256,3,-179.984,0\C,4,1.3841,2,107.248,1,0.00179675,0\H,5,1.07457,4,117.701,2,179.996,0\C,5,1.32318,4,108.155,2,0.00646116,0\H,7,1.07454,5,134.221,4,180,0\Li,3,2.10367,2,128.267,1,-0.53203,0\\\@

 Total job time:  364.79s(wall), 10028.12s(cpu) 
 Tue Jun  5 11:52:22 2018

        *************************************************************
        *                                                           *
        *  Thank you very much for using Q-Chem.  Have a nice day.  *
        *                                                           *
        *************************************************************


0 sent ACK to 0 
now end server 0 ... 
cleanup process ... done
