
Running Job 1 of 1 mol.qin
qchem mol.qin_58766.0 /tmp/qchem58766/ 1
srun -n 1 /global/common/cori/software/qchem/5.1beta/exe/qcprog.exe mol.qin_58766.0 /tmp/qchem58766/

Process 0 of 1 is on nid00679 - thread support 0
initial socket setup ...start
initial socket setup ...done 
now start server 0 ... 
Check license passed

                  Welcome to Q-Chem
     A Quantum Leap Into The Future Of Chemistry


 Q-Chem 5.1, Q-Chem, Inc., Pleasanton, CA (2018)

 Yihan Shao,  Zhengting Gan,  E. Epifanovsky,  A. T. B. Gilbert,  M. Wormit,  
 J. Kussmann,  A. W. Lange,  A. Behn,  Jia Deng,  Xintian Feng,  D. Ghosh,  
 M. Goldey,  P. R. Horn,  L. D. Jacobson,  I. Kaliman,  T. Kus,  A. Landau,  
 Jie Liu,  E. I. Proynov,  R. M. Richard,  R. P. Steele,  E. J. Sundstrom,  
 H. L. Woodcock III,  P. M. Zimmerman,  D. Zuev,  B. Albrecht,  E. Alguire,  
 S. A. Baeppler,  D. Barton,  Z. Benda,  Y. A. Bernard,  E. J. Berquist,  
 K. B. Bravaya,  H. Burton,  D. Casanova,  Chun-Min Chang,  Yunqing Chen,  
 A. Chien,  K. D. Closser,  M. P. Coons,  S. Coriani,  S. Dasgupta,  
 A. L. Dempwolff,  M. Diedenhofen,  Hainam Do,  R. G. Edgar,  Po-Tung Fang,  
 S. Faraji,  S. Fatehi,  Qingguo Feng,  K. D. Fenk,  J. Fosso-Tande,  
 Qinghui Ge,  A. Ghysels,  G. Gidofalvi,  J. Gomes,  J. Gonthier,  A. Gunina,  
 M. W. D. Hanson-Heine,  P. H. P. Harbach,  A. W. Hauser,  J. E. Herr,  
 E. G. Hohenstein,  Z. C. Holden,  Kerwin Hui,  T.-C. Jagau,  Hyunjun Ji,  
 B. Kaduk,  K. Khistyaev,  Jaehoon Kim,  P. Klunzinger,  K. Koh,  
 D. Kosenkov,  L. Koulias,  T. Kowalczyk,  C. M. Krauter,  A. Kunitsa,  
 Ka Un Lao,  A. Laurent,  K. V. Lawler,  Joonho Lee,  D. Lefrancois,  
 S. Lehtola,  D. S. Levine,  Yi-Pei Li,  You-Sheng Lin,  Fenglai Liu,  
 E. Livshits,  A. Luenser,  P. Manohar,  E. Mansoor,  S. F. Manzer,  
 Shan-Ping Mao,  Yuezhi Mao,  N. Mardirossian,  A. V. Marenich,  
 T. Markovich,  L. A. Martinez-Martinez,  S. A. Maurer,  N. J. Mayhall,  
 S. C. McKenzie,  J.-M. Mewes,  A. F. Morrison,  J. W. Mullinax,  K. Nanda,  
 T. S. Nguyen-Beck,  R. Olivares-Amaya,  J. A. Parkhill,  T. M. Perrine,  
 F. Plasser,  P. Pokhilko,  S. Prager,  A. Prociuk,  E. Ramos,  D. R. Rehn,  
 F. Rob,  M. Schneider,  N. Sergueev,  S. M. Sharada,  S. Sharma,  
 D. W. Small,  T. Stauch,  T. Stein,  Yu-Chuan Su,  A. J. W. Thom,  
 A. Tkatchenko,  T. Tsuchimochi,  N. M. Tubman,  L. Vogt,  M. L. Vidal,  
 O. Vydrov,  M. A. Watson,  J. Wenzel,  M. de Wergifosse,  T. A. Wesolowski,  
 A. White,  J. Witte,  A. Yamada,  Jun Yang,  K. Yao,  S. Yeganeh,  
 S. R. Yost,  Zhi-Qiang You,  A. Zech,  Igor Ying Zhang,  Xing Zhang,  
 Yan Zhao,  Ying Zhu,  B. R. Brooks,  G. K. L. Chan,  C. J. Cramer,  
 M. S. Gordon,  W. J. Hehre,  A. Klamt,  M. W. Schmidt,  C. D. Sherrill,  
 D. G. Truhlar,  A. Aspuru-Guzik,  R. Baer,  A. T. Bell,  N. A. Besley,  
 Jeng-Da Chai,  R. A. DiStasio Jr.,  A. Dreuw,  B. D. Dunietz,  
 T. R. Furlani,  Chao-Ping Hsu,  Yousung Jung,  Jing Kong,  D. S. Lambrecht,  
 WanZhen Liang,  C. Ochsenfeld,  V. A. Rassolov,  L. V. Slipchenko,  
 J. E. Subotnik,  T. Van Voorhis,  J. M. Herbert,  A. I. Krylov,  
 P. M. W. Gill,  M. Head-Gordon

 Contributors to earlier versions of Q-Chem not listed above: 
 R. D. Adamson,  B. Austin,  J. Baker,  G. J. O. Beran,  K. Brandhorst,  
 S. T. Brown,  E. F. C. Byrd,  A. K. Chakraborty,  C.-L. Cheng,  
 Siu Hung Chien,  D. M. Chipman,  D. L. Crittenden,  H. Dachsel,  
 R. J. Doerksen,  A. D. Dutoi,  L. Fusti-Molnar,  W. A. Goddard III,  
 A. Golubeva-Zadorozhnaya,  S. R. Gwaltney,  G. Hawkins,  A. Heyden,  
 S. Hirata,  G. Kedziora,  F. J. Keil,  C. Kelley,  Jihan Kim,  R. A. King,  
 R. Z. Khaliullin,  P. P. Korambath,  W. Kurlancheek,  A. M. Lee,  M. S. Lee,  
 S. V. Levchenko,  Ching Yeh Lin,  D. Liotard,  R. C. Lochan,  I. Lotan,  
 P. E. Maslen,  N. Nair,  D. P. O'Neill,  D. Neuhauser,  E. Neuscamman,  
 C. M. Oana,  R. Olson,  B. Peters,  R. Peverati,  P. A. Pieniazek,  
 Y. M. Rhee,  J. Ritchie,  M. A. Rohrdanz,  E. Rosta,  N. J. Russ,  
 H. F. Schaefer III,  N. E. Schultz,  N. Shenvi,  A. C. Simmonett,  A. Sodt,  
 D. Stuck,  K. S. Thanthiriwatte,  V. Vanovschi,  Tao Wang,  A. Warshel,  
 C. F. Williams,  Q. Wu,  X. Xu,  W. Zhang

 Please cite Q-Chem as follows:
 Y. Shao et al., Mol. Phys. 113, 184-215 (2015)
 DOI: 10.1080/00268976.2014.952696

 Q-Chem 5.1.0 for Intel X86 EM64T Linux

 Parts of Q-Chem use Armadillo 8.300.2 (Tropical Shenanigans).
 http://arma.sourceforge.net/

 Q-Chem begins on Tue Jun  5 12:02:56 2018  

Host: cori01
0

     Scratch files written to /tmp/qchem58766//
 Mar1918  _RNUM -1
 Parallel job on  1  processors
Processing $rem in /global/common/cori/software/qchem/5.1beta/config/preferences.
 MEM_TOTAL  2000 
Symmetry turned off for PCM/SM12/SMD calculation

Checking the input file for inconsistencies... 	...done.

--------------------------------------------------------------
User input:
--------------------------------------------------------------
$molecule
0 2
O      0.9724465619     -0.1061266933     -0.0219825515
C      1.0080627094     -1.4455428779     -0.0060786628
C     -0.3592852215      0.2696966193      0.0231114402
O      2.0021670872     -2.1201430284     -0.0314779494
O     -0.2437066759     -1.9198256625      0.0466128691
C     -1.0953091584     -0.8290735448      0.0648402307
Li      4.0141562105     -1.4835925573      0.1384838426
H     -0.5815979546      1.3209768267      0.0176562952
H     -2.1516664528     -1.0209228603      0.1090307995
$end

$rem
job_type = freq
basis = 6-311++g**
max_scf_cycles = 200
gen_scfman = true
scf_algorithm = diis
method = wb97xd
geom_opt_max_cycles = 200
solvent_method = pcm
sym_ignore = true
$end

$pcm
heavypoints 194
hpoints 194
radii uff
theory cpcm
vdwscale 1.1
$end

$solvent
dielectric 10.0
$end
--------------------------------------------------------------
 ----------------------------------------------------------------
             Standard Nuclear Orientation (Angstroms)
    I     Atom           X                Y                Z
 ----------------------------------------------------------------
    1      O       0.9724465619    -0.1061266933    -0.0219825515
    2      C       1.0080627094    -1.4455428779    -0.0060786628
    3      C      -0.3592852215     0.2696966193     0.0231114402
    4      O       2.0021670872    -2.1201430284    -0.0314779494
    5      O      -0.2437066759    -1.9198256625     0.0466128691
    6      C      -1.0953091584    -0.8290735448     0.0648402307
    7      Li      4.0141562105    -1.4835925573     0.1384838426
    8      H      -0.5815979546     1.3209768267     0.0176562952
    9      H      -2.1516664528    -1.0209228603     0.1090307995
 ----------------------------------------------------------------
 Nuclear Repulsion Energy =   251.1912457874 hartrees
 There are       24 alpha and       23 beta electrons
 Requested basis set is 6-311++G(d,p)
 There are 52 shells and 168 basis functions

 Total QAlloc Memory Limit   2000 MB
 Mega-Array Size       188 MB
 MEM_STATIC part       192 MB
 Discretize the solute cavity surface with Lebedev spheres
	Using 194 Lebedev grid points for each H atom
	Using 194 Lebedev grid points for other atoms
	Atomic van der Waals radii will be scaled by 1.10
 Remove points where switching function is < 1.0e-08
 Keep 914 surface tesserae and discard 832 interior tesserae
 Molecular Surface Area = 131.147 Angst**2

                       Distance Matrix (Angstroms)
             O (  1)   C (  2)   C (  3)   O (  4)   O (  5)   C (  6)
   C (  2)  1.339984
   C (  3)  1.384480  2.193750
   O (  4)  2.262007  1.201655  3.360174
   O (  5)  2.184774  1.339644  2.192697  2.256141
   C (  6)  2.192214  2.192997  1.323166  3.357156  1.383943
   Li(  7)  3.342927  3.009808  4.713207  2.117117  4.281137  5.151743
   H (  8)  2.110273  3.190802  1.074543  4.303436  3.258498  2.211073
   H (  9)  3.257929  3.190210  2.210365  4.299112  2.110031  1.074546
             Li(  7)   H (  8)
   H (  8)  5.385273
   H (  9)  6.183227  2.820985
 
 A cutoff of  1.0D-11 yielded   1322 shell pairs
 There are     14145 function pairs (     15365 Cartesian)
 
 -------------------------------------------------------
 OpenMP Integral Computing Module                       
 Release: version 1.0, May 2013, Q-Chem Inc. Pittsburgh 
 -------------------------------------------------------
 Integral Job Info:
 Integral job number is                      11
 Integral operator is                         1
 short-range coefficients              22203600
 long-range coefficients              100000000
 Omega coefficients                         200
 if combine SR and LR in K                    1
 Integral screening is                        0
 Integral computing path is                   2
 max size of driver memory is            800000
 size of driver memory is                593474
 size of scratch memory is              2428936
 max col of scratch BK array               1296
 max len of scratch array in speh3          155
 max len of scratch index in speh4           18
 max int batch size is                      520
 min int batch size is                       52
 fixed nKL is                                52
 max L of basis functions is                  2
 order of int derivative is                   0
 number of shells is                         52
 number of basis is                         175
 number of cartesian basis is               175
 number of contracted shell pairs          1322
 number of primitive shell pairs           3890
 maxK2 (contraction) of shell pair           36
 max number of K2 of shell pair               1
 max number of CS2 of shell pair            239
 max number of PS2 of shell pair            882
 mem total for path MDJ                  537338
 -------------------------------------------------------
 Smallest overlap matrix eigenvalue = 2.98E-05
 Guess from superposition of atomic densities
 Warning:  Energy on first SCF cycle will be non-variational
 SAD guess density has 47.000000 electrons

 -----------------------------------------------------------------------
  General SCF calculation program by
  Eric Jon Sundstrom, Paul Horn, Yuezhi Mao, Dmitri Zuev, Alec White,
  David Stuck, Shaama M.S., Shane Yost, Joonho Lee, David Small,
  Daniel Levine, Susi Lehtola, Hugh Burton, Evgeny Epifanovsky
 -----------------------------------------------------------------------
 Exchange:     0.2220 Hartree-Fock + 1.0000 wB97X-D + LR-HF
 Correlation:  1.0000 wB97X-D
 Using SG-2 standard quadrature grid
 Dispersion:   Grimme D
 using 32 threads for integral computing
 -------------------------------------------------------
 OpenMP Integral computing Module                
 Release: version 1.0, May 2013, Q-Chem Inc. Pittsburgh 
 -------------------------------------------------------
 using 32 threads for integral computing
 -------------------------------------------------------
 OpenMP Integral computing Module                
 Release: version 1.0, May 2013, Q-Chem Inc. Pittsburgh 
 -------------------------------------------------------
 -------------------------------------------------------
 OpenMP BLAS3 based DFT computing Module                
 Release: version 1.0, May 2013, Q-Chem Inc. Pittsburgh 
 -------------------------------------------------------
 A unrestricted SCF calculation will be
 performed using DIIS
 SCF converges when DIIS error is below 1.0e-08
 ---------------------------------------
  Cycle       Energy         DIIS error
 ---------------------------------------
    1    -350.2456629500      2.55e-02  
    2    -348.5296819623      3.57e-03  
    3    -348.4676176142      4.66e-03  
    4    -348.6679068424      4.50e-04  
    5    -348.6694201952      2.48e-04  
    6    -348.6700379228      4.01e-05  
    7    -348.6700851980      1.49e-05  
    8    -348.6701012802      8.03e-06  
    9    -348.6701165234      5.88e-06  
   10    -348.6701319449      5.09e-06  
   11    -348.6701440331      4.53e-06  
   12    -348.6701596166      3.68e-06  
   13    -348.6701750619      2.90e-06  
   14    -348.6701870416      2.02e-06  
   15    -348.6701931349      1.20e-06  
   16    -348.6701948973      8.00e-07  
   17    -348.6701952272      6.60e-07  
   18    -348.6701955014      4.86e-07  
   19    -348.6701957286      2.47e-07  
   20    -348.6701957623      7.77e-08  
   21    -348.6701957640      3.85e-08  
   22    -348.6701957643      2.42e-08  
   23    -348.6701957644      2.03e-08  
   24    -348.6701957646      1.80e-08  
   25    -348.6701957648      1.58e-08  
   26    -348.6701957652      1.15e-08  
   27    -348.6701957655      5.94e-09  Convergence criterion met
 ---------------------------------------
 SCF time:   CPU 658.87s  wall 23.00s 
 SCF   energy in the final basis set =     -348.6701957655
<S^2> =          0.750115219

************** Final PCM Free Energy Summary **************
 G_electrostatic  =      -0.02566412 hartree =     -16.10447559 kcal/mol
 G_cavitation     =       0.00000000 hartree =       0.00000000 kcal/mol
 G_dispersion     =       0.00000000 hartree =       0.00000000 kcal/mol
 G_repulsion      =       0.00000000 hartree =       0.00000000 kcal/mol
 --------------------------------------------------
 Non-electrostatic Free Energy =       0.00000000 hartree =       0.00000000 kcal/mol
 Total                         =      -0.02566412 hartree =     -16.10447559 kcal/mol
 --------------------------------------------------
 SCF Energy (H0 + V/2)                       =    -348.67019577 
 Solute Internal Energy (H0)                 =    -348.64453165 
 Total Free Energy (H0 + V/2 + non-elec)     =    -348.67019577 hartree
                                             = -218793.85009828 kcal/mol
***********************************************************

 
 --------------------------------------------------------------
 
                    Orbital Energies (a.u.)
 --------------------------------------------------------------
 
 Alpha MOs
 -- Occupied --
-19.358 -19.358 -19.274 -10.502 -10.377 -10.376  -2.040  -1.330
 -1.206  -1.190  -0.910  -0.795  -0.759  -0.665  -0.644  -0.602
 -0.586  -0.535  -0.517  -0.508  -0.489  -0.437  -0.353  -0.096
 -- Virtual --
  0.028   0.031   0.031   0.045   0.060   0.063   0.068   0.070
  0.074   0.081   0.082   0.113   0.118   0.134   0.136   0.156
  0.164   0.166   0.167   0.180   0.188   0.193   0.202   0.207
  0.211   0.213   0.231   0.261   0.278   0.285   0.308   0.323
  0.329   0.334   0.347   0.352   0.357   0.368   0.382   0.396
  0.403   0.436   0.454   0.478   0.486   0.537   0.545   0.589
  0.599   0.616   0.620   0.623   0.637   0.651   0.666   0.684
  0.693   0.716   0.750   0.784   0.796   0.841   0.853   0.872
  0.901   0.917   0.934   1.006   1.022   1.051   1.116   1.121
  1.188   1.200   1.233   1.250   1.259   1.286   1.304   1.327
  1.383   1.399   1.461   1.488   1.560   1.640   1.741   1.768
  1.797   1.800   1.815   1.821   1.837   1.933   1.957   2.002
  2.117   2.183   2.217   2.476   2.589   2.619   2.718   2.770
  2.785   2.798   2.831   2.881   2.955   3.019   3.022   3.101
  3.107   3.180   3.212   3.251   3.276   3.441   3.442   3.480
  3.606   3.688   3.743   3.859   4.007   4.060   4.121   4.148
  4.260   5.027   5.036   5.118   5.289   5.373   5.526   5.581
  5.972   6.044  23.786  23.918  24.395  49.924  50.033  50.146
 
 Beta MOs
 -- Occupied --
-19.358 -19.357 -19.273 -10.502 -10.377 -10.376  -2.038  -1.330
 -1.206  -1.189  -0.910  -0.795  -0.759  -0.665  -0.644  -0.602
 -0.585  -0.535  -0.517  -0.508  -0.488  -0.436  -0.353
 -- Virtual --
  0.038   0.058   0.061   0.063   0.072   0.073   0.084   0.089
  0.099   0.127   0.138   0.143   0.158   0.170   0.175   0.179
  0.188   0.201   0.207   0.220   0.231   0.247   0.250   0.264
  0.274   0.278   0.290   0.295   0.302   0.320   0.335   0.345
  0.348   0.353   0.369   0.376   0.381   0.402   0.418   0.426
  0.441   0.453   0.484   0.489   0.506   0.547   0.553   0.588
  0.605   0.618   0.640   0.655   0.670   0.700   0.705   0.743
  0.762   0.768   0.800   0.820   0.828   0.843   0.855   0.870
  0.881   0.937   0.988   1.012   1.019   1.039   1.056   1.120
  1.122   1.197   1.201   1.240   1.252   1.261   1.289   1.314
  1.328   1.386   1.401   1.480   1.490   1.561   1.644   1.743
  1.769   1.799   1.801   1.818   1.821   1.840   1.935   1.959
  2.003   2.117   2.183   2.217   2.476   2.589   2.619   2.719
  2.771   2.786   2.798   2.832   2.883   2.957   3.019   3.023
  3.101   3.107   3.180   3.213   3.251   3.276   3.442   3.443
  3.480   3.607   3.689   3.744   3.873   4.008   4.060   4.122
  4.149   4.261   5.028   5.037   5.119   5.291   5.373   5.527
  5.582   5.973   6.044  23.786  23.918  24.395  49.924  50.033
 50.146
 --------------------------------------------------------------
 
          Ground-State Mulliken Net Atomic Charges

     Atom                 Charge (a.u.)    Spin (a.u.)
  --------------------------------------------------------
      1 O                    -0.084824      -0.006316
      2 C                     0.257091       0.024960
      3 C                    -0.068374      -0.055034
      4 O                    -0.375772      -0.036617
      5 O                    -0.072787      -0.003747
      6 C                    -0.182396       0.105036
      7 Li                   -0.033723       0.977748
      8 H                     0.284835      -0.012485
      9 H                     0.275950       0.006456
  --------------------------------------------------------
  Sum of atomic charges =     0.000000
  Sum of spin   charges =     1.000000

 -----------------------------------------------------------------
                    Cartesian Multipole Moments
 -----------------------------------------------------------------
    Charge (ESU x 10^10)
                -0.0000
    Dipole Moment (Debye)
         X      -8.9384      Y       0.9436      Z      -0.6449
       Tot       9.0112
    Quadrupole Moments (Debye-Ang)
        XX     -78.8350     XY       1.2333     YY     -47.9453
        XZ      -3.7372     YZ       0.4976     ZZ     -48.8063
    Octopole Moments (Debye-Ang^2)
       XXX    -419.9033    XXY      49.5890    XYY     -74.7686
       YYY     157.0018    XXZ     -20.5447    XYZ       3.0968
       YYZ      -4.6030    XZZ     -79.6662    YZZ      47.3418
       ZZZ     -14.0602
    Hexadecapole Moments (Debye-Ang^3)
      XXXX   -3085.8434   XXXY     347.5748   XXYY    -439.8911
      XYYY     268.4421   YYYY    -675.0330   XXXZ    -127.4406
      XXYZ      19.3553   XYYZ     -18.0145   YYYZ      14.2143
      XXZZ    -420.6636   XYZZ      95.2556   YYZZ    -140.7821
      XZZZ     -50.3059   YZZZ      15.1983   ZZZZ    -206.1775
 -----------------------------------------------------------------
 Calculating MO derivatives via CPSCF
 Computing fast CPCM-SWIG hessian.
 D1JvT checksum  = 430272 24606.408162402
 D1KAT checksum  = 859896 2194.384471792
 D1JvT checksum  = 430272 14473.669605494
 D1KAT checksum  = 859896 902.024423647
 Inaccurate integrated density:
   Number of electrons =    47
   Numerical integral  =    46.941642808723
   Relative error      =    -0.1241642368 %
   1         3          27      0.744400    0.218602
   2         3          27      0.539210    0.210155
   3         3          27      0.371281    0.139492
   4         3          27      0.094207    0.031982
   5         3          27      0.020934    0.009235
   6         7          23      0.003871    0.001577
   7        25           5      0.000567    0.000207
   8        27           3      0.000101    0.000034
   9        27           3      0.000023    0.000009
  10        27           3      0.000005    0.000002
  11        30           0      0.000000    0.000000    Roots Converged
 Time for AOints: 55.1 s (CPU) 3.1 s (wall)
 ------------------------------------------------------------------------------
                     AOints        : Timing summary (seconds)
 ------------------------------------------------------------------------------
     job step          cpu (% of tot)      sys (% of tot)     wall (% of tot)
 ------------------------------------------------------------------------------
  cpscf_lag         0.4267E+03 (34.3)   0.9090E-03 (37.4)   0.1015E+03 (39.9)
  iterzp            0.7612E+03 (61.2)   0.1322E-02 (54.4)   0.1499E+03 (58.9)
  make_fx           0.0000E+00 ( 0.0)   0.0000E+00 ( 0.0)   0.0000E+00 ( 0.0)
  AOints            0.5510E+02 ( 4.4)   0.1900E-03 ( 7.8)   0.3069E+01 ( 1.2)
 ------------------------------------------------------------------------------
   Grand Totals     0.1245E+04          0.2432E-02          0.2545E+03
 ------------------------------------------------------------------------------
 Calculating analytic Hessian of the SCF energy
 Polarizability Matrix (a.u.)
            1           2           3
    1-1034.1849337 642.8897773 225.6312492
    2 642.8897773-1574.8071934 141.6036393
    3 225.6312492 141.6036393-2077.2015984
 Inaccurate integrated density:
   Number of electrons =    47
   Numerical integral  =    46.941642808723
   Relative error      =    -0.1241642368 %
atom: 0 element: 8
atom: 1 element: 6
atom: 2 element: 6
atom: 3 element: 8
atom: 4 element: 8
atom: 5 element: 6
atom: 6 element: 3
atom: 7 element: 1
atom: 8 element: 1
 
 Direct stationary perturbation theory relativistic correction:
 
 rels  =       0.118351571101
 relv  =      -0.526739158826
 rel2e =       0.000000000000
 E_rel =      -0.408387587725
 
 Computing fast CPCM-SWIG hessian
 Hessian of the SCF Energy
            1           2           3           4           5           6
    1   0.4839433  -0.0048249  -0.0149825  -0.1387353  -0.0085293   0.0027698
    2  -0.0048249   0.4796266  -0.0053064  -0.0367858  -0.2237487   0.0044356
    3  -0.0149825  -0.0053064   0.0863379   0.0025785   0.0019780  -0.0862135
    4  -0.1387353  -0.0367858   0.0025785   0.9547685  -0.2860840  -0.0210091
    5  -0.0085293  -0.2237487   0.0019780  -0.2860840   0.7132745   0.0036480
    6   0.0027698   0.0044356  -0.0862135  -0.0210091   0.0036480   0.2391462
    7  -0.2390555   0.0372139   0.0063357   0.0010305   0.0845969  -0.0010432
    8  -0.0030619  -0.1085553   0.0007420   0.0303092  -0.0560376  -0.0001723
    9   0.0068639  -0.0006190  -0.0589272  -0.0003407  -0.0024556   0.0080114
   10   0.0053393   0.0508019  -0.0006134  -0.5161440   0.2735371   0.0122892
   11   0.0624597  -0.0698237  -0.0009308   0.2791280  -0.2968472  -0.0071773
   12  -0.0006959  -0.0007327   0.0178397   0.0114040  -0.0071090  -0.0896282
   13  -0.0125369  -0.0842837   0.0023984  -0.1950946  -0.0633086   0.0032286
   14  -0.0149406  -0.0536128   0.0015872  -0.0322323  -0.1652471   0.0013280
   15   0.0009761   0.0036685   0.0145856   0.0047727   0.0032533  -0.0825353
   16  -0.0946163   0.0097392   0.0041202  -0.0863389  -0.0055373   0.0037126
   17  -0.0267079  -0.0226203   0.0015325   0.0481771   0.0329318  -0.0024029
   18   0.0045112   0.0001240   0.0188165   0.0030036  -0.0001150   0.0088458
   19   0.0014889  -0.0062133   0.0000563  -0.0142394   0.0072953  -0.0001375
   20  -0.0002430  -0.0005618   0.0000618  -0.0005180   0.0025312   0.0001539
   21   0.0000180  -0.0003827  -0.0005922  -0.0006507   0.0006309   0.0016555
   22  -0.0080316   0.0363460  -0.0002164  -0.0077836  -0.0054442   0.0003285
   23   0.0009909   0.0004750  -0.0000093  -0.0007090   0.0016837  -0.0000026
   24   0.0002157  -0.0013972  -0.0016835   0.0003123   0.0001811   0.0003660
   25   0.0022040  -0.0019933   0.0003234   0.0025367   0.0034740  -0.0001388
   26  -0.0051430  -0.0011790   0.0003449  -0.0012853  -0.0085407   0.0001896
   27   0.0003238   0.0002099   0.0098367  -0.0000706  -0.0000117   0.0003520
            7           8           9          10          11          12
    1  -0.2390555  -0.0030619   0.0068639   0.0053393   0.0624597  -0.0006959
    2   0.0372139  -0.1085553  -0.0006190   0.0508019  -0.0698237  -0.0007327
    3   0.0063357   0.0007420  -0.0589272  -0.0006134  -0.0009308   0.0178397
    4   0.0010305   0.0303092  -0.0003407  -0.5161440   0.2791280   0.0114040
    5   0.0845969  -0.0560376  -0.0024556   0.2735371  -0.2968472  -0.0071090
    6  -0.0010432  -0.0001723   0.0080114   0.0122892  -0.0071773  -0.0896282
    7   0.5861839   0.0828027  -0.0170603  -0.0040779  -0.0110931   0.0004559
    8   0.0828027   1.0402091  -0.0145890   0.0014684  -0.0031028   0.0000282
    9  -0.0170603  -0.0145890   0.1556350   0.0002273   0.0004192   0.0021273
   10  -0.0040779   0.0014684   0.0002273   0.6092228  -0.3403481  -0.0177874
   11  -0.0110931  -0.0031028   0.0004192  -0.3403481   0.3347343   0.0123175
   12   0.0004559   0.0000282   0.0021273  -0.0177874   0.0123175   0.0397384
   13  -0.0277957   0.0379493   0.0013065  -0.1037961   0.0050810   0.0041689
   14   0.0009135  -0.0903890   0.0013943   0.0206844   0.0319656  -0.0005758
   15   0.0017141  -0.0001401   0.0185629   0.0035183  -0.0002364   0.0158797
   16  -0.2373903  -0.2019673   0.0082452  -0.0006433   0.0030229  -0.0000319
   17  -0.2359772  -0.4177927   0.0131326  -0.0088728  -0.0065013   0.0004051
   18   0.0088107   0.0118466  -0.0884236   0.0002007   0.0000326   0.0022463
   19  -0.0023388  -0.0004095   0.0000381   0.0118039  -0.0012091   0.0024166
   20   0.0004430  -0.0000172   0.0000080  -0.0004838   0.0088256  -0.0042436
   21  -0.0000809  -0.0000191   0.0002750   0.0020893  -0.0043456   0.0102230
   22  -0.0748767   0.0492968   0.0006312  -0.0004363   0.0031063  -0.0000047
   23   0.0589191  -0.3732865   0.0021377   0.0001069  -0.0000693   0.0000013
   24   0.0005189   0.0025606  -0.0391184   0.0000320  -0.0000830   0.0008098
   25  -0.0016795   0.0036124   0.0000888  -0.0012685  -0.0001476   0.0000745
   26  -0.0178188   0.0089721   0.0005719   0.0031061   0.0008188  -0.0000911
   27   0.0003492  -0.0002570   0.0018577   0.0000441   0.0000037   0.0007640
           13          14          15          16          17          18
    1  -0.0125369  -0.0149406   0.0009761  -0.0946163  -0.0267079   0.0045112
    2  -0.0842837  -0.0536128   0.0036685   0.0097392  -0.0226203   0.0001240
    3   0.0023984   0.0015872   0.0145856   0.0041202   0.0015325   0.0188165
    4  -0.1950946  -0.0322323   0.0047727  -0.0863389   0.0481771   0.0030036
    5  -0.0633086  -0.1652471   0.0032533  -0.0055373   0.0329318  -0.0001150
    6   0.0032286   0.0013280  -0.0825353   0.0037126  -0.0024029   0.0088458
    7  -0.0277957   0.0009135   0.0017141  -0.2373903  -0.2359772   0.0088107
    8   0.0379493  -0.0903890  -0.0001401  -0.2019673  -0.4177927   0.0118466
    9   0.0013065   0.0013943   0.0185629   0.0082452   0.0131326  -0.0884236
   10  -0.1037961   0.0206844   0.0035183  -0.0006433  -0.0088728   0.0002007
   11   0.0050810   0.0319656  -0.0002364   0.0030229  -0.0065013   0.0000326
   12   0.0041689  -0.0005758   0.0158797  -0.0000319   0.0004051   0.0022463
   13   0.4834081  -0.0074790  -0.0140299  -0.1390825   0.0784056   0.0020391
   14  -0.0074790   0.4808657  -0.0044219   0.0399127  -0.2093610   0.0004069
   15  -0.0140299  -0.0044219   0.0840913   0.0024939  -0.0008463  -0.0586584
   16  -0.1390825   0.0399127   0.0024939   0.9129099   0.2159236  -0.0320175
   17   0.0784056  -0.2093610  -0.0008463   0.2159236   0.7096879  -0.0152186
   18   0.0020391   0.0004069  -0.0586584  -0.0320175  -0.0152186   0.1562742
   19   0.0066769   0.0004026  -0.0003321   0.0008916   0.0016584  -0.0000131
   20   0.0015459   0.0002686  -0.0000657  -0.0000754  -0.0005816  -0.0000132
   21   0.0005414  -0.0000435  -0.0001931   0.0000769   0.0000788  -0.0002644
   22   0.0017597  -0.0053708   0.0003924   0.0122561  -0.0120101  -0.0002468
   23  -0.0022170  -0.0004681   0.0002271   0.0094011  -0.0051510  -0.0002568
   24   0.0003339   0.0003309   0.0098320  -0.0005159   0.0005085   0.0016362
   25  -0.0135390  -0.0018905   0.0004947  -0.3679863  -0.0605967   0.0137122
   26   0.0343066   0.0059781  -0.0014385  -0.0704195  -0.0806118   0.0031935
   27   0.0000132  -0.0000062  -0.0015647   0.0139166   0.0028104  -0.0404726
           19          20          21          22          23          24
    1   0.0014889  -0.0002430   0.0000180  -0.0080316   0.0009909   0.0002157
    2  -0.0062133  -0.0005618  -0.0003827   0.0363460   0.0004750  -0.0013972
    3   0.0000563   0.0000618  -0.0005922  -0.0002164  -0.0000093  -0.0016835
    4  -0.0142394  -0.0005180  -0.0006507  -0.0077836  -0.0007090   0.0003123
    5   0.0072953   0.0025312   0.0006309  -0.0054442   0.0016837   0.0001811
    6  -0.0001375   0.0001539   0.0016555   0.0003285  -0.0000026   0.0003660
    7  -0.0023388   0.0004430  -0.0000809  -0.0748767   0.0589191   0.0005189
    8  -0.0004095  -0.0000172  -0.0000191   0.0492968  -0.3732865   0.0025606
    9   0.0000381   0.0000080   0.0002750   0.0006312   0.0021377  -0.0391184
   10   0.0118039  -0.0004838   0.0020893  -0.0004363   0.0001069   0.0000320
   11  -0.0012091   0.0088256  -0.0043456   0.0031063  -0.0000693  -0.0000830
   12   0.0024166  -0.0042436   0.0102230  -0.0000047   0.0000013   0.0008098
   13   0.0066769   0.0015459   0.0005414   0.0017597  -0.0022170   0.0003339
   14   0.0004026   0.0002686  -0.0000435  -0.0053708  -0.0004681   0.0003309
   15  -0.0003321  -0.0000657  -0.0001931   0.0003924   0.0002271   0.0098320
   16   0.0008916  -0.0000754   0.0000769   0.0122561   0.0094011  -0.0005159
   17   0.0016584  -0.0005816   0.0000788  -0.0120101  -0.0051510   0.0005085
   18  -0.0000131  -0.0000132  -0.0002644  -0.0002468  -0.0002568   0.0016362
   19  -0.0052802  -0.0007135  -0.0020190   0.0001875  -0.0007741   0.0000168
   20  -0.0007135  -0.0108584   0.0041125   0.0000592   0.0004292  -0.0000150
   21  -0.0020190   0.0041125  -0.0111169   0.0000134  -0.0000103   0.0000110
   22   0.0001875   0.0000592   0.0000134   0.0771382  -0.0662609  -0.0008083
   23  -0.0007741   0.0004292  -0.0000103  -0.0662609   0.3762241  -0.0020315
   24   0.0000168  -0.0000150   0.0000110  -0.0008083  -0.0020315   0.0308060
   25   0.0008095  -0.0000143   0.0000116  -0.0002133   0.0005430  -0.0001055
   26  -0.0000368  -0.0000355  -0.0000210   0.0002777   0.0001629  -0.0000545
   27  -0.0000261   0.0000013   0.0000021  -0.0000893  -0.0000556  -0.0026592
           25          26          27
    1   0.0022040  -0.0051430   0.0003238
    2  -0.0019933  -0.0011790   0.0002099
    3   0.0003234   0.0003449   0.0098367
    4   0.0025367  -0.0012853  -0.0000706
    5   0.0034740  -0.0085407  -0.0000117
    6  -0.0001388   0.0001896   0.0003520
    7  -0.0016795  -0.0178188   0.0003492
    8   0.0036124   0.0089721  -0.0002570
    9   0.0000888   0.0005719   0.0018577
   10  -0.0012685   0.0031061   0.0000441
   11  -0.0001476   0.0008188   0.0000037
   12   0.0000745  -0.0000911   0.0007640
   13  -0.0135390   0.0343066   0.0000132
   14  -0.0018905   0.0059781  -0.0000062
   15   0.0004947  -0.0014385  -0.0015647
   16  -0.3679863  -0.0704195   0.0139166
   17  -0.0605967  -0.0806118   0.0028104
   18   0.0137122   0.0031935  -0.0404726
   19   0.0008095  -0.0000368  -0.0000261
   20  -0.0000143  -0.0000355   0.0000013
   21   0.0000116  -0.0000210   0.0000021
   22  -0.0002133   0.0002777  -0.0000893
   23   0.0005430   0.0001629  -0.0000556
   24  -0.0001055  -0.0000545  -0.0026592
   25   0.3791364   0.0570130  -0.0144609
   26   0.0570130   0.0744350  -0.0026949
   27  -0.0144609  -0.0026949   0.0318840
 Gradient time:  CPU 1517.93 s  wall 400.31 s
 **********************************************************************
 **                                                                  **
 **                       VIBRATIONAL ANALYSIS                       **
 **                       --------------------                       **
 **                                                                  **
 **        VIBRATIONAL FREQUENCIES (CM**-1) AND NORMAL MODES         **
 **     FORCE CONSTANTS (mDYN/ANGSTROM) AND REDUCED MASSES (AMU)     **
 **                  INFRARED INTENSITIES (KM/MOL)                   **
 **                                                                  **
 **********************************************************************
 

 Mode:                 1                      2                      3
 Frequency:        81.14                 129.23                 213.96
 Force Cnst:      0.0289                 0.0718                 0.1984
 Red. Mass:       7.4426                 7.2924                 7.3539
 IR Active:          YES                    YES                    YES
 IR Intens:      103.197                 42.805                 19.363
 Raman Active:       YES                    YES                    YES
               X      Y      Z        X      Y      Z        X      Y      Z
 O         -0.031  0.020 -0.236    0.127 -0.124 -0.033   -0.021 -0.064  0.018
 C         -0.001  0.020 -0.167   -0.018 -0.128 -0.038   -0.087 -0.079  0.004
 C         -0.028 -0.003  0.032    0.171  0.019  0.029    0.011  0.022  0.002
 O          0.005  0.036 -0.292   -0.070 -0.208 -0.054   -0.115 -0.101 -0.006
 O          0.016  0.000  0.107   -0.061  0.002 -0.002   -0.149  0.011 -0.009
 C          0.001 -0.015  0.240    0.055  0.097  0.047   -0.068  0.074 -0.015
 Li         0.076 -0.126  0.707   -0.393  0.737  0.119    0.894  0.292  0.013
 H         -0.049 -0.008  0.035    0.282  0.042  0.052    0.080  0.037  0.006
 H          0.014 -0.031  0.479    0.037  0.209  0.091   -0.083  0.155 -0.030
 TransDip   0.063  0.049 -0.315    0.139 -0.148 -0.052    0.102  0.080  0.056

 Mode:                 4                      5                      6
 Frequency:       261.23                 543.88                 575.66
 Force Cnst:      0.2834                 1.5941                 0.7485
 Red. Mass:       7.0481                 9.1465                 3.8337
 IR Active:          YES                    YES                    YES
 IR Intens:       13.125                 89.593                  0.038
 Raman Active:       YES                    YES                    YES
               X      Y      Z        X      Y      Z        X      Y      Z
 O         -0.014 -0.001 -0.302   -0.019 -0.290  0.001   -0.007 -0.001 -0.181
 C         -0.006  0.001 -0.140   -0.148 -0.206  0.008    0.001  0.001 -0.001
 C          0.004  0.003  0.221    0.197 -0.009 -0.003    0.010  0.004  0.289
 O          0.011  0.007  0.355    0.285  0.441 -0.013   -0.002 -0.002 -0.000
 O         -0.012 -0.004 -0.320   -0.251 -0.130  0.013    0.008  0.003  0.182
 C          0.006  0.001  0.208   -0.074  0.172 -0.003   -0.010 -0.005 -0.289
 Li         0.023 -0.013 -0.039   -0.041 -0.044 -0.003    0.000  0.000  0.000
 H          0.014  0.007  0.546    0.462  0.047 -0.011    0.020  0.008  0.613
 H          0.018  0.002  0.516   -0.121  0.432 -0.009   -0.024 -0.009 -0.625
 TransDip  -0.020  0.004  0.114   -0.230  0.192 -0.044   -0.002  0.003 -0.005

 Mode:                 7                      8                      9
 Frequency:       724.80                 764.01                 773.56
 Force Cnst:      0.5682                 4.0806                 0.9934
 Red. Mass:       1.8358                11.8652                 2.8177
 IR Active:          YES                    YES                    YES
 IR Intens:      655.427                  1.839                381.775
 Raman Active:       YES                    YES                    YES
               X      Y      Z        X      Y      Z        X      Y      Z
 O         -0.003 -0.002 -0.042   -0.278 -0.185 -0.001    0.002  0.002 -0.116
 C          0.009  0.002  0.231    0.282 -0.191  0.023    0.002  0.010  0.313
 C         -0.003 -0.000 -0.080   -0.277  0.176  0.023    0.013 -0.004  0.103
 O         -0.001 -0.002 -0.059    0.429 -0.276 -0.020   -0.016  0.007 -0.078
 O          0.000  0.002 -0.040    0.062  0.319 -0.019   -0.003 -0.009 -0.114
 C         -0.004  0.000 -0.080   -0.268  0.199  0.022    0.012 -0.005  0.102
 Li        -0.001  0.000  0.002   -0.022 -0.004  0.000   -0.000  0.001  0.004
 H          0.027  0.010  0.683    0.118  0.268 -0.109   -0.023 -0.016 -0.659
 H          0.027  0.006  0.677   -0.210 -0.192 -0.083   -0.019 -0.005 -0.641
 TransDip  -0.076 -0.048  0.815   -0.017  0.020  0.035   -0.144 -0.055  0.606

 Mode:                10                     11                     12
 Frequency:       857.07                 923.88                 958.41
 Force Cnst:      0.5851                 4.2059                 2.7692
 Red. Mass:       1.3519                 8.3633                 5.1169
 IR Active:          YES                    YES                    YES
 IR Intens:        2.143                 18.435                160.119
 Raman Active:       YES                    YES                    YES
               X      Y      Z        X      Y      Z        X      Y      Z
 O         -0.000 -0.000  0.000   -0.313  0.018  0.012    0.147  0.284 -0.011
 C         -0.000  0.000 -0.001   -0.104 -0.160  0.005    0.115 -0.076  0.004
 C          0.005  0.002  0.124   -0.044  0.420 -0.004   -0.088  0.049  0.004
 O         -0.000  0.000  0.000   -0.021 -0.039  0.002    0.173 -0.106 -0.006
 O          0.000 -0.000  0.001    0.121 -0.295 -0.000   -0.215 -0.233  0.009
 C         -0.005 -0.002 -0.126    0.405  0.120 -0.016   -0.090  0.061  0.003
 Li        -0.000  0.000 -0.000    0.004 -0.001  0.000   -0.017 -0.005 -0.001
 H         -0.024 -0.008 -0.691   -0.152  0.425  0.001   -0.602 -0.050  0.017
 H          0.029  0.007  0.700    0.444  0.055 -0.020   -0.191  0.559  0.003
 TransDip  -0.014  0.010  0.043   -0.007  0.137 -0.005    0.358 -0.184 -0.052

 Mode:                13                     14                     15
 Frequency:      1082.69                1119.67                1150.79
 Force Cnst:      3.5624                 1.8409                 1.9986
 Red. Mass:       5.1580                 2.4923                 2.5614
 IR Active:          YES                    YES                    YES
 IR Intens:        9.821                 10.007                208.606
 Raman Active:       YES                    YES                    YES
               X      Y      Z        X      Y      Z        X      Y      Z
 O         -0.205  0.181  0.006   -0.145  0.022  0.005   -0.069 -0.088  0.004
 C         -0.031 -0.050  0.000    0.016 -0.024 -0.000    0.176  0.258 -0.009
 C          0.254 -0.177 -0.007    0.104 -0.149 -0.002   -0.048  0.001  0.002
 O         -0.024 -0.042  0.002    0.035 -0.019 -0.001   -0.016 -0.032  0.001
 O          0.227 -0.114 -0.007   -0.081  0.138  0.001   -0.075 -0.086  0.004
 C         -0.243  0.160  0.007    0.182 -0.040 -0.006    0.040 -0.053 -0.001
 Li         0.002  0.001  0.000   -0.005 -0.001 -0.000   -0.002  0.002 -0.000
 H          0.560 -0.121 -0.019   -0.624 -0.325  0.025    0.637  0.142 -0.024
 H         -0.311  0.499  0.006    0.085  0.616 -0.009   -0.091  0.659 -0.003
 TransDip   0.066  0.072  0.023    0.093 -0.034 -0.020    0.453  0.093  0.012

 Mode:                16                     17                     18
 Frequency:      1197.17                1385.58                1699.39
 Force Cnst:      1.6932                 2.4903                 9.4242
 Red. Mass:       2.0052                 2.2016                 5.5387
 IR Active:          YES                    YES                    YES
 IR Intens:      183.744                108.498                 31.491
 Raman Active:       YES                    YES                    YES
               X      Y      Z        X      Y      Z        X      Y      Z
 O          0.077 -0.131 -0.001    0.056  0.075 -0.003    0.030  0.027 -0.001
 C         -0.020  0.025 -0.000   -0.109 -0.164  0.006    0.028 -0.018 -0.001
 C         -0.099  0.015  0.004   -0.150 -0.003  0.006   -0.294 -0.340  0.015
 O         -0.049  0.029  0.001    0.013  0.021 -0.001   -0.024  0.016  0.001
 O          0.152 -0.031 -0.005    0.048  0.081 -0.003   -0.014 -0.038  0.001
 C         -0.055  0.089  0.001    0.056 -0.138 -0.000    0.202  0.403 -0.013
 Li         0.006  0.001  0.000    0.000 -0.001 -0.000   -0.000 -0.000 -0.000
 H         -0.653 -0.098  0.024    0.638  0.169 -0.025    0.455 -0.290 -0.013
 H         -0.167  0.681 -0.001   -0.085  0.674 -0.004    0.440 -0.322 -0.014
 TransDip  -0.357  0.245  0.030   -0.333 -0.021 -0.016    0.141 -0.112  0.004

 Mode:                19                     20                     21
 Frequency:      1845.35                3321.65                3346.57
 Force Cnst:     25.6358                 7.0985                 7.3850
 Red. Mass:      12.7773                 1.0920                 1.1192
 IR Active:          YES                    YES                    YES
 IR Intens:      800.021                 23.496                  9.295
 Raman Active:       YES                    YES                    YES
               X      Y      Z        X      Y      Z        X      Y      Z
 O         -0.042  0.024  0.001    0.001 -0.000 -0.000    0.001 -0.001 -0.000
 C          0.713 -0.476 -0.019    0.001  0.002 -0.000    0.002 -0.001 -0.000
 C          0.001  0.055 -0.001    0.014 -0.062  0.000   -0.006  0.070 -0.001
 O         -0.402  0.275  0.011   -0.000 -0.000  0.000   -0.000  0.000  0.000
 O         -0.036  0.029  0.001   -0.000  0.001  0.000    0.001 -0.001 -0.000
 C         -0.051 -0.022  0.002   -0.059 -0.010  0.002   -0.069 -0.021  0.003
 Li        -0.019 -0.002 -0.001   -0.000  0.000 -0.000   -0.000  0.000 -0.000
 H         -0.058  0.073  0.001   -0.149  0.703 -0.004    0.136 -0.675  0.004
 H         -0.088  0.022  0.003    0.678  0.123 -0.028    0.705  0.134 -0.030
 TransDip   0.778 -0.464 -0.010    0.086  0.129  0.003    0.086 -0.046 -0.006

 STANDARD THERMODYNAMIC QUANTITIES AT   298.15 K  AND     1.00 ATM

   This Molecule has  0 Imaginary Frequencies
   Zero point vibrational energy:       32.817 kcal/mol

   Atom    1 Element O  Has Mass   15.99491
   Atom    2 Element C  Has Mass   12.00000
   Atom    3 Element C  Has Mass   12.00000
   Atom    4 Element O  Has Mass   15.99491
   Atom    5 Element O  Has Mass   15.99491
   Atom    6 Element C  Has Mass   12.00000
   Atom    7 Element Li Has Mass    7.01600
   Atom    8 Element H  Has Mass    1.00783
   Atom    9 Element H  Has Mass    1.00783
   Molecular Mass:    93.016390 amu
   Principal axes and moments of inertia in amu*Bohr^2:
                             1           2           3
    Eigenvalues --      218.33518   703.35093   920.11941
          X               0.94701     0.32119     0.00226
          Y              -0.32119     0.94701     0.00381
          Z              -0.00092    -0.00433     0.99999
   Rotational Symmetry Number is   1
   The Molecule is an Asymmetric Top
   Translational Enthalpy:        0.889 kcal/mol
   Rotational Enthalpy:           0.889 kcal/mol
   Vibrational Enthalpy:         34.927 kcal/mol
   gas constant (RT):             0.592 kcal/mol
   Translational Entropy:        39.502  cal/mol.K
   Rotational Entropy:           26.449  cal/mol.K
   Vibrational Entropy:          12.927  cal/mol.K

   Total Enthalpy:               37.297 kcal/mol
   Total Entropy:                78.878  cal/mol.K
Archival summary:
1\1\nid00679\FREQ\ProcedureUnspecified\BasisUnspecified\33i12(2)\sblau\TueJun512:10:002018TueJun512:10:002018\0\\#,FREQ,ProcedureUnspecified,BasisUnspecified,\\0,2\O\C,1,1.33998\O,2,1.20165,1,125.654\O,2,1.33964,1,109.239,3,179.829,0\C,4,1.38394,2,107.245,1,-0.0243311,0\H,5,1.07455,4,117.694,2,-179.86,0\C,5,1.32317,4,108.166,2,0.0239525,0\H,7,1.07454,5,134.227,4,179.966,0\Li,3,2.11712,2,128.004,1,8.50746,0\\\@

 Total job time:  423.61s(wall), 2189.76s(cpu) 
 Tue Jun  5 12:10:00 2018

        *************************************************************
        *                                                           *
        *  Thank you very much for using Q-Chem.  Have a nice day.  *
        *                                                           *
        *************************************************************


0 sent ACK to 0 
now end server 0 ... 
cleanup process ... done
