
Running Job 1 of 1 mol.qin
qchem mol.qin_58275.0 /tmp/qchem58275/ 1
srun -n 1 /global/common/cori/software/qchem/5.1beta/exe/qcprog.exe mol.qin_58275.0 /tmp/qchem58275/

Process 0 of 1 is on nid00679 - thread support 0
initial socket setup ...start
initial socket setup ...done 
now start server 0 ... 
Check license passed

                  Welcome to Q-Chem
     A Quantum Leap Into The Future Of Chemistry


 Q-Chem 5.1, Q-Chem, Inc., Pleasanton, CA (2018)

 Yihan Shao,  Zhengting Gan,  E. Epifanovsky,  A. T. B. Gilbert,  M. Wormit,  
 J. Kussmann,  A. W. Lange,  A. Behn,  Jia Deng,  Xintian Feng,  D. Ghosh,  
 M. Goldey,  P. R. Horn,  L. D. Jacobson,  I. Kaliman,  T. Kus,  A. Landau,  
 Jie Liu,  E. I. Proynov,  R. M. Richard,  R. P. Steele,  E. J. Sundstrom,  
 H. L. Woodcock III,  P. M. Zimmerman,  D. Zuev,  B. Albrecht,  E. Alguire,  
 S. A. Baeppler,  D. Barton,  Z. Benda,  Y. A. Bernard,  E. J. Berquist,  
 K. B. Bravaya,  H. Burton,  D. Casanova,  Chun-Min Chang,  Yunqing Chen,  
 A. Chien,  K. D. Closser,  M. P. Coons,  S. Coriani,  S. Dasgupta,  
 A. L. Dempwolff,  M. Diedenhofen,  Hainam Do,  R. G. Edgar,  Po-Tung Fang,  
 S. Faraji,  S. Fatehi,  Qingguo Feng,  K. D. Fenk,  J. Fosso-Tande,  
 Qinghui Ge,  A. Ghysels,  G. Gidofalvi,  J. Gomes,  J. Gonthier,  A. Gunina,  
 M. W. D. Hanson-Heine,  P. H. P. Harbach,  A. W. Hauser,  J. E. Herr,  
 E. G. Hohenstein,  Z. C. Holden,  Kerwin Hui,  T.-C. Jagau,  Hyunjun Ji,  
 B. Kaduk,  K. Khistyaev,  Jaehoon Kim,  P. Klunzinger,  K. Koh,  
 D. Kosenkov,  L. Koulias,  T. Kowalczyk,  C. M. Krauter,  A. Kunitsa,  
 Ka Un Lao,  A. Laurent,  K. V. Lawler,  Joonho Lee,  D. Lefrancois,  
 S. Lehtola,  D. S. Levine,  Yi-Pei Li,  You-Sheng Lin,  Fenglai Liu,  
 E. Livshits,  A. Luenser,  P. Manohar,  E. Mansoor,  S. F. Manzer,  
 Shan-Ping Mao,  Yuezhi Mao,  N. Mardirossian,  A. V. Marenich,  
 T. Markovich,  L. A. Martinez-Martinez,  S. A. Maurer,  N. J. Mayhall,  
 S. C. McKenzie,  J.-M. Mewes,  A. F. Morrison,  J. W. Mullinax,  K. Nanda,  
 T. S. Nguyen-Beck,  R. Olivares-Amaya,  J. A. Parkhill,  T. M. Perrine,  
 F. Plasser,  P. Pokhilko,  S. Prager,  A. Prociuk,  E. Ramos,  D. R. Rehn,  
 F. Rob,  M. Schneider,  N. Sergueev,  S. M. Sharada,  S. Sharma,  
 D. W. Small,  T. Stauch,  T. Stein,  Yu-Chuan Su,  A. J. W. Thom,  
 A. Tkatchenko,  T. Tsuchimochi,  N. M. Tubman,  L. Vogt,  M. L. Vidal,  
 O. Vydrov,  M. A. Watson,  J. Wenzel,  M. de Wergifosse,  T. A. Wesolowski,  
 A. White,  J. Witte,  A. Yamada,  Jun Yang,  K. Yao,  S. Yeganeh,  
 S. R. Yost,  Zhi-Qiang You,  A. Zech,  Igor Ying Zhang,  Xing Zhang,  
 Yan Zhao,  Ying Zhu,  B. R. Brooks,  G. K. L. Chan,  C. J. Cramer,  
 M. S. Gordon,  W. J. Hehre,  A. Klamt,  M. W. Schmidt,  C. D. Sherrill,  
 D. G. Truhlar,  A. Aspuru-Guzik,  R. Baer,  A. T. Bell,  N. A. Besley,  
 Jeng-Da Chai,  R. A. DiStasio Jr.,  A. Dreuw,  B. D. Dunietz,  
 T. R. Furlani,  Chao-Ping Hsu,  Yousung Jung,  Jing Kong,  D. S. Lambrecht,  
 WanZhen Liang,  C. Ochsenfeld,  V. A. Rassolov,  L. V. Slipchenko,  
 J. E. Subotnik,  T. Van Voorhis,  J. M. Herbert,  A. I. Krylov,  
 P. M. W. Gill,  M. Head-Gordon

 Contributors to earlier versions of Q-Chem not listed above: 
 R. D. Adamson,  B. Austin,  J. Baker,  G. J. O. Beran,  K. Brandhorst,  
 S. T. Brown,  E. F. C. Byrd,  A. K. Chakraborty,  C.-L. Cheng,  
 Siu Hung Chien,  D. M. Chipman,  D. L. Crittenden,  H. Dachsel,  
 R. J. Doerksen,  A. D. Dutoi,  L. Fusti-Molnar,  W. A. Goddard III,  
 A. Golubeva-Zadorozhnaya,  S. R. Gwaltney,  G. Hawkins,  A. Heyden,  
 S. Hirata,  G. Kedziora,  F. J. Keil,  C. Kelley,  Jihan Kim,  R. A. King,  
 R. Z. Khaliullin,  P. P. Korambath,  W. Kurlancheek,  A. M. Lee,  M. S. Lee,  
 S. V. Levchenko,  Ching Yeh Lin,  D. Liotard,  R. C. Lochan,  I. Lotan,  
 P. E. Maslen,  N. Nair,  D. P. O'Neill,  D. Neuhauser,  E. Neuscamman,  
 C. M. Oana,  R. Olson,  B. Peters,  R. Peverati,  P. A. Pieniazek,  
 Y. M. Rhee,  J. Ritchie,  M. A. Rohrdanz,  E. Rosta,  N. J. Russ,  
 H. F. Schaefer III,  N. E. Schultz,  N. Shenvi,  A. C. Simmonett,  A. Sodt,  
 D. Stuck,  K. S. Thanthiriwatte,  V. Vanovschi,  Tao Wang,  A. Warshel,  
 C. F. Williams,  Q. Wu,  X. Xu,  W. Zhang

 Please cite Q-Chem as follows:
 Y. Shao et al., Mol. Phys. 113, 184-215 (2015)
 DOI: 10.1080/00268976.2014.952696

 Q-Chem 5.1.0 for Intel X86 EM64T Linux

 Parts of Q-Chem use Armadillo 8.300.2 (Tropical Shenanigans).
 http://arma.sourceforge.net/

 Q-Chem begins on Tue Jun  5 11:52:26 2018  

Host: cori01
0

     Scratch files written to /tmp/qchem58275//
 Mar1918  _RNUM -1
 Parallel job on  1  processors
Processing $rem in /global/common/cori/software/qchem/5.1beta/config/preferences.
 MEM_TOTAL  2000 
Symmetry turned off for PCM/SM12/SMD calculation

Checking the input file for inconsistencies... 	...done.

--------------------------------------------------------------
User input:
--------------------------------------------------------------
$molecule
0 2
O      0.9738801695     -0.1044099850     -0.0000288651
C      1.0091777822     -1.4438248124     -0.0030716402
C     -0.3587600274      0.2709731931      0.0018077734
O      2.0040916879     -2.1181900203     -0.0057551381
O     -0.2430321789     -1.9186411915     -0.0030113926
C     -1.0954361214     -0.8281693765      0.0001661226
Li      4.0091968312     -1.4820110400     -0.0220293124
H     -0.5812116119      1.3222370759      0.0042818091
H     -2.1526394255     -1.0205517663      0.0006089723
$end

$rem
job_type = freq
basis = 6-311++g**
max_scf_cycles = 200
gen_scfman = true
scf_algorithm = diis
method = wb97xd
geom_opt_max_cycles = 200
solvent_method = pcm
sym_ignore = true
$end

$pcm
heavypoints 194
hpoints 194
radii uff
theory cpcm
vdwscale 1.1
$end

$solvent
dielectric 10.0
$end
--------------------------------------------------------------
 ----------------------------------------------------------------
             Standard Nuclear Orientation (Angstroms)
    I     Atom           X                Y                Z
 ----------------------------------------------------------------
    1      O       0.9738801695    -0.1044099850    -0.0000288651
    2      C       1.0091777822    -1.4438248124    -0.0030716402
    3      C      -0.3587600274     0.2709731931     0.0018077734
    4      O       2.0040916879    -2.1181900203    -0.0057551381
    5      O      -0.2430321789    -1.9186411915    -0.0030113926
    6      C      -1.0954361214    -0.8281693765     0.0001661226
    7      Li      4.0091968312    -1.4820110400    -0.0220293124
    8      H      -0.5812116119     1.3222370759     0.0042818091
    9      H      -2.1526394255    -1.0205517663     0.0006089723
 ----------------------------------------------------------------
 Nuclear Repulsion Energy =   251.2637533026 hartrees
 There are       24 alpha and       23 beta electrons
 Requested basis set is 6-311++G(d,p)
 There are 52 shells and 168 basis functions

 Total QAlloc Memory Limit   2000 MB
 Mega-Array Size       188 MB
 MEM_STATIC part       192 MB
 Discretize the solute cavity surface with Lebedev spheres
	Using 194 Lebedev grid points for each H atom
	Using 194 Lebedev grid points for other atoms
	Atomic van der Waals radii will be scaled by 1.10
 Remove points where switching function is < 1.0e-08
 Keep 905 surface tesserae and discard 841 interior tesserae
 Molecular Surface Area = 131.212 Angst**2

                       Distance Matrix (Angstroms)
             O (  1)   C (  2)   C (  3)   O (  4)   O (  5)   C (  6)
   C (  2)  1.339883
   C (  3)  1.384502  2.193584
   O (  4)  2.262008  1.201927  3.360242
   O (  5)  2.184564  1.339209  2.192676  2.255968
   C (  6)  2.192236  2.192816  1.323181  3.357270  1.384099
   Li(  7)  3.333379  3.000322  4.706652  2.103672  4.274630  5.146385
   H (  8)  2.110367  3.190688  1.074545  4.303537  3.258483  2.211039
   H (  9)  3.257981  3.190025  2.210439  4.299217  2.110255  1.074565
             Li(  7)   H (  8)
   H (  8)  5.379252
   H (  9)  6.179133  2.821003
 
 A cutoff of  1.0D-11 yielded   1322 shell pairs
 There are     14145 function pairs (     15365 Cartesian)
 
 -------------------------------------------------------
 OpenMP Integral Computing Module                       
 Release: version 1.0, May 2013, Q-Chem Inc. Pittsburgh 
 -------------------------------------------------------
 Integral Job Info:
 Integral job number is                      11
 Integral operator is                         1
 short-range coefficients              22203600
 long-range coefficients              100000000
 Omega coefficients                         200
 if combine SR and LR in K                    1
 Integral screening is                        0
 Integral computing path is                   2
 max size of driver memory is            800000
 size of driver memory is                593474
 size of scratch memory is              2428936
 max col of scratch BK array               1296
 max len of scratch array in speh3          155
 max len of scratch index in speh4           18
 max int batch size is                      520
 min int batch size is                       52
 fixed nKL is                                52
 max L of basis functions is                  2
 order of int derivative is                   0
 number of shells is                         52
 number of basis is                         175
 number of cartesian basis is               175
 number of contracted shell pairs          1322
 number of primitive shell pairs           3889
 maxK2 (contraction) of shell pair           36
 max number of K2 of shell pair               1
 max number of CS2 of shell pair            239
 max number of PS2 of shell pair            882
 mem total for path MDJ                  537338
 -------------------------------------------------------
 Smallest overlap matrix eigenvalue = 2.97E-05
 Guess from superposition of atomic densities
 Warning:  Energy on first SCF cycle will be non-variational
 SAD guess density has 47.000000 electrons

 -----------------------------------------------------------------------
  General SCF calculation program by
  Eric Jon Sundstrom, Paul Horn, Yuezhi Mao, Dmitri Zuev, Alec White,
  David Stuck, Shaama M.S., Shane Yost, Joonho Lee, David Small,
  Daniel Levine, Susi Lehtola, Hugh Burton, Evgeny Epifanovsky
 -----------------------------------------------------------------------
 Exchange:     0.2220 Hartree-Fock + 1.0000 wB97X-D + LR-HF
 Correlation:  1.0000 wB97X-D
 Using SG-2 standard quadrature grid
 Dispersion:   Grimme D
 using 32 threads for integral computing
 -------------------------------------------------------
 OpenMP Integral computing Module                
 Release: version 1.0, May 2013, Q-Chem Inc. Pittsburgh 
 -------------------------------------------------------
 using 32 threads for integral computing
 -------------------------------------------------------
 OpenMP Integral computing Module                
 Release: version 1.0, May 2013, Q-Chem Inc. Pittsburgh 
 -------------------------------------------------------
 -------------------------------------------------------
 OpenMP BLAS3 based DFT computing Module                
 Release: version 1.0, May 2013, Q-Chem Inc. Pittsburgh 
 -------------------------------------------------------
 A unrestricted SCF calculation will be
 performed using DIIS
 SCF converges when DIIS error is below 1.0e-08
 ---------------------------------------
  Cycle       Energy         DIIS error
 ---------------------------------------
    1    -350.2469474433      2.55e-02  
    2    -348.5293247915      3.58e-03  
    3    -348.4671197955      4.67e-03  
    4    -348.6678892299      4.50e-04  
    5    -348.6694002986      2.48e-04  
    6    -348.6700176542      4.01e-05  
    7    -348.6700642435      1.48e-05  
    8    -348.6700799604      7.97e-06  
    9    -348.6700947656      5.82e-06  
   10    -348.6701096026      5.05e-06  
   11    -348.6701213068      4.48e-06  
   12    -348.6701366007      3.64e-06  
   13    -348.6701509852      2.92e-06  
   14    -348.6701628308      2.04e-06  
   15    -348.6701693217      1.18e-06  
   16    -348.6701709721      8.10e-07  
   17    -348.6701713399      6.51e-07  
   18    -348.6701715888      5.06e-07  
   19    -348.6701718028      2.94e-07  
   20    -348.6701718705      8.16e-08  
   21    -348.6701718720      2.99e-08  
   22    -348.6701718721      1.29e-08  
   23    -348.6701718721      5.41e-09  Convergence criterion met
 ---------------------------------------
 SCF time:   CPU 563.67s  wall 21.00s 
 SCF   energy in the final basis set =     -348.6701718721
<S^2> =          0.750115643

************** Final PCM Free Energy Summary **************
 G_electrostatic  =      -0.02542483 hartree =     -15.95432091 kcal/mol
 G_cavitation     =       0.00000000 hartree =       0.00000000 kcal/mol
 G_dispersion     =       0.00000000 hartree =       0.00000000 kcal/mol
 G_repulsion      =       0.00000000 hartree =       0.00000000 kcal/mol
 --------------------------------------------------
 Non-electrostatic Free Energy =       0.00000000 hartree =       0.00000000 kcal/mol
 Total                         =      -0.02542483 hartree =     -15.95432091 kcal/mol
 --------------------------------------------------
 SCF Energy (H0 + V/2)                       =    -348.67017187 
 Solute Internal Energy (H0)                 =    -348.64474704 
 Total Free Energy (H0 + V/2 + non-elec)     =    -348.67017187 hartree
                                             = -218793.83510496 kcal/mol
***********************************************************

 
 --------------------------------------------------------------
 
                    Orbital Energies (a.u.)
 --------------------------------------------------------------
 
 Alpha MOs
 -- Occupied --
-19.358 -19.358 -19.274 -10.502 -10.377 -10.376  -2.039  -1.331
 -1.207  -1.190  -0.910  -0.795  -0.760  -0.665  -0.645  -0.602
 -0.586  -0.535  -0.517  -0.508  -0.489  -0.437  -0.354  -0.096
 -- Virtual --
  0.028   0.031   0.031   0.046   0.060   0.063   0.068   0.070
  0.074   0.081   0.082   0.114   0.118   0.134   0.136   0.156
  0.164   0.166   0.168   0.180   0.188   0.193   0.204   0.206
  0.211   0.213   0.231   0.262   0.279   0.285   0.309   0.327
  0.329   0.331   0.347   0.353   0.354   0.368   0.383   0.397
  0.404   0.436   0.454   0.479   0.488   0.538   0.545   0.588
  0.599   0.617   0.620   0.621   0.639   0.649   0.666   0.686
  0.694   0.713   0.750   0.784   0.796   0.842   0.853   0.872
  0.904   0.918   0.937   1.006   1.023   1.050   1.115   1.120
  1.188   1.200   1.233   1.254   1.255   1.286   1.305   1.327
  1.384   1.399   1.462   1.488   1.560   1.641   1.741   1.768
  1.797   1.800   1.816   1.820   1.838   1.934   1.958   2.002
  2.117   2.183   2.217   2.476   2.588   2.619   2.718   2.771
  2.785   2.797   2.831   2.880   2.957   3.019   3.023   3.100
  3.107   3.180   3.212   3.251   3.275   3.441   3.441   3.480
  3.606   3.688   3.743   3.862   4.008   4.060   4.121   4.149
  4.261   5.027   5.035   5.118   5.291   5.374   5.526   5.582
  5.973   6.044  23.786  23.918  24.394  49.924  50.033  50.146
 
 Beta MOs
 -- Occupied --
-19.358 -19.358 -19.274 -10.502 -10.377 -10.376  -2.038  -1.330
 -1.206  -1.189  -0.910  -0.795  -0.759  -0.665  -0.644  -0.602
 -0.586  -0.535  -0.517  -0.508  -0.489  -0.437  -0.353
 -- Virtual --
  0.038   0.058   0.061   0.064   0.072   0.073   0.084   0.088
  0.100   0.127   0.138   0.143   0.158   0.169   0.175   0.178
  0.188   0.201   0.206   0.221   0.231   0.247   0.251   0.258
  0.275   0.277   0.293   0.293   0.301   0.321   0.335   0.345
  0.349   0.351   0.370   0.374   0.381   0.403   0.419   0.424
  0.440   0.454   0.484   0.490   0.507   0.547   0.553   0.590
  0.605   0.619   0.640   0.662   0.664   0.699   0.706   0.744
  0.764   0.766   0.799   0.819   0.830   0.842   0.855   0.869
  0.881   0.938   0.989   1.013   1.024   1.044   1.052   1.118
  1.122   1.197   1.201   1.240   1.255   1.259   1.289   1.316
  1.328   1.386   1.402   1.483   1.488   1.561   1.646   1.744
  1.770   1.799   1.800   1.819   1.820   1.842   1.935   1.960
  2.004   2.117   2.183   2.217   2.476   2.588   2.619   2.719
  2.772   2.786   2.798   2.832   2.881   2.959   3.019   3.024
  3.100   3.107   3.180   3.213   3.251   3.276   3.441   3.441
  3.480   3.607   3.689   3.744   3.876   4.008   4.061   4.122
  4.150   4.261   5.027   5.036   5.118   5.292   5.375   5.527
  5.582   5.974   6.045  23.786  23.918  24.394  49.924  50.033
 50.146
 --------------------------------------------------------------
 
          Ground-State Mulliken Net Atomic Charges

     Atom                 Charge (a.u.)    Spin (a.u.)
  --------------------------------------------------------
      1 O                    -0.084860      -0.006330
      2 C                     0.254459       0.025470
      3 C                    -0.068912      -0.055771
      4 O                    -0.375004      -0.037198
      5 O                    -0.072017      -0.003200
      6 C                    -0.181253       0.108503
      7 Li                   -0.034011       0.974592
      8 H                     0.285246      -0.012796
      9 H                     0.276352       0.006730
  --------------------------------------------------------
  Sum of atomic charges =     0.000000
  Sum of spin   charges =     1.000000

 -----------------------------------------------------------------
                    Cartesian Multipole Moments
 -----------------------------------------------------------------
    Charge (ESU x 10^10)
                -0.0000
    Dipole Moment (Debye)
         X      -9.0325      Y       0.9065      Z       0.0607
       Tot       9.0781
    Quadrupole Moments (Debye-Ang)
        XX     -79.4937     XY       1.1786     YY     -47.8571
        XZ       0.2768     YZ      -0.0197     ZZ     -48.5663
    Octopole Moments (Debye-Ang^2)
       XXX    -424.3942    XXY      49.5289    XYY     -74.7392
       YYY     156.3080    XXZ       1.8770    XYZ      -0.1379
       YYZ       0.4893    XZZ     -78.7245    YZZ      46.8874
       ZZZ       1.4980
    Hexadecapole Moments (Debye-Ang^3)
      XXXX   -3114.5326   XXXY     348.4869   XXYY    -440.3459
      XYYY     266.8778   YYYY    -672.6661   XXXZ      12.7101
      XXYZ      -1.4096   XYYZ       1.9005   YYYZ      -1.7075
      XXZZ    -416.3764   XYZZ      93.5936   YYZZ    -139.2472
      XZZZ       6.1749   YZZZ      -1.8026   ZZZZ    -200.6898
 -----------------------------------------------------------------
 Calculating MO derivatives via CPSCF
 Computing fast CPCM-SWIG hessian.
 D1JvT checksum  = 430272 23772.960115273
 D1KAT checksum  = 859896 2113.146237791
 D1JvT checksum  = 430272 13993.661235085
 D1KAT checksum  = 859896 868.164018379
 Inaccurate integrated density:
   Number of electrons =    47
   Numerical integral  =    46.941751839764
   Relative error      =    -0.1239322558 %
   1         3          27      0.747789    0.218278
   2         3          27      0.540533    0.216330
   3         3          27      0.374113    0.146724
   4         3          27      0.094611    0.033786
   5         4          26      0.021817    0.010575
   6         7          23      0.004177    0.001918
   7        24           6      0.000575    0.000235
   8        27           3      0.000088    0.000031
   9        27           3      0.000015    0.000006
  10        28           2      0.000003    0.000001
  11        30           0      0.000000    0.000000    Roots Converged
 Time for AOints: 55.9 s (CPU) 3.0 s (wall)
 ------------------------------------------------------------------------------
                     AOints        : Timing summary (seconds)
 ------------------------------------------------------------------------------
     job step          cpu (% of tot)      sys (% of tot)     wall (% of tot)
 ------------------------------------------------------------------------------
  cpscf_lag         0.4266E+03 (34.4)   0.9180E-03 (36.1)   0.9995E+02 (40.7)
  iterzp            0.7567E+03 (61.0)   0.1434E-02 (56.5)   0.1427E+03 (58.1)
  make_fx           0.0000E+00 ( 0.0)   0.0000E+00 ( 0.0)   0.0000E+00 ( 0.0)
  AOints            0.5591E+02 ( 4.5)   0.1820E-03 ( 7.2)   0.2955E+01 ( 1.2)
 ------------------------------------------------------------------------------
   Grand Totals     0.1241E+04          0.2540E-02          0.2457E+03
 ------------------------------------------------------------------------------
 Calculating analytic Hessian of the SCF energy
 Polarizability Matrix (a.u.)
            1           2           3
    1-999.3331917 658.6543381 -14.7657720
    2 658.6543381-1561.0616075  -9.0603067
    3 -14.7657720  -9.0603067-2184.1792731
 Inaccurate integrated density:
   Number of electrons =    47
   Numerical integral  =    46.941751839764
   Relative error      =    -0.1239322558 %
atom: 0 element: 8
atom: 1 element: 6
atom: 2 element: 6
atom: 3 element: 8
atom: 4 element: 8
atom: 5 element: 6
atom: 6 element: 3
atom: 7 element: 1
atom: 8 element: 1
 
 Direct stationary perturbation theory relativistic correction:
 
 rels  =       0.118353677697
 relv  =      -0.526760898865
 rel2e =       0.000000000000
 E_rel =      -0.408407221168
 
 Computing fast CPCM-SWIG hessian
 Hessian of the SCF Energy
            1           2           3           4           5           6
    1   0.4844546  -0.0043899  -0.0003292  -0.1390651  -0.0086187  -0.0000203
    2  -0.0043899   0.4799581   0.0009149  -0.0369897  -0.2240966  -0.0003659
    3  -0.0003292   0.0009149   0.0859899  -0.0000524  -0.0003121  -0.0862288
    4  -0.1390651  -0.0369897  -0.0000524   0.9561434  -0.2849487  -0.0013838
    5  -0.0086187  -0.2240966  -0.0003121  -0.2849487   0.7136207   0.0014209
    6  -0.0000203  -0.0003659  -0.0862288  -0.0013838   0.0014209   0.2386428
    7  -0.2391032   0.0370738   0.0002106   0.0010159   0.0847439   0.0001868
    8  -0.0032562  -0.1085925  -0.0001067   0.0303686  -0.0561157  -0.0001650
    9   0.0001312  -0.0001490  -0.0588554   0.0000733  -0.0001998   0.0079248
   10   0.0054319   0.0508309   0.0001518  -0.5161059   0.2729362   0.0010323
   11   0.0624315  -0.0696880  -0.0002699   0.2786107  -0.2965103  -0.0007686
   12   0.0001713  -0.0002375   0.0177228   0.0011096  -0.0007663  -0.0892885
   13  -0.0127375  -0.0844688  -0.0001756  -0.1961326  -0.0637108   0.0000535
   14  -0.0149532  -0.0536798  -0.0001331  -0.0326211  -0.1656505  -0.0001332
   15   0.0000087  -0.0000542   0.0147196   0.0000067  -0.0001382  -0.0822220
   16  -0.0946456   0.0097852   0.0001275  -0.0864858  -0.0056276   0.0000582
   17  -0.0268547  -0.0225993  -0.0000692   0.0482106   0.0329601   0.0000258
   18   0.0000434  -0.0000963   0.0190255   0.0001794   0.0000551   0.0090878
   19   0.0015071  -0.0062089  -0.0000183  -0.0141160   0.0071975   0.0000695
   20  -0.0002055  -0.0006171  -0.0000073  -0.0006341   0.0026467   0.0000025
   21  -0.0000071   0.0000301  -0.0005198   0.0000705  -0.0000401   0.0013376
   22  -0.0080342   0.0363661   0.0000831  -0.0077963  -0.0054483  -0.0000031
   23   0.0009929   0.0004972   0.0000018  -0.0007141   0.0016801   0.0000040
   24   0.0000071  -0.0000222  -0.0016942   0.0000033   0.0000054   0.0003872
   25   0.0021921  -0.0019987   0.0000027   0.0025422   0.0034766   0.0000069
   26  -0.0051462  -0.0011820  -0.0000185  -0.0012822  -0.0085343  -0.0000205
   27  -0.0000050  -0.0000201   0.0098404  -0.0000066  -0.0000250   0.0003591
            7           8           9          10          11          12
    1  -0.2391032  -0.0032562   0.0001312   0.0054319   0.0624315   0.0001713
    2   0.0370738  -0.1085925  -0.0001490   0.0508309  -0.0696880  -0.0002375
    3   0.0002106  -0.0001067  -0.0588554   0.0001518  -0.0002699   0.0177228
    4   0.0010159   0.0303686   0.0000733  -0.5161059   0.2786107   0.0011096
    5   0.0847439  -0.0561157  -0.0001998   0.2729362  -0.2965103  -0.0007663
    6   0.0001868  -0.0001650   0.0079248   0.0010323  -0.0007686  -0.0892885
    7   0.5868692   0.0830828  -0.0002028  -0.0041248  -0.0111108  -0.0000205
    8   0.0830828   1.0405437   0.0018278   0.0014522  -0.0030974  -0.0000154
    9  -0.0002028   0.0018278   0.1552360   0.0000087  -0.0000026   0.0021541
   10  -0.0041248   0.0014522   0.0000087   0.6120960  -0.3412720  -0.0017411
   11  -0.0111108  -0.0030974  -0.0000026  -0.3412720   0.3389958   0.0008775
   12  -0.0000205  -0.0000154   0.0021541  -0.0017411   0.0008775   0.0453045
   13  -0.0278771   0.0380206   0.0001193  -0.1040268   0.0049521   0.0001253
   14   0.0007902  -0.0903420  -0.0002409   0.0206307   0.0319706  -0.0000082
   15   0.0000394  -0.0002606   0.0186116   0.0002016   0.0000236   0.0158855
   16  -0.2377795  -0.2021834  -0.0002998  -0.0006078   0.0030285   0.0000126
   17  -0.2361017  -0.4180159  -0.0004834  -0.0088651  -0.0065033  -0.0000112
   18  -0.0003706  -0.0005175  -0.0880624  -0.0000193  -0.0000218   0.0022400
   19  -0.0023550  -0.0004085   0.0000048   0.0090335   0.0004110   0.0003331
   20   0.0004312  -0.0000266  -0.0000010   0.0010811   0.0040762   0.0001661
   21   0.0000137   0.0000024   0.0002622   0.0003557   0.0001664   0.0044176
   22  -0.0749748   0.0493087   0.0001552  -0.0004358   0.0031014   0.0000088
   23   0.0589285  -0.3733236  -0.0007795   0.0000983  -0.0000636  -0.0000009
   24   0.0001742  -0.0007792  -0.0391468   0.0000021  -0.0000052   0.0008013
   25  -0.0016709   0.0036152   0.0000101  -0.0012603  -0.0001524   0.0000011
   26  -0.0178380   0.0089701   0.0000284   0.0031078   0.0008199  -0.0000042
   27  -0.0000308   0.0000142   0.0018759   0.0000083   0.0000006   0.0007628
           13          14          15          16          17          18
    1  -0.0127375  -0.0149532   0.0000087  -0.0946456  -0.0268547   0.0000434
    2  -0.0844688  -0.0536798  -0.0000542   0.0097852  -0.0225993  -0.0000963
    3  -0.0001756  -0.0001331   0.0147196   0.0001275  -0.0000692   0.0190255
    4  -0.1961326  -0.0326211   0.0000067  -0.0864858   0.0482106   0.0001794
    5  -0.0637108  -0.1656505  -0.0001382  -0.0056276   0.0329601   0.0000551
    6   0.0000535  -0.0001332  -0.0822220   0.0000582   0.0000258   0.0090878
    7  -0.0278771   0.0007902   0.0000394  -0.2377795  -0.2361017  -0.0003706
    8   0.0380206  -0.0903420  -0.0002606  -0.2021834  -0.4180159  -0.0005175
    9   0.0001193  -0.0002409   0.0186116  -0.0002998  -0.0004834  -0.0880624
   10  -0.1040268   0.0206307   0.0002016  -0.0006078  -0.0088651  -0.0000193
   11   0.0049521   0.0319706   0.0000236   0.0030285  -0.0065033  -0.0000218
   12   0.0001253  -0.0000082   0.0158855   0.0000126  -0.0000112   0.0022400
   13   0.4850940  -0.0068010  -0.0004162  -0.1391961   0.0782804   0.0002355
   14  -0.0068010   0.4810999   0.0008681   0.0398072  -0.2091847  -0.0003561
   15  -0.0004162   0.0008681   0.0834388   0.0001616  -0.0004048  -0.0586282
   16  -0.1391961   0.0398072   0.0001616   0.9141769   0.2164937  -0.0001722
   17   0.0782804  -0.2091847  -0.0004048   0.2164937   0.7097187   0.0009877
   18   0.0002355  -0.0003561  -0.0586282  -0.0001722   0.0009877   0.1547528
   19   0.0066626   0.0004263  -0.0000020   0.0009079   0.0016577   0.0000001
   20   0.0016215   0.0002608  -0.0000034  -0.0000764  -0.0005708  -0.0000004
   21  -0.0000377   0.0000041  -0.0000821  -0.0000077  -0.0000100  -0.0002554
   22   0.0017540  -0.0053803  -0.0000055   0.0122688  -0.0120189  -0.0000360
   23  -0.0022216  -0.0004677  -0.0000203   0.0094094  -0.0051510  -0.0000251
   24   0.0000064  -0.0000190   0.0098426   0.0000098   0.0000023   0.0016339
   25  -0.0135406  -0.0018987   0.0000058  -0.3686387  -0.0608020   0.0001397
   26   0.0343276   0.0059934  -0.0000102  -0.0706366  -0.0806537  -0.0000256
   27   0.0000896   0.0000183  -0.0015658   0.0001101  -0.0000371  -0.0397938
           19          20          21          22          23          24
    1   0.0015071  -0.0002055  -0.0000071  -0.0080342   0.0009929   0.0000071
    2  -0.0062089  -0.0006171   0.0000301   0.0363661   0.0004972  -0.0000222
    3  -0.0000183  -0.0000073  -0.0005198   0.0000831   0.0000018  -0.0016942
    4  -0.0141160  -0.0006341   0.0000705  -0.0077963  -0.0007141   0.0000033
    5   0.0071975   0.0026467  -0.0000401  -0.0054483   0.0016801   0.0000054
    6   0.0000695   0.0000025   0.0013376  -0.0000031   0.0000040   0.0003872
    7  -0.0023550   0.0004312   0.0000137  -0.0749748   0.0589285   0.0001742
    8  -0.0004085  -0.0000266   0.0000024   0.0493087  -0.3733236  -0.0007792
    9   0.0000048  -0.0000010   0.0002622   0.0001552  -0.0007795  -0.0391468
   10   0.0090335   0.0010811   0.0003557  -0.0004358   0.0000983   0.0000021
   11   0.0004110   0.0040762   0.0001664   0.0031014  -0.0000636  -0.0000052
   12   0.0003331   0.0001661   0.0044176   0.0000088  -0.0000009   0.0008013
   13   0.0066626   0.0016215  -0.0000377   0.0017540  -0.0022216   0.0000064
   14   0.0004263   0.0002608   0.0000041  -0.0053803  -0.0004677  -0.0000190
   15  -0.0000020  -0.0000034  -0.0000821  -0.0000055  -0.0000203   0.0098426
   16   0.0009079  -0.0000764  -0.0000077   0.0122688   0.0094094   0.0000098
   17   0.0016577  -0.0005708  -0.0000100  -0.0120189  -0.0051510   0.0000023
   18   0.0000001  -0.0000004  -0.0002554  -0.0000360  -0.0000251   0.0016339
   19  -0.0026316  -0.0022711  -0.0003835   0.0001865  -0.0007675  -0.0000025
   20  -0.0022711  -0.0061557  -0.0001573   0.0000642   0.0004254   0.0000009
   21  -0.0003835  -0.0001573  -0.0051832  -0.0000010   0.0000034   0.0000201
   22   0.0001865   0.0000642  -0.0000010   0.0772416  -0.0662717  -0.0001998
   23  -0.0007675   0.0004254   0.0000034  -0.0662717   0.3762380   0.0008108
   24  -0.0000025   0.0000009   0.0000201  -0.0001998   0.0008108   0.0308153
   25   0.0008048  -0.0000109  -0.0000029  -0.0002098   0.0005457  -0.0000005
   26  -0.0000364  -0.0000389   0.0000011   0.0002787   0.0001653   0.0000062
   27  -0.0000010  -0.0000001   0.0000030  -0.0000017   0.0000058  -0.0026592
           25          26          27
    1   0.0021921  -0.0051462  -0.0000050
    2  -0.0019987  -0.0011820  -0.0000201
    3   0.0000027  -0.0000185   0.0098404
    4   0.0025422  -0.0012822  -0.0000066
    5   0.0034766  -0.0085343  -0.0000250
    6   0.0000069  -0.0000205   0.0003591
    7  -0.0016709  -0.0178380  -0.0000308
    8   0.0036152   0.0089701   0.0000142
    9   0.0000101   0.0000284   0.0018759
   10  -0.0012603   0.0031078   0.0000083
   11  -0.0001524   0.0008199   0.0000006
   12   0.0000011  -0.0000042   0.0007628
   13  -0.0135406   0.0343276   0.0000896
   14  -0.0018987   0.0059934   0.0000183
   15   0.0000058  -0.0000102  -0.0015658
   16  -0.3686387  -0.0706366   0.0001101
   17  -0.0608020  -0.0806537  -0.0000371
   18   0.0001397  -0.0000256  -0.0397938
   19   0.0008048  -0.0000364  -0.0000010
   20  -0.0000109  -0.0000389  -0.0000001
   21  -0.0000029   0.0000011   0.0000030
   22  -0.0002098   0.0002787  -0.0000017
   23   0.0005457   0.0001653   0.0000058
   24  -0.0000005   0.0000062  -0.0026592
   25   0.3797811   0.0572253  -0.0001629
   26   0.0572253   0.0744602   0.0000434
   27  -0.0001629   0.0000434   0.0311776
 Gradient time:  CPU 1514.59 s  wall 392.26 s
 **********************************************************************
 **                                                                  **
 **                       VIBRATIONAL ANALYSIS                       **
 **                       --------------------                       **
 **                                                                  **
 **        VIBRATIONAL FREQUENCIES (CM**-1) AND NORMAL MODES         **
 **     FORCE CONSTANTS (mDYN/ANGSTROM) AND REDUCED MASSES (AMU)     **
 **                  INFRARED INTENSITIES (KM/MOL)                   **
 **                                                                  **
 **********************************************************************
 

 Mode:                 1                      2                      3
 Frequency:       -25.01                 136.76                 225.00
 Force Cnst:      0.0028                 0.0804                 0.2193
 Red. Mass:       7.6021                 7.3003                 7.3519
 IR Active:          YES                    YES                    YES
 IR Intens:       74.545                 33.997                 18.278
 Raman Active:       YES                    YES                    YES
               X      Y      Z        X      Y      Z        X      Y      Z
 O         -0.006  0.005 -0.227    0.131 -0.126 -0.012   -0.019 -0.068  0.001
 C         -0.000  0.005 -0.164   -0.016 -0.129 -0.007   -0.088 -0.083  0.001
 C         -0.007 -0.001  0.027    0.173  0.018  0.001    0.015  0.023 -0.001
 O          0.002  0.009 -0.318   -0.067 -0.208 -0.011   -0.113 -0.102  0.001
 O          0.002 -0.000  0.120   -0.061  0.001  0.004   -0.151  0.010  0.002
 C         -0.002 -0.004  0.237    0.055  0.098  0.011   -0.067  0.078 -0.001
 Li         0.023 -0.032  0.726   -0.417  0.743  0.032    0.886  0.307 -0.006
 H         -0.011 -0.002  0.019    0.285  0.042  0.001    0.088  0.039 -0.003
 H         -0.001 -0.009  0.470    0.035  0.210  0.022   -0.082  0.163 -0.002
 TransDip  -0.009  0.004 -0.276    0.115 -0.147 -0.014    0.108  0.084 -0.006

 Mode:                 4                      5                      6
 Frequency:       259.39                 545.02                 575.62
 Force Cnst:      0.2725                 1.6052                 0.7460
 Red. Mass:       6.8729                 9.1719                 3.8215
 IR Active:          YES                    YES                    YES
 IR Intens:        5.828                 90.958                  0.050
 Raman Active:       YES                    YES                    YES
               X      Y      Z        X      Y      Z        X      Y      Z
 O         -0.001  0.001 -0.308   -0.019 -0.289 -0.000   -0.000  0.000 -0.181
 C         -0.000  0.001 -0.147   -0.148 -0.205 -0.000   -0.000 -0.000 -0.002
 C         -0.001 -0.000  0.220    0.197 -0.010 -0.001    0.000 -0.001  0.289
 O          0.000 -0.000  0.338    0.286  0.444  0.001    0.000  0.000  0.000
 O         -0.000  0.001 -0.312   -0.250 -0.131 -0.001    0.000 -0.000  0.182
 C         -0.000 -0.001  0.216   -0.074  0.172  0.001   -0.000  0.001 -0.288
 Li         0.004 -0.003 -0.007   -0.047 -0.050 -0.000   -0.000 -0.000  0.000
 H         -0.001 -0.001  0.542    0.462  0.047 -0.001    0.001 -0.001  0.612
 H          0.000 -0.002  0.533   -0.120  0.431  0.002   -0.001  0.002 -0.627
 TransDip   0.001  0.001  0.077   -0.239  0.190  0.005   -0.000 -0.000 -0.007

 Mode:                 7                      8                      9
 Frequency:       723.92                 764.42                 772.79
 Force Cnst:      0.5635                 4.1539                 0.9977
 Red. Mass:       1.8248                12.0655                 2.8353
 IR Active:          YES                    YES                    YES
 IR Intens:      714.277                  0.795                436.207
 Raman Active:       YES                    YES                    YES
               X      Y      Z        X      Y      Z        X      Y      Z
 O          0.000  0.000 -0.041   -0.280 -0.187  0.002   -0.001 -0.000 -0.117
 C          0.000 -0.000  0.229    0.284 -0.193 -0.006    0.002 -0.002  0.316
 C          0.000  0.000 -0.078   -0.280  0.177 -0.002   -0.001  0.001  0.102
 O         -0.000  0.000 -0.058    0.434 -0.278 -0.000    0.002 -0.001 -0.079
 O         -0.000 -0.000 -0.039    0.063  0.323  0.003    0.000  0.002 -0.115
 C          0.000  0.000 -0.082   -0.271  0.201 -0.001   -0.001  0.001  0.104
 Li         0.000  0.000  0.001   -0.025 -0.004  0.001   -0.000  0.000  0.003
 H          0.001 -0.002  0.679    0.124  0.272  0.016   -0.001  0.003 -0.650
 H          0.001 -0.001  0.683   -0.209 -0.193  0.014   -0.002  0.001 -0.651
 TransDip   0.007  0.001  0.856   -0.012  0.026 -0.005    0.010  0.002  0.669

 Mode:                10                     11                     12
 Frequency:       856.15                 923.93                 958.91
 Force Cnst:      0.5845                 4.2056                 2.7626
 Red. Mass:       1.3534                 8.3620                 5.0992
 IR Active:          YES                    YES                    YES
 IR Intens:        2.032                 18.239                151.785
 Raman Active:       YES                    YES                    YES
               X      Y      Z        X      Y      Z        X      Y      Z
 O          0.000 -0.000  0.000   -0.312  0.020  0.000    0.148  0.283  0.001
 C         -0.000  0.000  0.001   -0.103 -0.160 -0.000    0.114 -0.076 -0.001
 C         -0.000  0.000 -0.126   -0.045  0.421  0.001   -0.088  0.047  0.000
 O         -0.000  0.000 -0.000   -0.020 -0.040 -0.000    0.173 -0.105 -0.000
 O          0.000  0.000 -0.000    0.120 -0.296 -0.001   -0.214 -0.232 -0.000
 C          0.000 -0.000  0.125    0.405  0.121 -0.000   -0.092  0.061  0.000
 Li         0.000  0.000  0.000    0.004 -0.001 -0.000   -0.018 -0.005  0.000
 H          0.001 -0.001  0.700   -0.154  0.425  0.001   -0.601 -0.052  0.001
 H         -0.001  0.001 -0.692    0.443  0.058 -0.000   -0.194  0.560  0.001
 TransDip  -0.001  0.001 -0.046   -0.005  0.137  0.001    0.346 -0.189  0.001

 Mode:                13                     14                     15
 Frequency:      1082.61                1119.30                1151.56
 Force Cnst:      3.5370                 1.8378                 1.9960
 Red. Mass:       5.1220                 2.4897                 2.5546
 IR Active:          YES                    YES                    YES
 IR Intens:       10.515                  8.933                208.797
 Raman Active:       YES                    YES                    YES
               X      Y      Z        X      Y      Z        X      Y      Z
 O         -0.206  0.179  0.001   -0.145  0.022  0.000   -0.067 -0.089 -0.000
 C         -0.030 -0.048 -0.000    0.017 -0.023 -0.000    0.176  0.258  0.000
 C          0.254 -0.177 -0.001    0.103 -0.148 -0.000   -0.051  0.002  0.000
 O         -0.024 -0.042 -0.000    0.035 -0.019 -0.000   -0.016 -0.032 -0.000
 O          0.226 -0.113 -0.000   -0.082  0.138  0.000   -0.074 -0.086 -0.000
 C         -0.240  0.159  0.001    0.182 -0.041 -0.000    0.039 -0.053 -0.000
 Li         0.002  0.002 -0.000   -0.005 -0.001  0.000   -0.002  0.002  0.000
 H          0.561 -0.121 -0.001   -0.623 -0.324  0.000    0.634  0.143 -0.001
 H         -0.309  0.502  0.002    0.085  0.618  0.001   -0.092  0.662  0.001
 TransDip   0.072  0.074 -0.001    0.090 -0.032  0.001    0.453  0.096 -0.002

 Mode:                16                     17                     18
 Frequency:      1197.01                1385.75                1699.23
 Force Cnst:      1.6973                 2.5031                 9.4268
 Red. Mass:       2.0106                 2.2124                 5.5413
 IR Active:          YES                    YES                    YES
 IR Intens:      182.651                111.550                 33.073
 Raman Active:       YES                    YES                    YES
               X      Y      Z        X      Y      Z        X      Y      Z
 O          0.077 -0.131 -0.000    0.056  0.075  0.000    0.030  0.027  0.000
 C         -0.021  0.023  0.000   -0.110 -0.165 -0.000    0.028 -0.018 -0.000
 C         -0.099  0.015  0.000   -0.151 -0.003  0.000   -0.294 -0.340 -0.000
 O         -0.049  0.029  0.000    0.013  0.021  0.000   -0.024  0.016  0.000
 O          0.153 -0.030 -0.000    0.049  0.081  0.000   -0.014 -0.038 -0.000
 C         -0.055  0.089  0.000    0.056 -0.138 -0.000    0.202  0.403  0.001
 Li         0.006  0.001 -0.000    0.001 -0.001 -0.000   -0.000 -0.000 -0.000
 H         -0.657 -0.099  0.001    0.639  0.170 -0.000    0.456 -0.290 -0.001
 H         -0.167  0.677  0.002   -0.085  0.673  0.001    0.440 -0.321 -0.001
 TransDip  -0.356  0.246  0.000   -0.337 -0.023  0.002    0.144 -0.115 -0.001

 Mode:                19                     20                     21
 Frequency:      1844.64                3321.88                3346.81
 Force Cnst:     25.6123                 7.0996                 7.3860
 Red. Mass:      12.7754                 1.0920                 1.1192
 IR Active:          YES                    YES                    YES
 IR Intens:      804.128                 23.895                  9.129
 Raman Active:       YES                    YES                    YES
               X      Y      Z        X      Y      Z        X      Y      Z
 O         -0.042  0.024  0.000    0.001 -0.000 -0.000    0.001 -0.001 -0.000
 C          0.713 -0.475 -0.002    0.001  0.002  0.000    0.002 -0.001 -0.000
 C          0.002  0.056  0.000    0.014 -0.062 -0.000   -0.006  0.069  0.000
 O         -0.402  0.274  0.001   -0.000 -0.000  0.000   -0.000  0.000  0.000
 O         -0.037  0.028  0.000   -0.000  0.001  0.000    0.001 -0.001 -0.000
 C         -0.051 -0.022 -0.000   -0.059 -0.010  0.000   -0.070 -0.021  0.000
 Li        -0.019 -0.003  0.000   -0.000  0.000 -0.000   -0.000  0.000  0.000
 H         -0.058  0.073  0.000   -0.150  0.709  0.002    0.135 -0.668 -0.002
 H         -0.088  0.022  0.000    0.672  0.122 -0.000    0.712  0.136 -0.000
 TransDip   0.782 -0.462 -0.004    0.087  0.130 -0.000    0.086 -0.044  0.000

 STANDARD THERMODYNAMIC QUANTITIES AT   298.15 K  AND     1.00 ATM

   This Molecule has  1 Imaginary Frequencies
   Zero point vibrational energy:       32.724 kcal/mol

   Atom    1 Element O  Has Mass   15.99491
   Atom    2 Element C  Has Mass   12.00000
   Atom    3 Element C  Has Mass   12.00000
   Atom    4 Element O  Has Mass   15.99491
   Atom    5 Element O  Has Mass   15.99491
   Atom    6 Element C  Has Mass   12.00000
   Atom    7 Element Li Has Mass    7.01600
   Atom    8 Element H  Has Mass    1.00783
   Atom    9 Element H  Has Mass    1.00783
   Molecular Mass:    93.016390 amu
   Principal axes and moments of inertia in amu*Bohr^2:
                             1           2           3
    Eigenvalues --      217.52839   702.00822   919.53040
          X               0.94698     0.32129     0.00311
          Y              -0.32128     0.94698    -0.00165
          Z              -0.00347     0.00056     0.99999
   Rotational Symmetry Number is   1
   The Molecule is an Asymmetric Top
   Translational Enthalpy:        0.889 kcal/mol
   Rotational Enthalpy:           0.889 kcal/mol
   Vibrational Enthalpy:         34.332 kcal/mol
   gas constant (RT):             0.592 kcal/mol
   Translational Entropy:        39.502  cal/mol.K
   Rotational Entropy:           26.443  cal/mol.K
   Vibrational Entropy:           8.876  cal/mol.K

   Total Enthalpy:               36.702 kcal/mol
   Total Entropy:                74.821  cal/mol.K
Archival summary:
1\1\nid00679\FREQ\ProcedureUnspecified\BasisUnspecified\33i12(2)\sblau\TueJun511:59:192018TueJun511:59:192018\0\\#,FREQ,ProcedureUnspecified,BasisUnspecified,\\0,2\O\C,1,1.33988\O,2,1.20193,1,125.64\O,2,1.33921,1,109.256,3,-179.984,0\C,4,1.3841,2,107.248,1,0.00179675,0\H,5,1.07457,4,117.701,2,179.996,0\C,5,1.32318,4,108.155,2,0.00646115,0\H,7,1.07454,5,134.221,4,180,0\Li,3,2.10367,2,128.267,1,-0.53203,0\\\@

 Total job time:  412.84s(wall), 2089.08s(cpu) 
 Tue Jun  5 11:59:19 2018

        *************************************************************
        *                                                           *
        *  Thank you very much for using Q-Chem.  Have a nice day.  *
        *                                                           *
        *************************************************************


0 sent ACK to 0 
now end server 0 ... 
cleanup process ... done
