
Running Job 1 of 1 mol.qin
qchem mol.qin_141126.0 /tmp/scratch/scratch/ 0
/nopt/nrel/apps/q-chem/5.2/exe/qcprog.exe_s mol.qin_141126.0 /tmp/scratch/scratch/
                  Welcome to Q-Chem
     A Quantum Leap Into The Future Of Chemistry


 Q-Chem 5.2, Q-Chem, Inc., Pleasanton, CA (2019)

 Yihan Shao,  Zhengting Gan,  E. Epifanovsky,  A. T. B. Gilbert,  M. Wormit,  
 J. Kussmann,  A. W. Lange,  A. Behn,  Jia Deng,  Xintian Feng,  D. Ghosh,  
 M. Goldey,  P. R. Horn,  L. D. Jacobson,  I. Kaliman,  T. Kus,  A. Landau,  
 Jie Liu,  E. I. Proynov,  R. M. Richard,  R. P. Steele,  E. J. Sundstrom,  
 H. L. Woodcock III,  P. M. Zimmerman,  D. Zuev,  B. Alam,  B. Albrecht,  
 E. Alguire,  S. A. Baeppler,  D. Barton,  Z. Benda,  Y. A. Bernard,  
 E. J. Berquist,  K. B. Bravaya,  H. Burton,  K. Carter-Fenk,  D. Casanova,  
 Chun-Min Chang,  Yunqing Chen,  A. Chien,  K. D. Closser,  M. P. Coons,  
 S. Coriani,  S. Dasgupta,  A. L. Dempwolff,  M. Diedenhofen,  Hainam Do,  
 R. G. Edgar,  Po-Tung Fang,  S. Faraji,  S. Fatehi,  Qingguo Feng,  
 J. Fosso-Tande,  J. Gayvert,  Qinghui Ge,  A. Ghysels,  G. Gidofalvi,  
 J. Gomes,  J. Gonthier,  A. Gunina,  D. Hait,  M. W. D. Hanson-Heine,  
 P. H. P. Harbach,  A. W. Hauser,  M. F. Herbst,  J. E. Herr,  
 E. G. Hohenstein,  Z. C. Holden,  Kerwin Hui,  B. C. Huynh,  T.-C. Jagau,  
 Hyunjun Ji,  B. Kaduk,  K. Khistyaev,  Jaehoon Kim,  P. Klunzinger,  K. Koh,  
 D. Kosenkov,  L. Koulias,  T. Kowalczyk,  C. M. Krauter,  A. Kunitsa,  
 Ka Un Lao,  A. Laurent,  K. V. Lawler,  Joonho Lee,  D. Lefrancois,  
 S. Lehtola,  D. S. Levine,  Yi-Pei Li,  You-Sheng Lin,  Fenglai Liu,  
 Kuan-Yu Liu,  E. Livshits,  M. Loipersberger,  A. Luenser,  P. Manohar,  
 E. Mansoor,  S. F. Manzer,  Shan-Ping Mao,  Yuezhi Mao,  N. Mardirossian,  
 A. V. Marenich,  T. Markovich,  L. A. Martinez-Martinez,  S. A. Maurer,  
 N. J. Mayhall,  S. C. McKenzie,  J.-M. Mewes,  P. Morgante,  A. F. Morrison,  
 J. W. Mullinax,  K. Nanda,  T. S. Nguyen-Beck,  R. Olivares-Amaya,  
 J. A. Parkhill,  S. K. Paul,  Zheng Pei,  T. M. Perrine,  F. Plasser,  
 P. Pokhilko,  S. Prager,  A. Prociuk,  E. Ramos,  B. Rana,  D. R. Rehn,  
 F. Rob,  M. Scheurer,  M. Schneider,  N. Sergueev,  S. M. Sharada,  
 S. Sharma,  D. W. Small,  T. Stauch,  C. J. Stein,  T. Stein,  Yu-Chuan Su,  
 S. P. Veccham,  A. J. W. Thom,  A. Tkatchenko,  T. Tsuchimochi,  
 N. M. Tubman,  L. Vogt,  M. L. Vidal,  O. Vydrov,  M. A. Watson,  J. Wenzel,  
 M. de Wergifosse,  T. A. Wesolowski,  A. White,  J. Witte,  A. Yamada,  
 Jun Yang,  K. Yao,  S. Yeganeh,  S. R. Yost,  Zhi-Qiang You,  A. Zech,  
 Igor Ying Zhang,  Xing Zhang,  Yan Zhao,  Ying Zhu,  B. R. Brooks,  
 G. K. L. Chan,  C. J. Cramer,  M. S. Gordon,  W. J. Hehre,  A. Klamt,  
 M. W. Schmidt,  C. D. Sherrill,  D. G. Truhlar,  A. Aspuru-Guzik,  R. Baer,  
 A. T. Bell,  N. A. Besley,  Jeng-Da Chai,  A. E. DePrince, III,  
 R. A. DiStasio Jr.,  A. Dreuw,  B. D. Dunietz,  T. R. Furlani,  
 Chao-Ping Hsu,  Yousung Jung,  Jing Kong,  D. S. Lambrecht,  WanZhen Liang,  
 C. Ochsenfeld,  V. A. Rassolov,  L. V. Slipchenko,  J. E. Subotnik,  
 T. Van Voorhis,  J. M. Herbert,  A. I. Krylov,  P. M. W. Gill,  M. Head-Gordon

 Contributors to earlier versions of Q-Chem not listed above: 
 R. D. Adamson,  B. Austin,  J. Baker,  G. J. O. Beran,  K. Brandhorst,  
 S. T. Brown,  E. F. C. Byrd,  A. K. Chakraborty,  C.-L. Cheng,  
 Siu Hung Chien,  D. M. Chipman,  D. L. Crittenden,  H. Dachsel,  
 R. J. Doerksen,  A. D. Dutoi,  L. Fusti-Molnar,  W. A. Goddard III,  
 A. Golubeva-Zadorozhnaya,  S. R. Gwaltney,  G. Hawkins,  A. Heyden,  
 S. Hirata,  G. Kedziora,  F. J. Keil,  C. Kelley,  Jihan Kim,  R. A. King,  
 R. Z. Khaliullin,  P. P. Korambath,  W. Kurlancheek,  A. M. Lee,  M. S. Lee,  
 S. V. Levchenko,  Ching Yeh Lin,  D. Liotard,  R. C. Lochan,  I. Lotan,  
 P. E. Maslen,  N. Nair,  D. P. O'Neill,  D. Neuhauser,  E. Neuscamman,  
 C. M. Oana,  R. Olson,  B. Peters,  R. Peverati,  P. A. Pieniazek,  
 Y. M. Rhee,  J. Ritchie,  M. A. Rohrdanz,  E. Rosta,  N. J. Russ,  
 H. F. Schaefer III,  N. E. Schultz,  N. Shenvi,  A. C. Simmonett,  A. Sodt,  
 D. Stuck,  K. S. Thanthiriwatte,  V. Vanovschi,  Tao Wang,  A. Warshel,  
 C. F. Williams,  Q. Wu,  X. Xu,  W. Zhang

 Please cite Q-Chem as follows:
 Y. Shao et al., Mol. Phys. 113, 184-215 (2015)
 DOI: 10.1080/00268976.2014.952696

 Q-Chem 5.2.2 for Intel X86 EM64T Linux

 Parts of Q-Chem use Armadillo 8.300.2 (Tropical Shenanigans).
 http://arma.sourceforge.net/

 Q-Chem begins on Mon Dec 30 06:14:42 2019  

Host: 
0

     Scratch files written to /tmp/scratch/scratch//
 Nov2519 |scratch|qcdevops|jenkins|workspace|build_RNUM -1
Processing $rem in /nopt/nrel/apps/q-chem/5.2/config/preferences:
	 MEM_TOTAL  24000 
NAlpha2: 46
NElect   46
Mult     1
Symmetry turned off for PCM/SM12/SMD calculation

Checking the input file for inconsistencies... 	...done.

--------------------------------------------------------------
User input:
--------------------------------------------------------------
$molecule
0 1
O     -0.5741620000      1.2402830000     -0.0725710000
C     -0.0348010000     -0.0161700000     -0.0190530000
C      1.4924970000     -0.0670660000     -0.0948500000
O      2.0100290000     -1.2753940000     -0.1296980000
Li     -1.0556250000      2.8018570000      0.0009580000
H     -0.3783470000     -0.6527700000     -0.8593740000
H     -0.3088140000     -0.5625060000      0.9070080000
F      1.9761310000      0.6348910000      1.1205810000
H      1.8592770000      0.6091610000     -0.8894920000
Li      2.6138150000     -2.8122960000      0.0364910000
$end

$rem
job_type = freq
basis = def2-tzvppd
max_scf_cycles = 200
gen_scfman = true
xc_grid = 3
scf_algorithm = diis
resp_charges = true
symmetry = false
sym_ignore = true
method = wb97xv
geom_opt_max_cycles = 200
solvent_method = smd
ideriv = 1
thresh = 14
scf_guess_always = true
$end

$smx
solvent other
$end
--------------------------------------------------------------
 ----------------------------------------------------------------
             Standard Nuclear Orientation (Angstroms)
    I     Atom           X                Y                Z
 ----------------------------------------------------------------
    1      O      -0.5741620000     1.2402830000    -0.0725710000
    2      C      -0.0348010000    -0.0161700000    -0.0190530000
    3      C       1.4924970000    -0.0670660000    -0.0948500000
    4      O       2.0100290000    -1.2753940000    -0.1296980000
    5      Li     -1.0556250000     2.8018570000     0.0009580000
    6      H      -0.3783470000    -0.6527700000    -0.8593740000
    7      H      -0.3088140000    -0.5625060000     0.9070080000
    8      F       1.9761310000     0.6348910000     1.1205810000
    9      H       1.8592770000     0.6091610000    -0.8894920000
   10      Li      2.6138150000    -2.8122960000     0.0364910000
 ----------------------------------------------------------------
 Nuclear Repulsion Energy =         214.70693046 hartrees
 There are       23 alpha and       23 beta electrons
 Requested basis set is def2-TZVPPD
 There are 109 shells and 289 basis functions

 Total QAlloc Memory Limit  24000 MB
 Mega-Array Size       188 MB
 MEM_STATIC part       192 MB
 
 Citation of the SMD model:
 Marenich, A.V.; Cramer, C.J.; Truhlar, D.G.
 J. Phys. Chem. B 2009, 113, 6378-6396.
 iSolventCode=           0
 Solvent: other                                                           
 
 vradii
            1           2           3           4           5           6
    1   2.2940000   1.8500000   1.8500000   2.2940000   2.1476001   1.2000000
            7           8           9          10
    1   1.2000000   1.7300000   1.2000000   2.1476001
 Changing PCM_VDW_RADII to SMD_RADIUS
 Discretize the solute cavity surface with Lebedev spheres
	Using 110 Lebedev grid points for each H atom
	Using 194 Lebedev grid points for other atoms
	Atomic van der Waals radii will be scaled by 1.20
 Remove points where switching function is < 1.0e-08
 Keep 846 surface tesserae and discard 842 interior tesserae
 Molecular Surface Area = 167.934 Angst**2

                       Distance Matrix (Angstroms)
             O (  1)   C (  2)   C (  3)   O (  4)   Li(  5)   H (  6)
   C (  2)  1.368374
   C (  3)  2.445555  1.530024
   O (  4)  3.606929  2.404000  1.314956
   Li(  5)  1.635765  2.997292  3.838336  5.102870
   H (  6)  2.059381  1.108793  2.104187  2.573796  3.623993
   H (  7)  2.068824  1.109574  2.119882  2.638181  3.563368  1.770053
   F (  8)  2.879949  2.401352  1.484560  2.283317  3.891123  3.334945
   H (  9)  2.643350  2.176289  1.106014  2.037538  3.754660  2.569112
   Li( 10)  5.157372  3.851827  2.968315  1.659592  6.707068  3.797257
             H (  7)   F (  8)   H (  9)
   F (  8)  2.588503
   H (  9)  3.049727  2.013631
   Li( 10)  3.789606  3.669467  3.623967
 
 A cutoff of  1.0D-14 yielded   5702 shell pairs
 There are     40932 function pairs (     51615 Cartesian)
 Smallest overlap matrix eigenvalue = 1.55E-05
 Guess from superposition of atomic densities
 Warning:  Energy on first SCF cycle will be non-variational
 SAD guess density has 46.000000 electrons

 -----------------------------------------------------------------------
  General SCF calculation program by
  Eric Jon Sundstrom, Paul Horn, Yuezhi Mao, Dmitri Zuev, Alec White,
  David Stuck, Shaama M.S., Shane Yost, Joonho Lee, David Small,
  Daniel Levine, Susi Lehtola, Hugh Burton, Evgeny Epifanovsky,
  Bang C. Huynh
 -----------------------------------------------------------------------
 Exchange:     0.1670 Hartree-Fock + 1.0000 wB97X-V + LR-HF
 Correlation:  1.0000 wB97X-V
 Using SG-3 standard quadrature grid
 Nonlocal Correlation:  VV10 with C = 0.0100 and b = 6.00 and scale = 1.00000
 Grid used for NLC:  SG-1 standard quadrature
 
 Citation of the SMD model:
 Marenich, A.V.; Cramer, C.J.; Truhlar, D.G.
 J. Phys. Chem. B 2009, 113, 6378-6396.
 iSolventCode=           0
 Solvent: other                                                           
 
 vradii
            1           2           3           4           5           6
    1   2.2940000   1.8500000   1.8500000   2.2940000   2.1476001   1.2000000
            7           8           9          10
    1   1.2000000   1.7300000   1.2000000   2.1476001
 using 32 threads for integral computing
 -------------------------------------------------------
 OpenMP Integral computing Module                
 Release: version 1.0, May 2013, Q-Chem Inc. Pittsburgh 
 -------------------------------------------------------
 using 32 threads for integral computing
 -------------------------------------------------------
 OpenMP Integral computing Module                
 Release: version 1.0, May 2013, Q-Chem Inc. Pittsburgh 
 -------------------------------------------------------
 -------------------------------------------------------
 OpenMP BLAS3 based DFT computing Module                
 Release: version 1.0, May 2013, Q-Chem Inc. Pittsburgh 
 -------------------------------------------------------
 -------------------------------------------------------
 OpenMP BLAS3 based DFT computing Module                
 Release: version 1.0, May 2013, Q-Chem Inc. Pittsburgh 
 -------------------------------------------------------
 -------------------------------------------------------
 OpenMP BLAS3 based DFT computing Module                
 Release: version 1.0, May 2013, Q-Chem Inc. Pittsburgh 
 -------------------------------------------------------
 A restricted SCF calculation will be
 performed using DIIS
 SCF converges when DIIS error is below 1.0e-08
 ---------------------------------------
  Cycle       Energy         DIIS error
 ---------------------------------------
    1    -343.7022673913      2.27e-02  
    2    -343.1905439751      6.03e-03  
    3    -343.1471364828      6.96e-03  
    4    -343.4799339392      3.85e-04  
    5    -343.4805699715      2.63e-04  
    6    -343.4810052604      5.55e-05  
    7    -343.4810304833      1.04e-05  
    8    -343.4810317733      4.79e-06  
    9    -343.4810320122      1.56e-06  
   10    -343.4810320373      6.80e-07  
   11    -343.4810320439      1.04e-07  
   12    -343.4810320445      2.53e-08  
   13    -343.4810320445      6.93e-09  Convergence criterion met
 ---------------------------------------
 SCF time:   CPU 731.42s  wall 24.00s 
(3)  G-ENP(liq) elect-nuc-pol free energy of system     -343.481032044 a.u.
(4)  G-CDS(liq) cavity-dispersion-solvent structure 
     free energy                                               -0.6334 kcal/mol
(6)  G-S(liq) free energy of system                     -343.482041432 a.u.
 SCF   energy in the final basis set =     -343.4810320445
 Total energy in the final basis set =     -343.4820414318
 
 --------------------------------------------------------------
 
                    Orbital Energies (a.u.)
 --------------------------------------------------------------
 
 Alpha MOs
 -- Occupied --
-24.6883 -19.1324 -19.1093 -10.3373 -10.2666  -2.0953  -2.0775  -1.2554
 -1.0768  -1.0371  -0.7810  -0.6785  -0.5804  -0.5447  -0.5366  -0.4908
 -0.4811  -0.4445  -0.4402  -0.3655  -0.3433  -0.3073  -0.2957
 -- Virtual --
  0.0275   0.0289   0.0438   0.0453   0.0523   0.0542   0.0547   0.0702
  0.1161   0.1267   0.1276   0.1294   0.1406   0.1504   0.1528   0.1549
  0.1567   0.1612   0.1641   0.1849   0.1913   0.1994   0.2051   0.2167
  0.2202   0.2226   0.2324   0.2638   0.2709   0.3016   0.3193   0.3244
  0.3312   0.3409   0.3456   0.3540   0.3605   0.3727   0.3800   0.3850
  0.3908   0.3990   0.4061   0.4145   0.4212   0.4249   0.4328   0.4348
  0.4379   0.4420   0.4450   0.4539   0.4596   0.4648   0.4754   0.4790
  0.4920   0.5024   0.5045   0.5168   0.5250   0.5373   0.5445   0.5469
  0.5692   0.5800   0.5948   0.6095   0.6240   0.6258   0.6425   0.6540
  0.6758   0.6925   0.7068   0.7237   0.7289   0.7481   0.7561   0.7776
  0.7860   0.7895   0.7996   0.8287   0.8337   0.8652   0.8808   0.8968
  0.9028   0.9149   0.9197   0.9501   0.9686   0.9736   0.9953   1.0259
  1.0629   1.0760   1.0906   1.0944   1.1016   1.1171   1.1493   1.1682
  1.1928   1.2232   1.2422   1.2634   1.2684   1.2873   1.3161   1.3237
  1.3543   1.3598   1.3826   1.3902   1.4107   1.4322   1.4743   1.4899
  1.5074   1.5257   1.5772   1.6156   1.6768   1.7503   1.7572   1.7805
  1.8104   1.9289   1.9821   1.9982   2.0538   2.0784   2.0818   2.1019
  2.1482   2.1579   2.1861   2.2059   2.3065   2.3291   2.4134   2.4396
  2.4685   2.5185   2.5475   2.5783   2.6117   2.6437   2.6713   2.8016
  2.8181   2.8710   2.9039   2.9611   2.9833   3.0391   3.0790   3.1057
  3.1324   3.1775   3.2000   3.2658   3.2975   3.3023   3.3140   3.3575
  3.3834   3.4185   3.4240   3.4680   3.4905   3.5256   3.5530   3.5679
  3.6148   3.6266   3.6911   3.7321   3.7956   3.8160   3.8239   3.8536
  3.8783   3.9803   4.0161   4.0554   4.0884   4.1158   4.1627   4.2146
  4.2219   4.3100   4.3392   4.3816   4.4042   4.4685   4.4857   4.5325
  4.6599   4.7654   4.7934   4.8269   4.9357   4.9836   5.0142   5.0368
  5.1511   5.1639   5.2138   5.2667   5.3381   5.3577   5.3838   5.4529
  5.5159   5.5370   5.5899   5.6422   5.6675   5.7362   5.7534   5.7963
  5.9180   6.1277   6.1363   6.1607   6.1696   6.1937   6.2107   6.2280
  6.2421   6.2871   6.3655   6.6405   6.6542   6.7170   6.7513   6.7706
  6.8060   6.9979   7.0505   7.0662   7.1144   7.1336   7.1668   7.2172
  7.2651   7.3880   7.3973   7.4443   7.4855   7.5372   8.7145   8.7606
  8.9891   9.0019   9.4660  15.1983  15.2399  23.3863  23.6612  44.2363
 44.3904  57.6045
 --------------------------------------------------------------
 
          Ground-State Mulliken Net Atomic Charges

     Atom                 Charge (a.u.)
  ----------------------------------------
      1 O                    -0.917888
      2 C                    -0.004539
      3 C                     0.432817
      4 O                    -0.913215
      5 Li                    0.877456
      6 H                     0.021882
      7 H                     0.004103
      8 F                    -0.389170
      9 H                    -0.004672
     10 Li                    0.893225
  ----------------------------------------
  Sum of atomic charges =     0.000000

  Building new vdw surfaces
         Merz-Kollman RESP Net Atomic Charges

     Atom                 Charge (a.u.)
  ----------------------------------------
      1 O                    -0.991224
      2 C                    -0.012083
      3 C                     0.714753
      4 O                    -1.115666
      5 Li                    0.855358
      6 H                     0.054677
      7 H                     0.054677
      8 F                    -0.459599
      9 H                    -0.018681
     10 Li                    0.917788
  ----------------------------------------
  Sum of atomic charges =     0.000000

  Related Dipole Moment =     2.5078 (X -0.4359 Y -1.9614 Z -1.5006)

 -----------------------------------------------------------------
                    Cartesian Multipole Moments
 -----------------------------------------------------------------
    Charge (ESU x 10^10)
                 0.0000
    Dipole Moment (Debye)
         X      -0.4027      Y      -1.9050      Z      -1.4458
       Tot       2.4253
    Quadrupole Moments (Debye-Ang)
        XX     -23.9079     XY     -31.6867     YY      16.4431
        XZ      -3.6879     YZ      -2.2841     ZZ     -37.2445
    Octopole Moments (Debye-Ang^2)
       XXX     -63.8192    XXY     -56.7227    XYY      11.5762
       YYY     -11.3026    XXZ      -9.9845    XYZ      -6.5860
       YYZ      -1.4218    XZZ     -35.8894    YZZ      -4.8513
       ZZZ     -14.0289
    Hexadecapole Moments (Debye-Ang^3)
      XXXX    -368.5039   XXXY    -126.1855   XXYY     120.4350
      XYYY    -277.6244   YYYY     278.9570   XXXZ     -39.0182
      XXYZ     -17.3514   XYYZ      -5.4790   YYYZ     -16.3583
      XXZZ    -106.0633   XYZZ      21.0121   YYZZ     -62.1360
      XZZZ     -33.2704   YZZZ     -13.4168   ZZZZ     -96.7643
 -----------------------------------------------------------------
 Calculating analytic gradient of the SCF energy
 Gradient of CDS energy
            1           2           3           4           5           6
    1   0.0001576  -0.0012946   0.0007794  -0.0001317   0.0000824   0.0003776
    2   0.0010607  -0.0008830   0.0002366  -0.0005669  -0.0003542  -0.0000572
    3   0.0000254  -0.0000473  -0.0006455   0.0003279  -0.0000305   0.0001260
            7           8           9          10
    1   0.0004224   0.0000201  -0.0002623  -0.0001509
    2   0.0000052  -0.0000158   0.0001906   0.0003840
    3  -0.0000751   0.0001085   0.0002522  -0.0000415
 Gradient of SCF Energy
            1           2           3           4           5           6
    1   0.0073397  -0.0073870   0.0058761  -0.0074953  -0.0047569   0.0035562
    2  -0.0121457  -0.0020651  -0.0031016   0.0167807   0.0094753   0.0031549
    3   0.0014776   0.0020595  -0.0071739   0.0024993  -0.0008292   0.0077000
            7           8           9          10
    1   0.0028343  -0.0009228  -0.0025701   0.0035257
    2   0.0036712  -0.0008182  -0.0044467  -0.0105047
    3  -0.0097722  -0.0010253   0.0056056  -0.0005413
 Max gradient component =       1.678E-02
 RMS gradient           =       6.329E-03
 Computing fast CPCM-SWIG gradient
 Updating gradient with PCM contributions...
 -- total gradient after adding PCM contribution --
---------------------------------------------------
  Atom         X              Y              Z     
---------------------------------------------------
   1       0.000147       0.000016      -0.000284
   2      -0.000079      -0.000022       0.000146
   3      -0.000036      -0.000009      -0.000013
   4       0.000116       0.000089       0.000095
   5      -0.000072      -0.000038       0.000114
   6       0.000001      -0.000005      -0.000007
   7       0.000007      -0.000000      -0.000006
   8      -0.000026      -0.000020      -0.000017
   9      -0.000005      -0.000005       0.000001
  10      -0.000053      -0.000005      -0.000028
---------------------------------------------------
 Number of fixed atoms: 0
 Gradient time:  CPU 150.21 s  wall 6.85 s
 ######################################################
 ######################################################
 # Starting finite difference calculation for IDERIV  #
 Finite diff step size:  1.88973e-03 a.u.
 ----------------------------------------------------------------
             Standard Nuclear Orientation (Angstroms)
    I     Atom           X                Y                Z
 ----------------------------------------------------------------
    1      O      -0.5731620000     1.2402830000    -0.0725710000
    2      C      -0.0348010000    -0.0161700000    -0.0190530000
    3      C       1.4924970000    -0.0670660000    -0.0948500000
    4      O       2.0100290000    -1.2753940000    -0.1296980000
    5      Li     -1.0556250000     2.8018570000     0.0009580000
    6      H      -0.3783470000    -0.6527700000    -0.8593740000
    7      H      -0.3088140000    -0.5625060000     0.9070080000
    8      F       1.9761310000     0.6348910000     1.1205810000
    9      H       1.8592770000     0.6091610000    -0.8894920000
   10      Li      2.6138150000    -2.8122960000     0.0364910000
 ----------------------------------------------------------------
 Nuclear Repulsion Energy =         214.72147531 hartrees
 There are       23 alpha and       23 beta electrons
 Discretize the solute cavity surface with Lebedev spheres
	Using 110 Lebedev grid points for each H atom
	Using 194 Lebedev grid points for other atoms
	Atomic van der Waals radii will be scaled by 1.20
 Remove points where switching function is < 1.0e-08
 Keep 846 surface tesserae and discard 842 interior tesserae
 Molecular Surface Area = 167.922 Angst**2

                       Distance Matrix (Angstroms)
             O (  1)   C (  2)   C (  3)   O (  4)   Li(  5)   H (  6)
   C (  2)  1.367981
   C (  3)  2.444710  1.530024
   O (  4)  3.606213  2.404000  1.314956
   Li(  5)  1.636059  2.997292  3.838336  5.102870
   H (  6)  2.059287  1.108793  2.104187  2.573796  3.623993
   H (  7)  2.068696  1.109574  2.119882  2.638181  3.563368  1.770053
   F (  8)  2.879063  2.401352  1.484560  2.283317  3.891123  3.334945
   H (  9)  2.642430  2.176289  1.106014  2.037538  3.754660  2.569112
   Li( 10)  5.156754  3.851827  2.968315  1.659592  6.707068  3.797257
             H (  7)   F (  8)   H (  9)
   F (  8)  2.588503
   H (  9)  3.049727  2.013631
   Li( 10)  3.789606  3.669467  3.623967
 
 Requested basis set is def2-TZVPPD
 There are 109 shells and 289 basis functions
 A cutoff of  1.0D-14 yielded   5702 shell pairs
 There are     40932 function pairs (     51615 Cartesian)
 Smallest overlap matrix eigenvalue = 1.55E-05
 Guess from superposition of atomic densities
 Warning:  Energy on first SCF cycle will be non-variational
 SAD guess density has 46.000000 electrons

 -----------------------------------------------------------------------
  General SCF calculation program by
  Eric Jon Sundstrom, Paul Horn, Yuezhi Mao, Dmitri Zuev, Alec White,
  David Stuck, Shaama M.S., Shane Yost, Joonho Lee, David Small,
  Daniel Levine, Susi Lehtola, Hugh Burton, Evgeny Epifanovsky,
  Bang C. Huynh
 -----------------------------------------------------------------------
 Exchange:     0.1670 Hartree-Fock + 1.0000 wB97X-V + LR-HF
 Correlation:  1.0000 wB97X-V
 Using SG-3 standard quadrature grid
 Nonlocal Correlation:  VV10 with C = 0.0100 and b = 6.00 and scale = 1.00000
 Grid used for NLC:  SG-1 standard quadrature
 
 Citation of the SMD model:
 Marenich, A.V.; Cramer, C.J.; Truhlar, D.G.
 J. Phys. Chem. B 2009, 113, 6378-6396.
 iSolventCode=           0
 Solvent: other                                                           
 
 vradii
            1           2           3           4           5           6
    1   2.2940000   1.8500000   1.8500000   2.2940000   2.1476001   1.2000000
            7           8           9          10
    1   1.2000000   1.7300000   1.2000000   2.1476001
 using 32 threads for integral computing
 -------------------------------------------------------
 OpenMP Integral computing Module                
 Release: version 1.0, May 2013, Q-Chem Inc. Pittsburgh 
 -------------------------------------------------------
 using 32 threads for integral computing
 -------------------------------------------------------
 OpenMP Integral computing Module                
 Release: version 1.0, May 2013, Q-Chem Inc. Pittsburgh 
 -------------------------------------------------------
 -------------------------------------------------------
 OpenMP BLAS3 based DFT computing Module                
 Release: version 1.0, May 2013, Q-Chem Inc. Pittsburgh 
 -------------------------------------------------------
 -------------------------------------------------------
 OpenMP BLAS3 based DFT computing Module                
 Release: version 1.0, May 2013, Q-Chem Inc. Pittsburgh 
 -------------------------------------------------------
 -------------------------------------------------------
 OpenMP BLAS3 based DFT computing Module                
 Release: version 1.0, May 2013, Q-Chem Inc. Pittsburgh 
 -------------------------------------------------------
 A restricted SCF calculation will be
 performed using DIIS
 SCF converges when DIIS error is below 1.0e-08
 ---------------------------------------
  Cycle       Energy         DIIS error
 ---------------------------------------
    1    -341.9097109266      2.27e-02  
    2    -343.1905720205      6.03e-03  
    3    -343.1472245607      6.96e-03  
    4    -343.4799352468      3.85e-04  
    5    -343.4805704706      2.63e-04  
    6    -343.4810050682      5.55e-05  
    7    -343.4810302862      1.03e-05  
    8    -343.4810315740      4.78e-06  
    9    -343.4810318122      1.56e-06  
   10    -343.4810318371      6.82e-07  
   11    -343.4810318438      1.04e-07  
   12    -343.4810318443      2.53e-08  
   13    -343.4810318443      6.92e-09  Convergence criterion met
 ---------------------------------------
 SCF time:   CPU 729.75s  wall 25.00s 
(3)  G-ENP(liq) elect-nuc-pol free energy of system     -343.481031844 a.u.
(4)  G-CDS(liq) cavity-dispersion-solvent structure 
     free energy                                               -0.6332 kcal/mol
(6)  G-S(liq) free energy of system                     -343.482040932 a.u.
 SCF   energy in the final basis set =     -343.4810318443
 Total energy in the final basis set =     -343.4820409320
 
 --------------------------------------------------------------
 
                    Orbital Energies (a.u.)
 --------------------------------------------------------------
 
 Alpha MOs
 -- Occupied --
-24.6883 -19.1324 -19.1093 -10.3372 -10.2666  -2.0953  -2.0776  -1.2554
 -1.0768  -1.0373  -0.7810  -0.6785  -0.5804  -0.5447  -0.5366  -0.4908
 -0.4812  -0.4445  -0.4402  -0.3655  -0.3433  -0.3073  -0.2956
 -- Virtual --
  0.0275   0.0289   0.0438   0.0453   0.0523   0.0542   0.0547   0.0702
  0.1161   0.1267   0.1276   0.1294   0.1406   0.1504   0.1528   0.1549
  0.1567   0.1612   0.1641   0.1849   0.1913   0.1994   0.2051   0.2167
  0.2202   0.2226   0.2324   0.2638   0.2709   0.3016   0.3193   0.3244
  0.3313   0.3410   0.3456   0.3540   0.3605   0.3727   0.3801   0.3849
  0.3908   0.3990   0.4062   0.4145   0.4212   0.4249   0.4328   0.4349
  0.4379   0.4420   0.4450   0.4539   0.4596   0.4648   0.4754   0.4790
  0.4920   0.5024   0.5045   0.5168   0.5250   0.5373   0.5445   0.5470
  0.5692   0.5800   0.5948   0.6095   0.6240   0.6258   0.6425   0.6541
  0.6759   0.6925   0.7069   0.7237   0.7290   0.7480   0.7562   0.7776
  0.7860   0.7895   0.7996   0.8288   0.8337   0.8652   0.8809   0.8968
  0.9028   0.9149   0.9198   0.9501   0.9686   0.9735   0.9954   1.0259
  1.0629   1.0760   1.0907   1.0944   1.1016   1.1171   1.1493   1.1683
  1.1928   1.2232   1.2422   1.2634   1.2685   1.2874   1.3161   1.3238
  1.3543   1.3598   1.3827   1.3901   1.4107   1.4322   1.4743   1.4899
  1.5074   1.5257   1.5773   1.6157   1.6768   1.7503   1.7572   1.7805
  1.8106   1.9289   1.9821   1.9982   2.0538   2.0787   2.0819   2.1020
  2.1483   2.1580   2.1862   2.2060   2.3066   2.3291   2.4134   2.4396
  2.4684   2.5186   2.5475   2.5783   2.6117   2.6436   2.6713   2.8017
  2.8181   2.8710   2.9040   2.9612   2.9833   3.0393   3.0791   3.1060
  3.1325   3.1776   3.2001   3.2659   3.2976   3.3024   3.3141   3.3576
  3.3834   3.4188   3.4240   3.4680   3.4906   3.5256   3.5531   3.5679
  3.6149   3.6266   3.6912   3.7322   3.7957   3.8161   3.8239   3.8537
  3.8784   3.9806   4.0161   4.0556   4.0884   4.1157   4.1628   4.2146
  4.2220   4.3102   4.3392   4.3817   4.4044   4.4685   4.4858   4.5325
  4.6601   4.7654   4.7933   4.8268   4.9358   4.9836   5.0143   5.0371
  5.1510   5.1639   5.2138   5.2667   5.3382   5.3578   5.3839   5.4530
  5.5160   5.5369   5.5899   5.6422   5.6675   5.7364   5.7539   5.7965
  5.9183   6.1280   6.1365   6.1609   6.1696   6.1938   6.2107   6.2281
  6.2424   6.2878   6.3655   6.6406   6.6546   6.7170   6.7515   6.7707
  6.8062   6.9979   7.0505   7.0662   7.1146   7.1338   7.1672   7.2173
  7.2651   7.3880   7.3973   7.4444   7.4853   7.5372   8.7145   8.7606
  8.9891   9.0019   9.4660  15.1984  15.2398  23.3864  23.6624  44.2367
 44.3906  57.6046
 --------------------------------------------------------------
 
          Ground-State Mulliken Net Atomic Charges

     Atom                 Charge (a.u.)
  ----------------------------------------
      1 O                    -0.918023
      2 C                    -0.004470
      3 C                     0.432946
      4 O                    -0.913334
      5 Li                    0.877555
      6 H                     0.021791
      7 H                     0.004086
      8 F                    -0.389180
      9 H                    -0.004590
     10 Li                    0.893219
  ----------------------------------------
  Sum of atomic charges =     0.000000

  Building new vdw surfaces
         Merz-Kollman RESP Net Atomic Charges

     Atom                 Charge (a.u.)
  ----------------------------------------
      1 O                    -0.991743
      2 C                    -0.010445
      3 C                     0.714793
      4 O                    -1.115847
      5 Li                    0.855500
      6 H                     0.054189
      7 H                     0.054189
      8 F                    -0.459655
      9 H                    -0.018763
     10 Li                    0.917783
  ----------------------------------------
  Sum of atomic charges =     0.000000

  Related Dipole Moment =     2.5069 (X -0.4414 Y -1.9591 Z -1.5005)

 -----------------------------------------------------------------
                    Cartesian Multipole Moments
 -----------------------------------------------------------------
    Charge (ESU x 10^10)
                 0.0000
    Dipole Moment (Debye)
         X      -0.4082      Y      -1.9029      Z      -1.4458
       Tot       2.4244
    Quadrupole Moments (Debye-Ang)
        XX     -23.9046     XY     -31.6924     YY      16.4434
        XZ      -3.6876     YZ      -2.2842     ZZ     -37.2448
    Octopole Moments (Debye-Ang^2)
       XXX     -63.8570    XXY     -56.7103    XYY      11.5566
       YYY     -11.2936    XXZ      -9.9850    XYZ      -6.5856
       YYZ      -1.4216    XZZ     -35.8985    YZZ      -4.8485
       ZZZ     -14.0293
    Hexadecapole Moments (Debye-Ang^3)
      XXXX    -368.4737   XXXY    -126.2125   XXYY     120.4453
      XYYY    -277.6613   YYYY     278.9606   XXXZ     -39.0170
      XXYZ     -17.3523   XYYZ      -5.4777   YYYZ     -16.3591
      XXZZ    -106.0577   XYZZ      21.0013   YYZZ     -62.1361
      XZZZ     -33.2692   YZZZ     -13.4172   ZZZZ     -96.7671
 -----------------------------------------------------------------
 Calculating analytic gradient of the SCF energy
 Gradient of CDS energy
            1           2           3           4           5           6
    1   0.0001594  -0.0012968   0.0007796  -0.0001317   0.0000833   0.0003776
    2   0.0010579  -0.0008804   0.0002364  -0.0005669  -0.0003546  -0.0000572
    3   0.0000253  -0.0000474  -0.0006455   0.0003279  -0.0000303   0.0001260
            7           8           9          10
    1   0.0004224   0.0000196  -0.0002626  -0.0001509
    2   0.0000052  -0.0000152   0.0001909   0.0003840
    3  -0.0000751   0.0001084   0.0002522  -0.0000415
 Gradient of SCF Energy
            1           2           3           4           5           6
    1   0.0075731  -0.0075890   0.0058794  -0.0075269  -0.0047901   0.0035724
    2  -0.0124588  -0.0019138  -0.0030399   0.0168026   0.0095454   0.0031619
    3   0.0014860   0.0020520  -0.0071792   0.0025003  -0.0008258   0.0077190
            7           8           9          10
    1   0.0028441  -0.0009246  -0.0025649   0.0035265
    2   0.0036808  -0.0008155  -0.0044537  -0.0105091
    3  -0.0097908  -0.0010275   0.0056068  -0.0005407
 Max gradient component =       1.680E-02
 RMS gradient           =       6.374E-03
 Computing fast CPCM-SWIG gradient
 Updating gradient with PCM contributions...
 -- total gradient after adding PCM contribution --
---------------------------------------------------
  Atom         X              Y              Z     
---------------------------------------------------
   1       0.000382      -0.000297      -0.000276
   2      -0.000284       0.000111       0.000143
   3      -0.000045       0.000069      -0.000019
   4       0.000085       0.000109       0.000095
   5      -0.000097       0.000032       0.000117
   6       0.000018       0.000001       0.000007
   7       0.000020       0.000005      -0.000021
   8      -0.000028      -0.000016      -0.000018
   9       0.000002      -0.000007      -0.000000
  10      -0.000052      -0.000008      -0.000027
---------------------------------------------------
 Number of fixed atoms: 0
 Gradient time:  CPU 152.02 s  wall 7.17 s
 ----------------------------------------------------------------
             Standard Nuclear Orientation (Angstroms)
    I     Atom           X                Y                Z
 ----------------------------------------------------------------
    1      O      -0.5751620000     1.2402830000    -0.0725710000
    2      C      -0.0348010000    -0.0161700000    -0.0190530000
    3      C       1.4924970000    -0.0670660000    -0.0948500000
    4      O       2.0100290000    -1.2753940000    -0.1296980000
    5      Li     -1.0556250000     2.8018570000     0.0009580000
    6      H      -0.3783470000    -0.6527700000    -0.8593740000
    7      H      -0.3088140000    -0.5625060000     0.9070080000
    8      F       1.9761310000     0.6348910000     1.1205810000
    9      H       1.8592770000     0.6091610000    -0.8894920000
   10      Li      2.6138150000    -2.8122960000     0.0364910000
 ----------------------------------------------------------------
 Nuclear Repulsion Energy =         214.69238213 hartrees
 There are       23 alpha and       23 beta electrons
 Discretize the solute cavity surface with Lebedev spheres
	Using 110 Lebedev grid points for each H atom
	Using 194 Lebedev grid points for other atoms
	Atomic van der Waals radii will be scaled by 1.20
 Remove points where switching function is < 1.0e-08
 Keep 846 surface tesserae and discard 842 interior tesserae
 Molecular Surface Area = 167.946 Angst**2

                       Distance Matrix (Angstroms)
             O (  1)   C (  2)   C (  3)   O (  4)   Li(  5)   H (  6)
   C (  2)  1.368769
   C (  3)  2.446400  1.530024
   O (  4)  3.607646  2.404000  1.314956
   Li(  5)  1.635471  2.997292  3.838336  5.102870
   H (  6)  2.059477  1.108793  2.104187  2.573796  3.623993
   H (  7)  2.068953  1.109574  2.119882  2.638181  3.563368  1.770053
   F (  8)  2.880834  2.401352  1.484560  2.283317  3.891123  3.334945
   H (  9)  2.644271  2.176289  1.106014  2.037538  3.754660  2.569112
   Li( 10)  5.157990  3.851827  2.968315  1.659592  6.707068  3.797257
             H (  7)   F (  8)   H (  9)
   F (  8)  2.588503
   H (  9)  3.049727  2.013631
   Li( 10)  3.789606  3.669467  3.623967
 
 Requested basis set is def2-TZVPPD
 There are 109 shells and 289 basis functions
 A cutoff of  1.0D-14 yielded   5702 shell pairs
 There are     40932 function pairs (     51615 Cartesian)
 Smallest overlap matrix eigenvalue = 1.55E-05
 Guess from superposition of atomic densities
 Warning:  Energy on first SCF cycle will be non-variational
 SAD guess density has 46.000000 electrons

 -----------------------------------------------------------------------
  General SCF calculation program by
  Eric Jon Sundstrom, Paul Horn, Yuezhi Mao, Dmitri Zuev, Alec White,
  David Stuck, Shaama M.S., Shane Yost, Joonho Lee, David Small,
  Daniel Levine, Susi Lehtola, Hugh Burton, Evgeny Epifanovsky,
  Bang C. Huynh
 -----------------------------------------------------------------------
 Exchange:     0.1670 Hartree-Fock + 1.0000 wB97X-V + LR-HF
 Correlation:  1.0000 wB97X-V
 Using SG-3 standard quadrature grid
 Nonlocal Correlation:  VV10 with C = 0.0100 and b = 6.00 and scale = 1.00000
 Grid used for NLC:  SG-1 standard quadrature
 
 Citation of the SMD model:
 Marenich, A.V.; Cramer, C.J.; Truhlar, D.G.
 J. Phys. Chem. B 2009, 113, 6378-6396.
 iSolventCode=           0
 Solvent: other                                                           
 
 vradii
            1           2           3           4           5           6
    1   2.2940000   1.8500000   1.8500000   2.2940000   2.1476001   1.2000000
            7           8           9          10
    1   1.2000000   1.7300000   1.2000000   2.1476001
 using 32 threads for integral computing
 -------------------------------------------------------
 OpenMP Integral computing Module                
 Release: version 1.0, May 2013, Q-Chem Inc. Pittsburgh 
 -------------------------------------------------------
 using 32 threads for integral computing
 -------------------------------------------------------
 OpenMP Integral computing Module                
 Release: version 1.0, May 2013, Q-Chem Inc. Pittsburgh 
 -------------------------------------------------------
 -------------------------------------------------------
 OpenMP BLAS3 based DFT computing Module                
 Release: version 1.0, May 2013, Q-Chem Inc. Pittsburgh 
 -------------------------------------------------------
 -------------------------------------------------------
 OpenMP BLAS3 based DFT computing Module                
 Release: version 1.0, May 2013, Q-Chem Inc. Pittsburgh 
 -------------------------------------------------------
 -------------------------------------------------------
 OpenMP BLAS3 based DFT computing Module                
 Release: version 1.0, May 2013, Q-Chem Inc. Pittsburgh 
 -------------------------------------------------------
 A restricted SCF calculation will be
 performed using DIIS
 SCF converges when DIIS error is below 1.0e-08
 ---------------------------------------
  Cycle       Energy         DIIS error
 ---------------------------------------
    1    -341.9078685395      2.27e-02  
    2    -343.1905153646      6.03e-03  
    3    -343.1470475904      6.96e-03  
    4    -343.4799321825      3.85e-04  
    5    -343.4805690287      2.63e-04  
    6    -343.4810050120      5.55e-05  
    7    -343.4810302399      1.04e-05  
    8    -343.4810315322      4.80e-06  
    9    -343.4810317718      1.57e-06  
   10    -343.4810317970      6.79e-07  
   11    -343.4810318037      1.04e-07  
   12    -343.4810318042      2.53e-08  
   13    -343.4810318042      6.93e-09  Convergence criterion met
 ---------------------------------------
 SCF time:   CPU 731.39s  wall 24.00s 
(3)  G-ENP(liq) elect-nuc-pol free energy of system     -343.481031804 a.u.
(4)  G-CDS(liq) cavity-dispersion-solvent structure 
     free energy                                               -0.6336 kcal/mol
(6)  G-S(liq) free energy of system                     -343.482041488 a.u.
 SCF   energy in the final basis set =     -343.4810318042
 Total energy in the final basis set =     -343.4820414876
 
 --------------------------------------------------------------
 
                    Orbital Energies (a.u.)
 --------------------------------------------------------------
 
 Alpha MOs
 -- Occupied --
-24.6883 -19.1325 -19.1093 -10.3373 -10.2667  -2.0954  -2.0775  -1.2554
 -1.0768  -1.0370  -0.7811  -0.6785  -0.5804  -0.5448  -0.5366  -0.4907
 -0.4811  -0.4445  -0.4402  -0.3655  -0.3434  -0.3073  -0.2957
 -- Virtual --
  0.0275   0.0289   0.0438   0.0453   0.0523   0.0542   0.0547   0.0702
  0.1161   0.1267   0.1276   0.1294   0.1406   0.1504   0.1528   0.1549
  0.1567   0.1612   0.1642   0.1849   0.1913   0.1994   0.2051   0.2166
  0.2202   0.2226   0.2324   0.2638   0.2709   0.3016   0.3193   0.3244
  0.3312   0.3409   0.3455   0.3540   0.3604   0.3727   0.3800   0.3850
  0.3908   0.3990   0.4060   0.4145   0.4212   0.4249   0.4328   0.4348
  0.4379   0.4420   0.4450   0.4539   0.4596   0.4648   0.4754   0.4790
  0.4919   0.5024   0.5044   0.5168   0.5250   0.5373   0.5445   0.5469
  0.5692   0.5800   0.5948   0.6095   0.6240   0.6258   0.6425   0.6540
  0.6758   0.6925   0.7068   0.7237   0.7289   0.7482   0.7560   0.7776
  0.7860   0.7895   0.7996   0.8287   0.8337   0.8652   0.8808   0.8968
  0.9027   0.9148   0.9197   0.9501   0.9686   0.9736   0.9952   1.0259
  1.0629   1.0760   1.0905   1.0944   1.1016   1.1171   1.1493   1.1681
  1.1928   1.2231   1.2422   1.2633   1.2684   1.2873   1.3160   1.3236
  1.3542   1.3597   1.3825   1.3903   1.4107   1.4321   1.4742   1.4899
  1.5074   1.5257   1.5772   1.6155   1.6767   1.7502   1.7572   1.7804
  1.8101   1.9289   1.9821   1.9983   2.0537   2.0781   2.0817   2.1018
  2.1481   2.1578   2.1861   2.2058   2.3064   2.3290   2.4134   2.4397
  2.4685   2.5184   2.5474   2.5783   2.6116   2.6439   2.6712   2.8014
  2.8181   2.8710   2.9039   2.9611   2.9833   3.0388   3.0789   3.1054
  3.1323   3.1775   3.2000   3.2657   3.2974   3.3023   3.3139   3.3575
  3.3834   3.4183   3.4240   3.4680   3.4904   3.5255   3.5529   3.5678
  3.6148   3.6265   3.6911   3.7321   3.7956   3.8159   3.8238   3.8535
  3.8782   3.9801   4.0161   4.0552   4.0883   4.1158   4.1626   4.2146
  4.2218   4.3098   4.3391   4.3815   4.4041   4.4684   4.4856   4.5324
  4.6597   4.7655   4.7935   4.8269   4.9355   4.9837   5.0142   5.0365
  5.1512   5.1640   5.2138   5.2668   5.3381   5.3576   5.3838   5.4528
  5.5158   5.5370   5.5899   5.6421   5.6675   5.7359   5.7529   5.7961
  5.9177   6.1274   6.1362   6.1606   6.1695   6.1936   6.2108   6.2278
  6.2418   6.2865   6.3655   6.6404   6.6538   6.7170   6.7512   6.7706
  6.8059   6.9979   7.0504   7.0661   7.1143   7.1333   7.1664   7.2171
  7.2651   7.3880   7.3972   7.4443   7.4857   7.5372   8.7145   8.7606
  8.9891   9.0019   9.4659  15.1983  15.2400  23.3862  23.6601  44.2358
 44.3901  57.6044
 --------------------------------------------------------------
 
          Ground-State Mulliken Net Atomic Charges

     Atom                 Charge (a.u.)
  ----------------------------------------
      1 O                    -0.917752
      2 C                    -0.004607
      3 C                     0.432687
      4 O                    -0.913097
      5 Li                    0.877356
      6 H                     0.021974
      7 H                     0.004121
      8 F                    -0.389160
      9 H                    -0.004754
     10 Li                    0.893231
  ----------------------------------------
  Sum of atomic charges =     0.000000

  Building new vdw surfaces
         Merz-Kollman RESP Net Atomic Charges

     Atom                 Charge (a.u.)
  ----------------------------------------
      1 O                    -0.990756
      2 C                    -0.013827
      3 C                     0.714942
      4 O                    -1.115594
      5 Li                    0.855247
      6 H                     0.055191
      7 H                     0.055191
      8 F                    -0.459574
      9 H                    -0.018638
     10 Li                    0.917817
  ----------------------------------------
  Sum of atomic charges =     0.000000

  Related Dipole Moment =     2.5086 (X -0.4302 Y -1.9636 Z -1.5007)

 -----------------------------------------------------------------
                    Cartesian Multipole Moments
 -----------------------------------------------------------------
    Charge (ESU x 10^10)
                -0.0000
    Dipole Moment (Debye)
         X      -0.3972      Y      -1.9072      Z      -1.4459
       Tot       2.4261
    Quadrupole Moments (Debye-Ang)
        XX     -23.9112     XY     -31.6810     YY      16.4428
        XZ      -3.6882     YZ      -2.2840     ZZ     -37.2441
    Octopole Moments (Debye-Ang^2)
       XXX     -63.7813    XXY     -56.7351    XYY      11.5958
       YYY     -11.3115    XXZ      -9.9840    XYZ      -6.5863
       YYZ      -1.4220    XZZ     -35.8802    YZZ      -4.8541
       ZZZ     -14.0285
    Hexadecapole Moments (Debye-Ang^3)
      XXXX    -368.5342   XXXY    -126.1586   XXYY     120.4247
      XYYY    -277.5874   YYYY     278.9535   XXXZ     -39.0194
      XXYZ     -17.3505   XYYZ      -5.4804   YYYZ     -16.3574
      XXZZ    -106.0689   XYZZ      21.0230   YYZZ     -62.1359
      XZZZ     -33.2716   YZZZ     -13.4164   ZZZZ     -96.7615
 -----------------------------------------------------------------
 Calculating analytic gradient of the SCF energy
 Gradient of CDS energy
            1           2           3           4           5           6
    1   0.0001558  -0.0012924   0.0007793  -0.0001317   0.0000815   0.0003776
    2   0.0010634  -0.0008855   0.0002369  -0.0005669  -0.0003538  -0.0000572
    3   0.0000254  -0.0000472  -0.0006455   0.0003279  -0.0000308   0.0001260
            7           8           9          10
    1   0.0004224   0.0000205  -0.0002621  -0.0001509
    2   0.0000052  -0.0000164   0.0001903   0.0003840
    3  -0.0000751   0.0001086   0.0002523  -0.0000415
 Gradient of SCF Energy
            1           2           3           4           5           6
    1   0.0071064  -0.0071850   0.0058727  -0.0074637  -0.0047238   0.0035401
    2  -0.0118331  -0.0022161  -0.0031631   0.0167588   0.0094050   0.0031478
    3   0.0014692   0.0020671  -0.0071686   0.0024983  -0.0008326   0.0076810
            7           8           9          10
    1   0.0028245  -0.0009210  -0.0025752   0.0035249
    2   0.0036615  -0.0008209  -0.0044397  -0.0105003
    3  -0.0097536  -0.0010232   0.0056044  -0.0005420
 Max gradient component =       1.676E-02
 RMS gradient           =       6.285E-03
 Computing fast CPCM-SWIG gradient
 Updating gradient with PCM contributions...
 -- total gradient after adding PCM contribution --
---------------------------------------------------
  Atom         X              Y              Z     
---------------------------------------------------
   1      -0.000088       0.000327      -0.000292
   2       0.000126      -0.000155       0.000150
   3      -0.000028      -0.000088      -0.000006
   4       0.000147       0.000070       0.000095
   5      -0.000047      -0.000109       0.000110
   6      -0.000016      -0.000010      -0.000021
   7      -0.000005      -0.000006       0.000008
   8      -0.000023      -0.000024      -0.000016
   9      -0.000012      -0.000004       0.000002
  10      -0.000054      -0.000002      -0.000028
---------------------------------------------------
 Number of fixed atoms: 0
 Gradient time:  CPU 149.49 s  wall 7.04 s
 ----------------------------------------------------------------
             Standard Nuclear Orientation (Angstroms)
    I     Atom           X                Y                Z
 ----------------------------------------------------------------
    1      O      -0.5741620000     1.2412830000    -0.0725710000
    2      C      -0.0348010000    -0.0161700000    -0.0190530000
    3      C       1.4924970000    -0.0670660000    -0.0948500000
    4      O       2.0100290000    -1.2753940000    -0.1296980000
    5      Li     -1.0556250000     2.8018570000     0.0009580000
    6      H      -0.3783470000    -0.6527700000    -0.8593740000
    7      H      -0.3088140000    -0.5625060000     0.9070080000
    8      F       1.9761310000     0.6348910000     1.1205810000
    9      H       1.8592770000     0.6091610000    -0.8894920000
   10      Li      2.6138150000    -2.8122960000     0.0364910000
 ----------------------------------------------------------------
 Nuclear Repulsion Energy =         214.69166485 hartrees
 There are       23 alpha and       23 beta electrons
 Discretize the solute cavity surface with Lebedev spheres
	Using 110 Lebedev grid points for each H atom
	Using 194 Lebedev grid points for other atoms
	Atomic van der Waals radii will be scaled by 1.20
 Remove points where switching function is < 1.0e-08
 Keep 846 surface tesserae and discard 842 interior tesserae
 Molecular Surface Area = 167.933 Angst**2

                       Distance Matrix (Angstroms)
             O (  1)   C (  2)   C (  3)   O (  4)   Li(  5)   H (  6)
   C (  2)  1.369293
   C (  3)  2.446089  1.530024
   O (  4)  3.607627  2.404000  1.314956
   Li(  5)  1.634810  2.997292  3.838336  5.102870
   H (  6)  2.060301  1.108793  2.104187  2.573796  3.623993
   H (  7)  2.069695  1.109574  2.119882  2.638181  3.563368  1.770053
   F (  8)  2.880159  2.401352  1.484560  2.283317  3.891123  3.334945
   H (  9)  2.643589  2.176289  1.106014  2.037538  3.754660  2.569112
   Li( 10)  5.158158  3.851827  2.968315  1.659592  6.707068  3.797257
             H (  7)   F (  8)   H (  9)
   F (  8)  2.588503
   H (  9)  3.049727  2.013631
   Li( 10)  3.789606  3.669467  3.623967
 
 Requested basis set is def2-TZVPPD
 There are 109 shells and 289 basis functions
 A cutoff of  1.0D-14 yielded   5702 shell pairs
 There are     40932 function pairs (     51615 Cartesian)
 Smallest overlap matrix eigenvalue = 1.55E-05
 Guess from superposition of atomic densities
 Warning:  Energy on first SCF cycle will be non-variational
 SAD guess density has 46.000000 electrons

 -----------------------------------------------------------------------
  General SCF calculation program by
  Eric Jon Sundstrom, Paul Horn, Yuezhi Mao, Dmitri Zuev, Alec White,
  David Stuck, Shaama M.S., Shane Yost, Joonho Lee, David Small,
  Daniel Levine, Susi Lehtola, Hugh Burton, Evgeny Epifanovsky,
  Bang C. Huynh
 -----------------------------------------------------------------------
 Exchange:     0.1670 Hartree-Fock + 1.0000 wB97X-V + LR-HF
 Correlation:  1.0000 wB97X-V
 Using SG-3 standard quadrature grid
 Nonlocal Correlation:  VV10 with C = 0.0100 and b = 6.00 and scale = 1.00000
 Grid used for NLC:  SG-1 standard quadrature
 
 Citation of the SMD model:
 Marenich, A.V.; Cramer, C.J.; Truhlar, D.G.
 J. Phys. Chem. B 2009, 113, 6378-6396.
 iSolventCode=           0
 Solvent: other                                                           
 
 vradii
            1           2           3           4           5           6
    1   2.2940000   1.8500000   1.8500000   2.2940000   2.1476001   1.2000000
            7           8           9          10
    1   1.2000000   1.7300000   1.2000000   2.1476001
 using 32 threads for integral computing
 -------------------------------------------------------
 OpenMP Integral computing Module                
 Release: version 1.0, May 2013, Q-Chem Inc. Pittsburgh 
 -------------------------------------------------------
 using 32 threads for integral computing
 -------------------------------------------------------
 OpenMP Integral computing Module                
 Release: version 1.0, May 2013, Q-Chem Inc. Pittsburgh 
 -------------------------------------------------------
 -------------------------------------------------------
 OpenMP BLAS3 based DFT computing Module                
 Release: version 1.0, May 2013, Q-Chem Inc. Pittsburgh 
 -------------------------------------------------------
 -------------------------------------------------------
 OpenMP BLAS3 based DFT computing Module                
 Release: version 1.0, May 2013, Q-Chem Inc. Pittsburgh 
 -------------------------------------------------------
 -------------------------------------------------------
 OpenMP BLAS3 based DFT computing Module                
 Release: version 1.0, May 2013, Q-Chem Inc. Pittsburgh 
 -------------------------------------------------------
 A restricted SCF calculation will be
 performed using DIIS
 SCF converges when DIIS error is below 1.0e-08
 ---------------------------------------
  Cycle       Energy         DIIS error
 ---------------------------------------
    1    -341.9081231858      2.27e-02  
    2    -343.1904538821      6.03e-03  
    3    -343.1469507691      6.96e-03  
    4    -343.4799320446      3.86e-04  
    5    -343.4805696368      2.64e-04  
    6    -343.4810063941      5.55e-05  
    7    -343.4810316247      1.04e-05  
    8    -343.4810329182      4.82e-06  
    9    -343.4810331589      1.57e-06  
   10    -343.4810331843      6.78e-07  
   11    -343.4810331909      1.04e-07  
   12    -343.4810331915      2.53e-08  
   13    -343.4810331915      6.94e-09  Convergence criterion met
 ---------------------------------------
 SCF time:   CPU 732.95s  wall 24.00s 
(3)  G-ENP(liq) elect-nuc-pol free energy of system     -343.481033191 a.u.
(4)  G-CDS(liq) cavity-dispersion-solvent structure 
     free energy                                               -0.6321 kcal/mol
(6)  G-S(liq) free energy of system                     -343.482040571 a.u.
 SCF   energy in the final basis set =     -343.4810331915
 Total energy in the final basis set =     -343.4820405706
 
 --------------------------------------------------------------
 
                    Orbital Energies (a.u.)
 --------------------------------------------------------------
 
 Alpha MOs
 -- Occupied --
-24.6883 -19.1325 -19.1094 -10.3373 -10.2667  -2.0954  -2.0774  -1.2554
 -1.0768  -1.0368  -0.7811  -0.6785  -0.5804  -0.5448  -0.5365  -0.4907
 -0.4810  -0.4445  -0.4402  -0.3655  -0.3433  -0.3074  -0.2957
 -- Virtual --
  0.0275   0.0289   0.0438   0.0453   0.0523   0.0542   0.0547   0.0702
  0.1161   0.1267   0.1276   0.1294   0.1406   0.1504   0.1528   0.1549
  0.1567   0.1613   0.1642   0.1849   0.1913   0.1994   0.2051   0.2167
  0.2202   0.2226   0.2324   0.2638   0.2709   0.3016   0.3193   0.3244
  0.3312   0.3410   0.3455   0.3540   0.3604   0.3727   0.3800   0.3849
  0.3907   0.3989   0.4060   0.4145   0.4211   0.4248   0.4328   0.4348
  0.4379   0.4420   0.4450   0.4539   0.4596   0.4648   0.4754   0.4790
  0.4919   0.5024   0.5045   0.5169   0.5250   0.5373   0.5446   0.5469
  0.5691   0.5800   0.5948   0.6094   0.6240   0.6258   0.6425   0.6540
  0.6758   0.6925   0.7068   0.7237   0.7289   0.7481   0.7561   0.7776
  0.7860   0.7895   0.7996   0.8287   0.8337   0.8652   0.8808   0.8967
  0.9028   0.9149   0.9198   0.9501   0.9686   0.9736   0.9953   1.0259
  1.0629   1.0760   1.0906   1.0944   1.1017   1.1171   1.1493   1.1682
  1.1928   1.2232   1.2422   1.2633   1.2684   1.2873   1.3161   1.3237
  1.3543   1.3597   1.3826   1.3901   1.4107   1.4321   1.4743   1.4898
  1.5073   1.5256   1.5771   1.6156   1.6767   1.7502   1.7571   1.7804
  1.8103   1.9289   1.9821   1.9982   2.0537   2.0782   2.0817   2.1018
  2.1481   2.1578   2.1860   2.2058   2.3062   2.3289   2.4133   2.4393
  2.4684   2.5185   2.5474   2.5784   2.6116   2.6441   2.6712   2.8013
  2.8181   2.8709   2.9039   2.9611   2.9832   3.0387   3.0788   3.1056
  3.1321   3.1774   3.1999   3.2657   3.2975   3.3023   3.3139   3.3575
  3.3833   3.4184   3.4239   3.4679   3.4903   3.5255   3.5529   3.5677
  3.6148   3.6265   3.6911   3.7320   3.7955   3.8158   3.8236   3.8535
  3.8780   3.9800   4.0161   4.0550   4.0882   4.1155   4.1625   4.2145
  4.2218   4.3099   4.3391   4.3815   4.4042   4.4682   4.4855   4.5323
  4.6598   4.7654   4.7932   4.8269   4.9356   4.9835   5.0143   5.0368
  5.1502   5.1639   5.2138   5.2669   5.3381   5.3578   5.3838   5.4525
  5.5158   5.5365   5.5898   5.6419   5.6674   5.7359   5.7529   5.7957
  5.9173   6.1274   6.1357   6.1604   6.1695   6.1936   6.2108   6.2277
  6.2418   6.2860   6.3651   6.6400   6.6537   6.7170   6.7510   6.7705
  6.8057   6.9978   7.0504   7.0662   7.1139   7.1327   7.1663   7.2171
  7.2650   7.3879   7.3972   7.4443   7.4863   7.5372   8.7145   8.7606
  8.9891   9.0019   9.4659  15.1988  15.2410  23.3862  23.6587  44.2359
 44.3899  57.6045
 --------------------------------------------------------------
 
          Ground-State Mulliken Net Atomic Charges

     Atom                 Charge (a.u.)
  ----------------------------------------
      1 O                    -0.917719
      2 C                    -0.004733
      3 C                     0.432785
      4 O                    -0.913180
      5 Li                    0.877260
      6 H                     0.022016
      7 H                     0.004206
      8 F                    -0.389158
      9 H                    -0.004715
     10 Li                    0.893238
  ----------------------------------------
  Sum of atomic charges =     0.000000

  Building new vdw surfaces
         Merz-Kollman RESP Net Atomic Charges

     Atom                 Charge (a.u.)
  ----------------------------------------
      1 O                    -0.992214
      2 C                    -0.011376
      3 C                     0.715013
      4 O                    -1.115822
      5 Li                    0.855467
      6 H                     0.054713
      7 H                     0.054713
      8 F                    -0.459631
      9 H                    -0.018702
     10 Li                    0.917839
  ----------------------------------------
  Sum of atomic charges =     0.000000

  Related Dipole Moment =     2.5146 (X -0.4335 Y -1.9708 Z -1.5004)

 -----------------------------------------------------------------
                    Cartesian Multipole Moments
 -----------------------------------------------------------------
    Charge (ESU x 10^10)
                 0.0000
    Dipole Moment (Debye)
         X      -0.4003      Y      -1.9147      Z      -1.4457
       Tot       2.4323
    Quadrupole Moments (Debye-Ang)
        XX     -23.9076     XY     -31.6815     YY      16.4286
        XZ      -3.6881     YZ      -2.2835     ZZ     -37.2431
    Octopole Moments (Debye-Ang^2)
       XXX     -63.8052    XXY     -56.7388    XYY      11.5907
       YYY     -11.3714    XXZ      -9.9846    XYZ      -6.5864
       YYZ      -1.4208    XZZ     -35.8868    YZZ      -4.8649
       ZZZ     -14.0281
    Hexadecapole Moments (Debye-Ang^3)
      XXXX    -368.4869   XXXY    -126.1688   XXYY     120.4117
      XYYY    -277.5874   YYYY     278.7795   XXXZ     -39.0194
      XXYZ     -17.3501   XYYZ      -5.4800   YYYZ     -16.3534
      XXZZ    -106.0607   XYZZ      21.0199   YYZZ     -62.1539
      XZZZ     -33.2707   YZZZ     -13.4146   ZZZZ     -96.7563
 -----------------------------------------------------------------
 Calculating analytic gradient of the SCF energy
 Gradient of CDS energy
            1           2           3           4           5           6
    1   0.0001549  -0.0012923   0.0007796  -0.0001317   0.0000827   0.0003776
    2   0.0010646  -0.0008873   0.0002364  -0.0005669  -0.0003537  -0.0000572
    3   0.0000250  -0.0000471  -0.0006455   0.0003279  -0.0000303   0.0001260
            7           8           9          10
    1   0.0004224   0.0000200  -0.0002623  -0.0001509
    2   0.0000052  -0.0000157   0.0001906   0.0003840
    3  -0.0000751   0.0001084   0.0002523  -0.0000415
 Gradient of SCF Energy
            1           2           3           4           5           6
    1   0.0070279  -0.0072000   0.0058753  -0.0074678  -0.0046889   0.0035723
    2  -0.0112650  -0.0025567  -0.0031318   0.0167723   0.0092563   0.0030748
    3   0.0014629   0.0020749  -0.0071705   0.0024962  -0.0008367   0.0076676
            7           8           9          10
    1   0.0028501  -0.0009206  -0.0025690   0.0035207
    2   0.0035993  -0.0008063  -0.0044418  -0.0105012
    3  -0.0097341  -0.0010196   0.0056011  -0.0005419
 Max gradient component =       1.677E-02
 RMS gradient           =       6.241E-03
 Computing fast CPCM-SWIG gradient
 Updating gradient with PCM contributions...
 -- total gradient after adding PCM contribution --
---------------------------------------------------
  Atom         X              Y              Z     
---------------------------------------------------
   1      -0.000164       0.000896      -0.000298
   2       0.000083      -0.000507       0.000159
   3      -0.000023      -0.000050      -0.000014
   4       0.000135       0.000083       0.000094
   5      -0.000006      -0.000249       0.000105
   6       0.000025      -0.000087      -0.000027
   7       0.000031      -0.000072       0.000022
   8      -0.000023      -0.000012      -0.000010
   9      -0.000004       0.000000      -0.000003
  10      -0.000055      -0.000002      -0.000028
---------------------------------------------------
 Number of fixed atoms: 0
 Gradient time:  CPU 150.95 s  wall 7.11 s
 ----------------------------------------------------------------
             Standard Nuclear Orientation (Angstroms)
    I     Atom           X                Y                Z
 ----------------------------------------------------------------
    1      O      -0.5741620000     1.2392830000    -0.0725710000
    2      C      -0.0348010000    -0.0161700000    -0.0190530000
    3      C       1.4924970000    -0.0670660000    -0.0948500000
    4      O       2.0100290000    -1.2753940000    -0.1296980000
    5      Li     -1.0556250000     2.8018570000     0.0009580000
    6      H      -0.3783470000    -0.6527700000    -0.8593740000
    7      H      -0.3088140000    -0.5625060000     0.9070080000
    8      F       1.9761310000     0.6348910000     1.1205810000
    9      H       1.8592770000     0.6091610000    -0.8894920000
   10      Li      2.6138150000    -2.8122960000     0.0364910000
 ----------------------------------------------------------------
 Nuclear Repulsion Energy =         214.72221620 hartrees
 There are       23 alpha and       23 beta electrons
 Discretize the solute cavity surface with Lebedev spheres
	Using 110 Lebedev grid points for each H atom
	Using 194 Lebedev grid points for other atoms
	Atomic van der Waals radii will be scaled by 1.20
 Remove points where switching function is < 1.0e-08
 Keep 846 surface tesserae and discard 842 interior tesserae
 Molecular Surface Area = 167.935 Angst**2

                       Distance Matrix (Angstroms)
             O (  1)   C (  2)   C (  3)   O (  4)   Li(  5)   H (  6)
   C (  2)  1.367456
   C (  3)  2.445020  1.530024
   O (  4)  3.606232  2.404000  1.314956
   Li(  5)  1.636719  2.997292  3.838336  5.102870
   H (  6)  2.058462  1.108793  2.104187  2.573796  3.623993
   H (  7)  2.067953  1.109574  2.119882  2.638181  3.563368  1.770053
   F (  8)  2.879739  2.401352  1.484560  2.283317  3.891123  3.334945
   H (  9)  2.643112  2.176289  1.106014  2.037538  3.754660  2.569112
   Li( 10)  5.156586  3.851827  2.968315  1.659592  6.707068  3.797257
             H (  7)   F (  8)   H (  9)
   F (  8)  2.588503
   H (  9)  3.049727  2.013631
   Li( 10)  3.789606  3.669467  3.623967
 
 Requested basis set is def2-TZVPPD
 There are 109 shells and 289 basis functions
 A cutoff of  1.0D-14 yielded   5702 shell pairs
 There are     40932 function pairs (     51615 Cartesian)
 Smallest overlap matrix eigenvalue = 1.55E-05
 Guess from superposition of atomic densities
 Warning:  Energy on first SCF cycle will be non-variational
 SAD guess density has 46.000000 electrons

 -----------------------------------------------------------------------
  General SCF calculation program by
  Eric Jon Sundstrom, Paul Horn, Yuezhi Mao, Dmitri Zuev, Alec White,
  David Stuck, Shaama M.S., Shane Yost, Joonho Lee, David Small,
  Daniel Levine, Susi Lehtola, Hugh Burton, Evgeny Epifanovsky,
  Bang C. Huynh
 -----------------------------------------------------------------------
 Exchange:     0.1670 Hartree-Fock + 1.0000 wB97X-V + LR-HF
 Correlation:  1.0000 wB97X-V
 Using SG-3 standard quadrature grid
 Nonlocal Correlation:  VV10 with C = 0.0100 and b = 6.00 and scale = 1.00000
 Grid used for NLC:  SG-1 standard quadrature
 
 Citation of the SMD model:
 Marenich, A.V.; Cramer, C.J.; Truhlar, D.G.
 J. Phys. Chem. B 2009, 113, 6378-6396.
 iSolventCode=           0
 Solvent: other                                                           
 
 vradii
            1           2           3           4           5           6
    1   2.2940000   1.8500000   1.8500000   2.2940000   2.1476001   1.2000000
            7           8           9          10
    1   1.2000000   1.7300000   1.2000000   2.1476001
 using 32 threads for integral computing
 -------------------------------------------------------
 OpenMP Integral computing Module                
 Release: version 1.0, May 2013, Q-Chem Inc. Pittsburgh 
 -------------------------------------------------------
 using 32 threads for integral computing
 -------------------------------------------------------
 OpenMP Integral computing Module                
 Release: version 1.0, May 2013, Q-Chem Inc. Pittsburgh 
 -------------------------------------------------------
 -------------------------------------------------------
 OpenMP BLAS3 based DFT computing Module                
 Release: version 1.0, May 2013, Q-Chem Inc. Pittsburgh 
 -------------------------------------------------------
 -------------------------------------------------------
 OpenMP BLAS3 based DFT computing Module                
 Release: version 1.0, May 2013, Q-Chem Inc. Pittsburgh 
 -------------------------------------------------------
 -------------------------------------------------------
 OpenMP BLAS3 based DFT computing Module                
 Release: version 1.0, May 2013, Q-Chem Inc. Pittsburgh 
 -------------------------------------------------------
 A restricted SCF calculation will be
 performed using DIIS
 SCF converges when DIIS error is below 1.0e-08
 ---------------------------------------
  Cycle       Energy         DIIS error
 ---------------------------------------
    1    -341.9113120281      2.27e-02  
    2    -343.1906317739      6.03e-03  
    3    -343.1473192558      6.96e-03  
    4    -343.4799341524      3.85e-04  
    5    -343.4805686397      2.63e-04  
    6    -343.4810024686      5.55e-05  
    7    -343.4810276840      1.03e-05  
    8    -343.4810289706      4.76e-06  
    9    -343.4810292081      1.55e-06  
   10    -343.4810292328      6.83e-07  
   11    -343.4810292395      1.04e-07  
   12    -343.4810292400      2.53e-08  
   13    -343.4810292400      6.92e-09  Convergence criterion met
 ---------------------------------------
 SCF time:   CPU 733.48s  wall 24.00s 
(3)  G-ENP(liq) elect-nuc-pol free energy of system     -343.481029240 a.u.
(4)  G-CDS(liq) cavity-dispersion-solvent structure 
     free energy                                               -0.6347 kcal/mol
(6)  G-S(liq) free energy of system                     -343.482040628 a.u.
 SCF   energy in the final basis set =     -343.4810292400
 Total energy in the final basis set =     -343.4820406279
 
 --------------------------------------------------------------
 
                    Orbital Energies (a.u.)
 --------------------------------------------------------------
 
 Alpha MOs
 -- Occupied --
-24.6883 -19.1324 -19.1092 -10.3372 -10.2665  -2.0953  -2.0777  -1.2554
 -1.0768  -1.0374  -0.7809  -0.6784  -0.5804  -0.5447  -0.5366  -0.4908
 -0.4812  -0.4445  -0.4402  -0.3655  -0.3433  -0.3072  -0.2956
 -- Virtual --
  0.0275   0.0289   0.0438   0.0453   0.0523   0.0542   0.0547   0.0702
  0.1161   0.1267   0.1276   0.1294   0.1406   0.1504   0.1528   0.1549
  0.1567   0.1612   0.1641   0.1849   0.1913   0.1994   0.2051   0.2166
  0.2202   0.2226   0.2324   0.2638   0.2709   0.3016   0.3193   0.3244
  0.3312   0.3409   0.3456   0.3540   0.3605   0.3727   0.3801   0.3850
  0.3908   0.3990   0.4062   0.4146   0.4212   0.4250   0.4329   0.4348
  0.4379   0.4420   0.4450   0.4539   0.4596   0.4647   0.4755   0.4790
  0.4920   0.5024   0.5044   0.5168   0.5249   0.5373   0.5445   0.5470
  0.5693   0.5800   0.5948   0.6097   0.6240   0.6258   0.6425   0.6540
  0.6759   0.6925   0.7069   0.7237   0.7290   0.7482   0.7561   0.7776
  0.7860   0.7895   0.7996   0.8288   0.8337   0.8652   0.8808   0.8968
  0.9027   0.9148   0.9197   0.9501   0.9685   0.9735   0.9953   1.0259
  1.0630   1.0760   1.0906   1.0944   1.1016   1.1171   1.1493   1.1682
  1.1929   1.2231   1.2422   1.2634   1.2685   1.2874   1.3160   1.3237
  1.3543   1.3598   1.3826   1.3903   1.4107   1.4322   1.4743   1.4900
  1.5075   1.5258   1.5774   1.6157   1.6768   1.7503   1.7573   1.7805
  1.8104   1.9289   1.9822   1.9982   2.0538   2.0785   2.0818   2.1020
  2.1482   2.1581   2.1863   2.2060   2.3068   2.3292   2.4135   2.4400
  2.4685   2.5185   2.5475   2.5782   2.6117   2.6433   2.6714   2.8018
  2.8181   2.8711   2.9039   2.9612   2.9833   3.0394   3.0793   3.1058
  3.1327   3.1776   3.2001   3.2659   3.2976   3.3024   3.3141   3.3576
  3.3835   3.4187   3.4241   3.4680   3.4906   3.5256   3.5532   3.5680
  3.6149   3.6266   3.6912   3.7322   3.7957   3.8162   3.8241   3.8538
  3.8787   3.9806   4.0161   4.0558   4.0885   4.1160   4.1629   4.2146
  4.2220   4.3101   4.3392   4.3817   4.4043   4.4688   4.4859   4.5326
  4.6600   4.7654   4.7935   4.8269   4.9358   4.9838   5.0142   5.0368
  5.1520   5.1640   5.2138   5.2666   5.3382   5.3576   5.3839   5.4533
  5.5160   5.5375   5.5900   5.6424   5.6676   5.7363   5.7540   5.7969
  5.9187   6.1281   6.1369   6.1610   6.1697   6.1938   6.2107   6.2282
  6.2424   6.2883   6.3659   6.6409   6.6546   6.7170   6.7516   6.7707
  6.8064   6.9980   7.0505   7.0662   7.1149   7.1344   7.1673   7.2173
  7.2652   7.3880   7.3973   7.4443   7.4848   7.5372   8.7145   8.7606
  8.9891   9.0019   9.4660  15.1978  15.2388  23.3865  23.6638  44.2367
 44.3908  57.6045
 --------------------------------------------------------------
 
          Ground-State Mulliken Net Atomic Charges

     Atom                 Charge (a.u.)
  ----------------------------------------
      1 O                    -0.918055
      2 C                    -0.004345
      3 C                     0.432850
      4 O                    -0.913250
      5 Li                    0.877650
      6 H                     0.021748
      7 H                     0.004000
      8 F                    -0.389181
      9 H                    -0.004629
     10 Li                    0.893212
  ----------------------------------------
  Sum of atomic charges =     0.000000

  Building new vdw surfaces
         Merz-Kollman RESP Net Atomic Charges

     Atom                 Charge (a.u.)
  ----------------------------------------
      1 O                    -0.990232
      2 C                    -0.012793
      3 C                     0.714493
      4 O                    -1.115510
      5 Li                    0.855250
      6 H                     0.054639
      7 H                     0.054639
      8 F                    -0.459566
      9 H                    -0.018659
     10 Li                    0.917738
  ----------------------------------------
  Sum of atomic charges =     0.000000

  Related Dipole Moment =     2.5009 (X -0.4383 Y -1.9519 Z -1.5008)

 -----------------------------------------------------------------
                    Cartesian Multipole Moments
 -----------------------------------------------------------------
    Charge (ESU x 10^10)
                -0.0000
    Dipole Moment (Debye)
         X      -0.4052      Y      -1.8954      Z      -1.4460
       Tot       2.4182
    Quadrupole Moments (Debye-Ang)
        XX     -23.9082     XY     -31.6919     YY      16.4576
        XZ      -3.6877     YZ      -2.2846     ZZ     -37.2459
    Octopole Moments (Debye-Ang^2)
       XXX     -63.8331    XXY     -56.7066    XYY      11.5618
       YYY     -11.2338    XXZ      -9.9844    XYZ      -6.5855
       YYZ      -1.4228    XZZ     -35.8920    YZZ      -4.8376
       ZZZ     -14.0296
    Hexadecapole Moments (Debye-Ang^3)
      XXXX    -368.5209   XXXY    -126.2023   XXYY     120.4583
      XYYY    -277.6613   YYYY     279.1344   XXXZ     -39.0170
      XXYZ     -17.3528   XYYZ      -5.4780   YYYZ     -16.3631
      XXZZ    -106.0658   XYZZ      21.0044   YYZZ     -62.1181
      XZZZ     -33.2700   YZZZ     -13.4189   ZZZZ     -96.7724
 -----------------------------------------------------------------
 Calculating analytic gradient of the SCF energy
 Gradient of CDS energy
            1           2           3           4           5           6
    1   0.0001604  -0.0012970   0.0007792  -0.0001317   0.0000821   0.0003776
    2   0.0010566  -0.0008784   0.0002368  -0.0005669  -0.0003547  -0.0000572
    3   0.0000258  -0.0000476  -0.0006455   0.0003279  -0.0000307   0.0001260
            7           8           9          10
    1   0.0004224   0.0000201  -0.0002624  -0.0001509
    2   0.0000052  -0.0000160   0.0001906   0.0003840
    3  -0.0000751   0.0001085   0.0002522  -0.0000415
 Gradient of SCF Energy
            1           2           3           4           5           6
    1   0.0076529  -0.0075756   0.0058769  -0.0075228  -0.0048246   0.0035402
    2  -0.0130289  -0.0015707  -0.0030712   0.0167891   0.0096932   0.0032351
    3   0.0014924   0.0020440  -0.0071772   0.0025023  -0.0008218   0.0077325
            7           8           9          10
    1   0.0028184  -0.0009250  -0.0025711   0.0035307
    2   0.0037433  -0.0008301  -0.0044516  -0.0105082
    3  -0.0098105  -0.0010311   0.0056101  -0.0005408
 Max gradient component =       1.679E-02
 RMS gradient           =       6.422E-03
 Computing fast CPCM-SWIG gradient
 Updating gradient with PCM contributions...
 -- total gradient after adding PCM contribution --
---------------------------------------------------
  Atom         X              Y              Z     
---------------------------------------------------
   1       0.000460      -0.000867      -0.000270
   2      -0.000242       0.000466       0.000133
   3      -0.000050       0.000032      -0.000012
   4       0.000097       0.000096       0.000095
   5      -0.000138       0.000171       0.000122
   6      -0.000023       0.000077       0.000013
   7      -0.000016       0.000072      -0.000035
   8      -0.000029      -0.000028      -0.000025
   9      -0.000007      -0.000011       0.000005
  10      -0.000051      -0.000008      -0.000027
---------------------------------------------------
 Number of fixed atoms: 0
 Gradient time:  CPU 149.70 s  wall 6.99 s
 ----------------------------------------------------------------
             Standard Nuclear Orientation (Angstroms)
    I     Atom           X                Y                Z
 ----------------------------------------------------------------
    1      O      -0.5741620000     1.2402830000    -0.0715710000
    2      C      -0.0348010000    -0.0161700000    -0.0190530000
    3      C       1.4924970000    -0.0670660000    -0.0948500000
    4      O       2.0100290000    -1.2753940000    -0.1296980000
    5      Li     -1.0556250000     2.8018570000     0.0009580000
    6      H      -0.3783470000    -0.6527700000    -0.8593740000
    7      H      -0.3088140000    -0.5625060000     0.9070080000
    8      F       1.9761310000     0.6348910000     1.1205810000
    9      H       1.8592770000     0.6091610000    -0.8894920000
   10      Li      2.6138150000    -2.8122960000     0.0364910000
 ----------------------------------------------------------------
 Nuclear Repulsion Energy =         214.70939909 hartrees
 There are       23 alpha and       23 beta electrons
 Discretize the solute cavity surface with Lebedev spheres
	Using 110 Lebedev grid points for each H atom
	Using 194 Lebedev grid points for other atoms
	Atomic van der Waals radii will be scaled by 1.20
 Remove points where switching function is < 1.0e-08
 Keep 846 surface tesserae and discard 842 interior tesserae
 Molecular Surface Area = 167.932 Angst**2

                       Distance Matrix (Angstroms)
             O (  1)   C (  2)   C (  3)   O (  4)   Li(  5)   H (  6)
   C (  2)  1.368336
   C (  3)  2.445564  1.530024
   O (  4)  3.606945  2.404000  1.314956
   Li(  5)  1.635720  2.997292  3.838336  5.102870
   H (  6)  2.059764  1.108793  2.104187  2.573796  3.623993
   H (  7)  2.068351  1.109574  2.119882  2.638181  3.563368  1.770053
   F (  8)  2.879535  2.401352  1.484560  2.283317  3.891123  3.334945
   H (  9)  2.643659  2.176289  1.106014  2.037538  3.754660  2.569112
   Li( 10)  5.157351  3.851827  2.968315  1.659592  6.707068  3.797257
             H (  7)   F (  8)   H (  9)
   F (  8)  2.588503
   H (  9)  3.049727  2.013631
   Li( 10)  3.789606  3.669467  3.623967
 
 Requested basis set is def2-TZVPPD
 There are 109 shells and 289 basis functions
 A cutoff of  1.0D-14 yielded   5702 shell pairs
 There are     40932 function pairs (     51615 Cartesian)
 Smallest overlap matrix eigenvalue = 1.55E-05
 Guess from superposition of atomic densities
 Warning:  Energy on first SCF cycle will be non-variational
 SAD guess density has 46.000000 electrons

 -----------------------------------------------------------------------
  General SCF calculation program by
  Eric Jon Sundstrom, Paul Horn, Yuezhi Mao, Dmitri Zuev, Alec White,
  David Stuck, Shaama M.S., Shane Yost, Joonho Lee, David Small,
  Daniel Levine, Susi Lehtola, Hugh Burton, Evgeny Epifanovsky,
  Bang C. Huynh
 -----------------------------------------------------------------------
 Exchange:     0.1670 Hartree-Fock + 1.0000 wB97X-V + LR-HF
 Correlation:  1.0000 wB97X-V
 Using SG-3 standard quadrature grid
 Nonlocal Correlation:  VV10 with C = 0.0100 and b = 6.00 and scale = 1.00000
 Grid used for NLC:  SG-1 standard quadrature
 
 Citation of the SMD model:
 Marenich, A.V.; Cramer, C.J.; Truhlar, D.G.
 J. Phys. Chem. B 2009, 113, 6378-6396.
 iSolventCode=           0
 Solvent: other                                                           
 
 vradii
            1           2           3           4           5           6
    1   2.2940000   1.8500000   1.8500000   2.2940000   2.1476001   1.2000000
            7           8           9          10
    1   1.2000000   1.7300000   1.2000000   2.1476001
 using 32 threads for integral computing
 -------------------------------------------------------
 OpenMP Integral computing Module                
 Release: version 1.0, May 2013, Q-Chem Inc. Pittsburgh 
 -------------------------------------------------------
 using 32 threads for integral computing
 -------------------------------------------------------
 OpenMP Integral computing Module                
 Release: version 1.0, May 2013, Q-Chem Inc. Pittsburgh 
 -------------------------------------------------------
 -------------------------------------------------------
 OpenMP BLAS3 based DFT computing Module                
 Release: version 1.0, May 2013, Q-Chem Inc. Pittsburgh 
 -------------------------------------------------------
 -------------------------------------------------------
 OpenMP BLAS3 based DFT computing Module                
 Release: version 1.0, May 2013, Q-Chem Inc. Pittsburgh 
[...]
    Atom      X          Y          Z
     1    3.789724188104654e-03   7.430566630300440e-04  -1.877222568904853e-03
     2   -1.055499429314006e-02  -1.815154293745905e-02   2.473242429259889e-02
     3   -9.299934092407280e-02  -4.640202526950186e-02   6.846067116273337e-02
     4    1.337223614902634e-02   1.213809282605690e-02  -1.162519594593473e-02
     5   -3.316448937001713e-05   5.896049827404338e-05   3.978830502362880e-06
     6    1.064006464959184e-03   6.325822953781083e-05  -9.462479156873954e-04
     7   -6.127913674289700e-03  -6.942964522461865e-04   1.428568996336870e-03
     8    4.365494481066492e-03   8.313696199425606e-04  -1.799714276204677e-02
     9    8.715418875228975e-02   5.102721450781470e-02  -6.213096682875684e-02
    10   -3.022391703133931e-05   3.858248497217104e-04  -4.880508378577915e-05

Order 1, Length 30
    Atom      X          Y          Z
     1   -7.466424364806776e-04   3.019549542044850e-03  -1.080827751230975e-03
     2    1.835830602901950e-03  -6.456065149380383e-04   4.486303445467086e-03
     3   -5.332757180867703e-02  -1.175114661443667e-01   9.774640579060737e-02
     4    2.453625058518518e-03  -4.609771793112148e-02   2.224312163586493e-02
     5   -8.964621494403721e-05  -9.742597080375560e-05   3.774434973923564e-05
     6    1.307817964378484e-04   1.773196013232435e-04  -2.929538968219300e-05
     7   -7.015954051856506e-04  -5.110389698853841e-04   1.587958536669122e-04
     8    3.335767451245897e-04   6.885995969451093e-03  -1.755181897122951e-02
     9    5.102721450781470e-02   1.527317962046135e-01  -1.059454274190913e-01
    10   -9.156151739525666e-04   2.048528797250594e-03  -6.488493198619605e-05

Order 1, Length 30
    Atom      X          Y          Z
     1   -5.609220954985725e-04  -2.145286746046781e-03   7.518541115231919e-04
     2   -5.305271207833836e-04   5.829558953593162e-03   1.022930457539514e-03
     3    6.397651104544434e-02   9.356282397050822e-02  -1.572360140872820e-01
     4   -2.745103845301640e-03   8.637758059269442e-03   9.869951379099937e-03
     5    7.989154369691521e-05   6.099670629892599e-05  -8.153897148673774e-05
     6    1.451606826334743e-03   3.497183069918075e-04   3.858642762354036e-04
     7    1.476198627672530e-04   4.125685257556894e-04   6.940309852717362e-04
     8   -1.011487635738420e-04   8.141763363864256e-05  -4.294048316836316e-02
     9   -6.213096682875684e-02  -1.059454274190913e-01   1.873722081800387e-01
    10    4.130666026246529e-04  -8.440506044477925e-04   1.611127335144130e-04


    10 Order 1, Length 30
    Atom      X          Y          Z
     1    5.886871515721078e-04  -9.102548074942801e-04   4.124916454410496e-05
     2   -2.352448205019649e-04   3.098601855919998e-04  -1.862497147055554e-04
     3   -8.386236608835876e-04   7.114241292794539e-03   4.996131761588305e-04
     4   -1.501258171159241e-02   3.555878944858013e-02  -2.233686674714617e-03
     5   -5.451125989690385e-05   1.820701963895514e-04   1.440162404243131e-05
     6    1.230413355009777e-05  -7.375513110324228e-05  -8.084258413704842e-05
     7    5.067581117554408e-05  -4.868338612123361e-05   7.562704130386007e-05
     8   -4.476282224441433e-04  -2.196436693452122e-03  -2.134004932325950e-03
     9   -3.022391703133931e-05  -9.156151739525666e-04   4.130666026246529e-04
    10    1.596714874580774e-02  -3.902023933934809e-02   3.590812998038247e-03

Order 1, Length 30
    Atom      X          Y          Z
     1   -1.759438329444016e-03   1.643209304012683e-03  -3.405912404117869e-05
     2    8.162850785096665e-05   8.495529701846648e-04   2.563339757168430e-04
     3    3.556176503329803e-03  -1.742151697702967e-02  -1.266768447892158e-03
     4    3.582665019242855e-02  -9.067993924045328e-02   6.351819877742953e-03
     5    1.519890735241480e-04  -3.327341850459237e-04  -2.912495106331574e-05
     6   -9.492341383749586e-05   1.601390237326393e-04  -2.691529312479453e-05
     7   -4.158817048872224e-05  -7.340789415491110e-06   1.287153864735908e-04
     8    9.139300893212551e-04   4.943772667376832e-03   4.771234785947793e-03
     9    3.858248497217104e-04   2.048528797250594e-03  -8.440506044477925e-04
    10   -3.902023933934809e-02   9.879637589257294e-02  -9.307149235287412e-03

Order 1, Length 30
    Atom      X          Y          Z
     1    2.281611672320252e-04  -1.883663373381505e-04  -4.166513353880082e-05
     2   -3.210864440484573e-05  -1.920848432633812e-04   2.772424634365654e-04
     3   -2.946323552881736e-04   2.005405728482725e-03   6.581563914969028e-04
     4   -3.215221936936390e-03   8.790954420312250e-03  -1.078040425706770e-03
     5   -1.340554030970819e-05   3.778713925799536e-05   2.412887986434147e-05
     6   -8.091675285940916e-06  -3.562272921485835e-05  -6.226134972872876e-05
     7   -2.469407262741254e-06   5.101572618638688e-05  -1.152574056266858e-04
     8   -2.042407293054895e-04  -1.097028126821038e-03  -1.053069245239814e-03
     9   -4.880508378577915e-05  -6.488493198619605e-05   1.611127335144130e-04
    10    3.590812998038247e-03  -9.307149235287412e-03   1.229680787854815e-03




 # Finishing finite difference calculation for IDERIV #
 ######################################################
 ######################################################
 Requested basis set is def2-TZVPPD
 There are 109 shells and 289 basis functions
 **********************************************************************
 **                                                                  **
 **                       VIBRATIONAL ANALYSIS                       **
 **                       --------------------                       **
 **                                                                  **
 **        VIBRATIONAL FREQUENCIES (CM**-1) AND NORMAL MODES         **
 **     FORCE CONSTANTS (mDYN/ANGSTROM) AND REDUCED MASSES (AMU)     **
 **                  INFRARED INTENSITIES (KM/MOL)                   **
 **                                                                  **
 **********************************************************************
 

 Mode:                 1                      2                      3
 Frequency:       -14.33                  45.67                  52.57
 Force Cnst:      0.0009                 0.0092                 0.0114
 Red. Mass:       7.5601                 7.4929                 6.9857
 IR Active:          YES                    YES                    YES
 IR Intens:      149.282                114.273                143.606
 Raman Active:       YES                    YES                    YES
               X      Y      Z        X      Y      Z        X      Y      Z
 O         -0.135 -0.135 -0.063    0.059  0.104  0.050    0.007  0.088  0.040
 C         -0.073 -0.109 -0.080   -0.006  0.069 -0.119   -0.101  0.044  0.116
 C         -0.069 -0.012 -0.052   -0.009 -0.010 -0.113   -0.109 -0.073  0.049
 O          0.022  0.026  0.026   -0.081 -0.037 -0.241   -0.185 -0.104  0.021
 Li         0.751  0.126  0.412   -0.215  0.008  0.233    0.144  0.147 -0.341
 H         -0.023 -0.112 -0.098   -0.034  0.202 -0.208   -0.191  0.009  0.180
 H         -0.059 -0.143 -0.095   -0.041 -0.044 -0.195   -0.110  0.141  0.169
 F         -0.146  0.100 -0.083    0.023 -0.172 -0.026   -0.005 -0.108  0.032
 H         -0.104 -0.029 -0.083    0.041  0.056 -0.034   -0.104 -0.091  0.035
 Li         0.169  0.098  0.160    0.231  0.176  0.733    0.694  0.222 -0.220
 TransDip   0.329  0.089  0.192    0.008  0.054  0.338    0.307  0.124 -0.194

 Mode:                 4                      5                      6
 Frequency:        82.38                 173.71                 276.15
 Force Cnst:      0.0332                 0.0636                 0.2979
 Red. Mass:       8.2921                 3.5768                 6.6300
 IR Active:          YES                    YES                    YES
 IR Intens:       16.122                 61.033                 35.952
 Raman Active:       YES                    YES                    YES
               X      Y      Z        X      Y      Z        X      Y      Z
 O          0.135  0.121 -0.239    0.048  0.019  0.299   -0.355 -0.103 -0.029
 C          0.013  0.073 -0.114    0.024 -0.009 -0.195    0.053  0.071 -0.177
 C          0.012 -0.097  0.008    0.028 -0.027 -0.047    0.098  0.107  0.059
 O         -0.122 -0.165  0.301   -0.003 -0.050  0.113   -0.203 -0.023  0.094
 Li        -0.326 -0.057  0.578   -0.004  0.010 -0.128    0.028  0.034 -0.010
 H          0.017  0.049 -0.099    0.102  0.354 -0.506    0.408  0.162 -0.392
 H         -0.113  0.161 -0.100   -0.080 -0.404 -0.459   -0.024 -0.224 -0.373
 F          0.004  0.102 -0.114   -0.090  0.072 -0.085    0.330 -0.041  0.063
 H          0.145 -0.309 -0.110    0.127 -0.119 -0.082    0.287  0.036  0.084
 Li         0.236 -0.064 -0.185    0.033 -0.048 -0.018   -0.005  0.064 -0.010
 TransDip  -0.032 -0.039  0.118    0.026 -0.011 -0.249    0.154  0.104 -0.049

 Mode:                 7                      8                      9
 Frequency:       432.75                 464.57                 514.37
 Force Cnst:      1.0544                 0.4433                 1.1238
 Red. Mass:       9.5555                 3.4859                 7.2096
 IR Active:          YES                    YES                    YES
 IR Intens:       12.914                 53.399                101.214
 Raman Active:       YES                    YES                    YES
               X      Y      Z        X      Y      Z        X      Y      Z
 O         -0.268  0.162 -0.006    0.166 -0.007 -0.027   -0.044  0.049 -0.021
 C         -0.216  0.085 -0.015   -0.178 -0.130 -0.052   -0.152 -0.031 -0.023
 C         -0.029 -0.094  0.023   -0.184 -0.006  0.117   -0.061 -0.184  0.077
 O          0.461  0.050  0.166    0.014  0.115  0.041    0.067 -0.137 -0.256
 Li        -0.118  0.380  0.016    0.029 -0.113 -0.004   -0.045  0.122  0.003
 H         -0.236  0.158 -0.062    0.026  0.096 -0.312    0.012  0.159 -0.237
 H         -0.358  0.106 -0.050   -0.570 -0.278 -0.256   -0.513 -0.156 -0.207
 F          0.050 -0.245 -0.142    0.149 -0.026 -0.020    0.105  0.319  0.198
 H         -0.223 -0.128 -0.113   -0.444  0.071  0.056   -0.127 -0.027  0.197
 Li         0.077 -0.203  0.023   -0.079  0.185 -0.015    0.161 -0.417  0.036
 TransDip  -0.073  0.075  0.047   -0.233 -0.017  0.014   -0.036 -0.317 -0.048

 Mode:                10                     11                     12
 Frequency:       695.60                 740.38                 805.85
 Force Cnst:      1.3485                 2.0846                 2.1914
 Red. Mass:       4.7302                 6.4546                 5.7275
 IR Active:          YES                    YES                    YES
 IR Intens:      309.185                218.648                  0.408
 Raman Active:       YES                    YES                    YES
               X      Y      Z        X      Y      Z        X      Y      Z
 O         -0.014 -0.003 -0.035    0.022 -0.081 -0.019   -0.110  0.109  0.006
 C          0.106  0.034  0.104    0.096 -0.209  0.025   -0.047  0.204  0.027
 C          0.068  0.143  0.417    0.070 -0.170  0.065    0.092 -0.218  0.082
 O         -0.027 -0.047 -0.115    0.021 -0.125 -0.044    0.127 -0.177 -0.060
 Li         0.001  0.003  0.002   -0.195  0.613  0.023    0.128 -0.405 -0.016
 H          0.619  0.166 -0.199    0.212 -0.200 -0.027   -0.068  0.303 -0.042
 H         -0.355 -0.147 -0.136    0.029 -0.269 -0.031   -0.297  0.235 -0.030
 F         -0.097 -0.030 -0.201   -0.017  0.051  0.005   -0.020  0.048 -0.000
 H         -0.194  0.047  0.193    0.069 -0.218  0.036    0.225 -0.356  0.033
 Li         0.047 -0.117  0.015   -0.185  0.466 -0.044   -0.169  0.428 -0.041
 TransDip   0.169  0.283  0.457   -0.150  0.449  0.013   -0.008  0.017  0.009

 Mode:                13                     14                     15
 Frequency:       982.35                1109.10                1246.04
 Force Cnst:      1.2620                 2.0860                 4.9590
 Red. Mass:       2.2196                 2.8783                 5.4210
 IR Active:          YES                    YES                    YES
 IR Intens:       60.863                 16.113                391.744
 Raman Active:       YES                    YES                    YES
               X      Y      Z        X      Y      Z        X      Y      Z
 O         -0.022 -0.015 -0.035    0.011  0.024 -0.048   -0.136  0.382 -0.015
 C          0.169  0.092  0.148   -0.154 -0.091  0.211    0.144 -0.372 -0.010
 C         -0.134 -0.095 -0.129    0.231  0.111 -0.144    0.008  0.019  0.001
 O          0.006  0.037  0.023   -0.030 -0.017  0.018   -0.010 -0.032  0.009
 Li         0.001 -0.001 -0.000    0.002 -0.006 -0.000    0.050 -0.157 -0.007
 H          0.604  0.323 -0.227    0.012  0.323 -0.187    0.119 -0.237 -0.002
 H         -0.160 -0.254 -0.169   -0.566 -0.452 -0.140    0.452 -0.358  0.017
 F         -0.012 -0.010  0.033   -0.023 -0.011  0.010    0.005  0.006  0.018
 H         -0.413 -0.106 -0.266    0.344  0.012 -0.173   -0.463  0.147 -0.089
 Li         0.004 -0.011  0.001    0.001 -0.000  0.000   -0.005  0.011 -0.001
 TransDip  -0.042 -0.178 -0.170    0.128  0.005  0.005    0.249 -0.583 -0.002

 Mode:                16                     17                     18
 Frequency:      1259.71                1303.04                1343.04
 Force Cnst:      1.0595                 2.2160                 1.2075
 Red. Mass:       1.1332                 2.2151                 1.1362
 IR Active:          YES                    YES                    YES
 IR Intens:        2.755                561.606                  4.169
 Raman Active:       YES                    YES                    YES
               X      Y      Z        X      Y      Z        X      Y      Z
 O          0.001 -0.007 -0.045   -0.023  0.047  0.011   -0.008 -0.009  0.003
 C          0.004  0.020  0.048    0.054 -0.058  0.018    0.047 -0.001  0.010
 C         -0.043 -0.036  0.040    0.007 -0.194  0.012    0.007 -0.026 -0.058
 O          0.003  0.019 -0.004   -0.060  0.194 -0.010    0.004 -0.045  0.028
 Li        -0.000  0.001 -0.000    0.005 -0.015 -0.001   -0.001  0.003  0.000
 H         -0.416  0.439 -0.076    0.140 -0.165  0.059   -0.087  0.070  0.008
 H          0.512 -0.499 -0.079   -0.350  0.120 -0.014   -0.250  0.131 -0.014
 F          0.005  0.001 -0.019   -0.005 -0.008 -0.043   -0.002  0.004 -0.024
 H          0.200  0.057  0.240    0.745 -0.163  0.370   -0.140  0.764  0.543
 Li         0.002 -0.004  0.000    0.020 -0.051  0.005   -0.007  0.016 -0.001
 TransDip  -0.032 -0.032  0.028    0.235 -0.721 -0.030   -0.025 -0.049 -0.035

 Mode:                19                     20                     21
 Frequency:      1353.11                1441.70                1477.50
 Force Cnst:      1.5111                 2.6829                 1.4251
 Red. Mass:       1.4008                 2.1908                 1.1080
 IR Active:          YES                    YES                    YES
 IR Intens:      133.266                106.539                  1.910
 Raman Active:       YES                    YES                    YES
               X      Y      Z        X      Y      Z        X      Y      Z
 O          0.017  0.025  0.004    0.015 -0.005  0.001   -0.002 -0.010 -0.001
 C         -0.103  0.028  0.026   -0.152  0.054 -0.013   -0.016 -0.085  0.011
 C         -0.100  0.051 -0.040    0.192 -0.168  0.020   -0.028  0.018 -0.004
 O          0.042 -0.063  0.004   -0.056  0.088  0.006    0.005 -0.006 -0.001
 Li         0.004 -0.011 -0.001   -0.000 -0.000  0.000   -0.002  0.006  0.000
 H          0.659 -0.338 -0.030    0.416 -0.068 -0.179    0.148  0.514 -0.464
 H          0.310 -0.185  0.022    0.527 -0.047  0.155    0.161  0.543  0.386
 F          0.004  0.001 -0.011   -0.013 -0.001 -0.009    0.003  0.000  0.000
 H          0.437  0.116  0.288   -0.556  0.272 -0.014    0.131 -0.045  0.025
 Li        -0.006  0.016 -0.001    0.006 -0.014  0.001   -0.000  0.001 -0.000
 TransDip  -0.228  0.290 -0.027    0.228 -0.239 -0.003    0.024 -0.036  0.008

 Mode:                22                     23                     24
 Frequency:      2895.31                2912.49                2940.46
 Force Cnst:      5.2107                 5.4871                 5.5246
 Red. Mass:       1.0550                 1.0979                 1.0845
 IR Active:          YES                    YES                    YES
 IR Intens:      272.954                148.334                278.484
 Raman Active:       YES                    YES                    YES
               X      Y      Z        X      Y      Z        X      Y      Z
 O         -0.003  0.006 -0.000    0.001 -0.001  0.001    0.001 -0.002  0.001
 C          0.037  0.049 -0.021   -0.010 -0.014 -0.087   -0.005 -0.003 -0.022
 C         -0.002  0.004 -0.003   -0.008 -0.012  0.010    0.032  0.046 -0.057
 O          0.000 -0.001  0.000    0.001 -0.001  0.001   -0.002  0.004  0.001
 Li         0.001 -0.002 -0.000   -0.000  0.000 -0.000   -0.000  0.000 -0.000
 H         -0.172 -0.304 -0.447    0.266  0.446  0.602    0.074  0.117  0.161
 H         -0.205 -0.375  0.700   -0.156 -0.264  0.453   -0.033 -0.052  0.092
 F          0.000 -0.000  0.000   -0.000  0.000  0.001   -0.001 -0.001 -0.001
 H         -0.006 -0.016  0.020    0.085  0.150 -0.174   -0.338 -0.585  0.693
 Li         0.000  0.000 -0.000   -0.000  0.000 -0.000    0.001 -0.001  0.000
 TransDip   0.093  0.506 -0.125   -0.051 -0.190 -0.337    0.091  0.320 -0.418

 STANDARD THERMODYNAMIC QUANTITIES AT   298.15 K  AND     1.00 ATM

   This Molecule has  1 Imaginary Frequencies
   Zero point vibrational energy:       35.093 kcal/mol

   Atom    1 Element O  Has Mass   15.99491
   Atom    2 Element C  Has Mass   12.00000
   Atom    3 Element C  Has Mass   12.00000
   Atom    4 Element O  Has Mass   15.99491
   Atom    5 Element Li Has Mass    7.01600
   Atom    6 Element H  Has Mass    1.00783
   Atom    7 Element H  Has Mass    1.00783
   Atom    8 Element F  Has Mass   18.99840
   Atom    9 Element H  Has Mass    1.00783
   Atom   10 Element Li Has Mass    7.01600
   Molecular Mass:    92.043710 amu
   Principal axes and moments of inertia in amu*Bohr^2:
                             1           2           3
    Eigenvalues --      244.22711   983.98136  1164.01827
          X              -0.66418     0.62145    -0.41554
          Y               0.74734     0.56574    -0.34845
          Z              -0.01854     0.54198     0.84018
   Rotational Symmetry Number is   1
   The Molecule is an Asymmetric Top
   Translational Enthalpy:        0.889 kcal/mol
   Rotational Enthalpy:           0.889 kcal/mol
   Vibrational Enthalpy:         38.018 kcal/mol
   gas constant (RT):             0.592 kcal/mol
   Translational Entropy:        39.471  cal/mol.K
   Rotational Entropy:           27.128  cal/mol.K
   Vibrational Entropy:          20.828  cal/mol.K

   Total Enthalpy:               40.388 kcal/mol
   Total Entropy:                87.427  cal/mol.K
Archival summary:
1\1\r2i5n33\FREQ\ProcedureUnspecified\BasisUnspecified\122i23\sblau\MonDec3006:47:272019MonDec3006:47:272019\0\\#,FREQ,ProcedureUnspecified,BasisUnspecified,\\0,1\F\C,1,1.48456\H,2,1.10601,1,101.017\O,2,1.31496,1,109.146,3,120.81,0\C,2,1.53002,1,105.599,3,-114.875,0\H,5,1.10879,2,104.634,1,-172.99,0\H,5,1.10957,2,105.752,1,-61.4495,0\O,5,1.36837,2,114.965,1,63.674,0\Li,8,1.63576,5,172.231,2,-42.4712,0\Li,4,1.65959,2,172.53,1,44.3548,0\\\@

 Total job time:  1965.25s(wall), 55288.91s(cpu) 
 Mon Dec 30 06:47:27 2019

        *************************************************************
        *                                                           *
        *  Thank you very much for using Q-Chem.  Have a nice day.  *
        *                                                           *
        *************************************************************


