srun --cpu_bind=cores --ntasks=16 --nodes=1-1 --cpus-per-task 4 --nodelist nid01829 /global/project/projectdirs/jcesr/qchem/qc5.x/qc5.0.1/dist/exe/qcprog.cori.haswell.exe .pt_trip_wb97mv_180.0.in.48445.qcin.1 /global/cscratch1/sd/bwood/qchem/chain_dp/qchem48445/

Process 15 of 16 is on nid01829 - thread support 0
Process 0 of 16 is on nid01829 - thread support 0
Process 4 of 16 is on nid01829 - thread support 0
Process 3 of 16 is on nid01829 - thread support 0
Process 6 of 16 is on nid01829 - thread support 0
Process 2 of 16 is on nid01829 - thread support 0
Process 5 of 16 is on nid01829 - thread support 0
Process 1 of 16 is on nid01829 - thread support 0
initial socket setup ...start
initial socket setup ...done 
now start server 0 ... 
nid01829 10.128.7
Q-Chem Developer Version! Running on 10.128.7.*
                  Welcome to Q-Chem
     A Quantum Leap Into The Future Of Chemistry


 Q-Chem 5.0, Q-Chem, Inc., Pleasanton, CA (2017)

 Yihan Shao,  Zhengting Gan,  E. Epifanovsky,  A. T. B. Gilbert,  M. Wormit,  
 J. Kussmann,  A. W. Lange,  A. Behn,  Jia Deng,  Xintian Feng,  D. Ghosh,  
 M. Goldey,  P. R. Horn,  L. D. Jacobson,  I. Kaliman,  T. Kus,  A. Landau,  
 Jie Liu,  E. I. Proynov,  R. M. Richard,  R. P. Steele,  E. J. Sundstrom,  
 H. L. Woodcock III,  P. M. Zimmerman,  D. Zuev,  B. Albrecht,  E. Alguire,  
 S. A. Baeppler,  Z. Benda,  Y. A. Bernard,  E. J. Berquist,  K. B. Bravaya,  
 D. Casanova,  Chun-Min Chang,  Yunqing Chen,  A. Chien,  K. D. Closser,  
 M. P. Coons,  S. Dasgupta,  M. Diedenhofen,  Hainam Do,  R. G. Edgar,  
 Po-Tung Fang,  S. Fatehi,  Qingguo Feng,  Qinghui Ge,  A. Ghysels,  
 J. Gomes,  J. Gonthier,  A. Gunina,  M. W. D. Hanson-Heine,  
 P. H. P. Harbach,  A. W. Hauser,  J. E. Herr,  E. G. Hohenstein,  
 Z. C. Holden,  Kerwin Hui,  T.-C. Jagau,  Hyunjun Ji,  B. Kaduk,  
 K. Khistyaev,  Jaehoon Kim,  P. Klunzinger,  K. Koh,  D. Kosenkov,  
 T. Kowalczyk,  C. M. Krauter,  A. Kunitsa,  Ka Un Lao,  A. Laurent,  
 K. V. Lawler,  Joonho Lee,  D. Lefrancois,  S. Lehtola,  D. S. Levine,  
 Yi-Pei Li,  You-Sheng Lin,  Fenglai Liu,  E. Livshits,  A. Luenser,  
 P. Manohar,  E. Mansoor,  S. F. Manzer,  Shan-Ping Mao,  Yuezhi Mao,  
 N. Mardirossian,  A. V. Marenich,  L. A. Martinez-Martinez,  S. A. Maurer,  
 N. J. Mayhall,  S. C. McKenzie,  J.-M. Mewes,  A. F. Morrison,  K. Nanda,  
 T. S. Nguyen-Beck,  R. Olivares-Amaya,  J. A. Parkhill,  T. M. Perrine,  
 F. Plasser,  S. Prager,  A. Prociuk,  D. R. Rehn,  F. Rob,  M. Schneider,  
 N. Sergueev,  S. M. Sharada,  S. Sharma,  D. W. Small,  T. Stauch,  
 T. Stein,  Yu-Chuan Su,  A. J. W. Thom,  T. Tsuchimochi,  L. Vogt,  
 O. Vydrov,  M. A. Watson,  J. Wenzel,  M. de Wergifosse,  T. A. Wesolowski,  
 A. White,  J. Witte,  A. Yamada,  Jun Yang,  K. Yao,  S. Yeganeh,  
 S. R. Yost,  Zhi-Qiang You,  A. Zech,  Igor Ying Zhang,  Xing Zhang,  
 Yan Zhao,  Ying Zhu,  B. R. Brooks,  G. K. L. Chan,  C. J. Cramer,  
 M. S. Gordon,  W. J. Hehre,  A. Klamt,  M. W. Schmidt,  C. D. Sherrill,  
 D. G. Truhlar,  A. Aspuru-Guzik,  R. Baer,  A. T. Bell,  N. A. Besley,  
 Jeng-Da Chai,  A. Dreuw,  B. D. Dunietz,  T. R. Furlani,  Chao-Ping Hsu,  
 Yousung Jung,  Jing Kong,  D. S. Lambrecht,  WanZhen Liang,  C. Ochsenfeld,  
 V. A. Rassolov,  L. V. Slipchenko,  J. E. Subotnik,  T. Van Voorhis,  
 J. M. Herbert,  A. I. Krylov,  P. M. W. Gill,  M. Head-Gordon

 Contributors to earlier versions of Q-Chem not listed above: 
 R. D. Adamson,  B. Austin,  J. Baker,  G. J. O. Beran,  K. Brandhorst,  
 S. T. Brown,  E. F. C. Byrd,  A. K. Chakraborty,  C.-L. Cheng,  
 Siu Hung Chien,  D. M. Chipman,  D. L. Crittenden,  H. Dachsel,  
 R. A. DiStasio Jr.,  R. J. Doerksen,  A. D. Dutoi,  L. Fusti-Molnar,  
 W. A. Goddard III,  A. Golubeva-Zadorozhnaya,  S. R. Gwaltney,  G. Hawkins,  
 A. Heyden,  S. Hirata,  G. Kedziora,  F. J. Keil,  C. Kelley,  Jihan Kim,  
 R. A. King,  R. Z. Khaliullin,  P. P. Korambath,  W. Kurlancheek,  
 A. M. Lee,  M. S. Lee,  S. V. Levchenko,  Ching Yeh Lin,  D. Liotard,  
 R. C. Lochan,  I. Lotan,  P. E. Maslen,  N. Nair,  D. P. O'Neill,  
 D. Neuhauser,  E. Neuscamman,  C. M. Oana,  R. Olson,  B. Peters,  
 R. Peverati,  P. A. Pieniazek,  Y. M. Rhee,  J. Ritchie,  M. A. Rohrdanz,  
 E. Rosta,  N. J. Russ,  H. F. Schaefer III,  N. E. Schultz,  N. Shenvi,  
 A. C. Simmonett,  A. Sodt,  D. Stuck,  K. S. Thanthiriwatte,  V. Vanovschi,  
 Tao Wang,  A. Warshel,  C. F. Williams,  Q. Wu,  X. Xu,  W. Zhang

 Please cite Q-Chem as follows:
 Y. Shao et al., Mol. Phys. 113, 184-215 (2015)
 DOI: 10.1080/00268976.2014.952696

 Q-Chem 5.0.1 for Intel X86 EM64T Linux

 Parts of Q-Chem use Armadillo 5.200.1 (Boston Tea Smuggler).
 http://arma.sourceforge.net/

 Q-Chem begins on Thu Feb 22 00:16:32 2018  

Host: nid01268
0

     Scratch files written to /global/cscratch1/sd/bwood/qchem/chain_dp/qchem48445.0//
 Parallel job on  16  processors
Warning: disabling incdft.
Checking the input file for inconsistencies... 	...done.

--------------------------------------------------------------
User input:
--------------------------------------------------------------
$molecule
 0  3
 S          -0.01806751        0.44661919       -0.04085929
 C           1.69268044        0.21661087       -0.04392406
 H           2.25504587        0.33055482        0.86711357
 C           2.19358481       -0.11156535       -1.30306695
 H           3.24493128       -0.28705096       -1.47749232
 C           1.23419097       -0.18832714       -2.27969081
 H           1.41780922       -0.42884607       -3.31540271
 C          -0.10080114        0.09259041       -1.77631473
 C          -1.26244536        0.10213358       -2.45607151
 C          -2.59743368        0.38305035       -1.95269678
 H          -2.78105339        0.62358164       -0.91698798
 C          -3.55683364        0.30626426       -2.92931891
 H          -4.60818235        0.48172931       -2.75488659
 C          -3.05593616       -0.02196154       -4.18844665
 H          -3.61830306       -0.13593920       -5.09947931
 S          -1.34517359       -0.25185813       -4.19153327
$end


$rem
              jobtype = opt
               method = wb97m-v
                basis = def2-tzvppd
  geom_opt_max_cycles = 75
       max_scf_cycles = 300
        scf_algorithm = diis
            scf_guess = sad
           sym_ignore = true
             symmetry = false
               thresh = 14
$end


$opt
CONSTRAINT
tors 6 8 9 10 180.0
ENDCONSTRAINT
$end

--------------------------------------------------------------
 ----------------------------------------------------------------
             Standard Nuclear Orientation (Angstroms)
    I     Atom           X                Y                Z
 ----------------------------------------------------------------
    1      S      -0.0180675100     0.4466191900    -0.0408592900
    2      C       1.6926804400     0.2166108700    -0.0439240600
    3      H       2.2550458700     0.3305548200     0.8671135700
    4      C       2.1935848100    -0.1115653500    -1.3030669500
    5      H       3.2449312800    -0.2870509600    -1.4774923200
    6      C       1.2341909700    -0.1883271400    -2.2796908100
    7      H       1.4178092200    -0.4288460700    -3.3154027100
    8      C      -0.1008011400     0.0925904100    -1.7763147300
    9      C      -1.2624453600     0.1021335800    -2.4560715100
   10      C      -2.5974336800     0.3830503500    -1.9526967800
   11      H      -2.7810533900     0.6235816400    -0.9169879800
   12      C      -3.5568336400     0.3062642600    -2.9293189100
   13      H      -4.6081823500     0.4817293100    -2.7548865900
   14      C      -3.0559361600    -0.0219615400    -4.1884466500
   15      H      -3.6183030600    -0.1359392000    -5.0994793100
   16      S      -1.3451735900    -0.2518581300    -4.1915332700
 ----------------------------------------------------------------
 Nuclear Repulsion Energy =   631.3880769460 hartrees
 There are       44 alpha and       42 beta electrons
 Requested basis set is def2-TZVPPD
 There are 180 shells and 500 basis functions

 Total QAlloc Memory Limit   2000 MB
 Mega-Array Size        61 MB
 MEM_STATIC part        62 MB
 A cutoff of  1.0D-14 yielded  14472 shell pairs
 There are    112268 function pairs (    144768 Cartesian)
 Smallest overlap matrix eigenvalue = 7.69E-07
 Linear dependence detected in AO basis
 Number of orthogonalized atomic orbitals = 499
 Maximum deviation from orthogonality = 1.951E-10

 Scale SEOQF with 1.000000e-01/1.000000e-01/1.000000e-02

 Standard Electronic Orientation quadrupole field applied
 Nucleus-field energy     =     0.0000000057 hartrees
 Guess from superposition of atomic densities
 Warning:  Energy on first SCF cycle will be non-variational
 Long-range K will be added via erf
 Coulomb attenuation parameter = 0.3 bohr**(-1)
 An unrestricted hybrid HF-DFT SCF calculation will be
 performed using Pulay DIIS extrapolation
 Exchange:     0.1500 Hartree-Fock + 1.0000 wB97M-V + LR-HF
 Correlation:  1.0000 wB97M-V
 Using SG-2 standard quadrature grid
 Nonlocal Correlation:  VV10 with C = 0.0100 and b = 6.00
 Grid used for NLC:  SG-1 standard quadrature
 SCF converges when DIIS error is below 1.0E-08
 Number of grid points used for NLC = 44588
 ---------------------------------------
  Cycle       Energy         DIIS Error
 ---------------------------------------
    1   -1037.4099178545      2.68E-02
 Inaccurate integrated density:
   Number of electrons =    86
   Numerical integral  =    85.894213576300
   Relative error      =    -0.1230074694 %
 Number of grid points used for NLC = 46004
    2   -1100.8130513569      2.41E-02
 Number of grid points used for NLC = 44906
    3   -1104.3960282138      8.00E-03
 Number of grid points used for NLC = 45094
    4   -1104.2924320436      4.07E-03
 Number of grid points used for NLC = 44816
    5   -1104.6588789901      1.15E-03
 Number of grid points used for NLC = 44758
    6   -1104.6906739905      3.35E-04
 Number of grid points used for NLC = 44740
    7   -1104.6946428845      8.05E-05
 Number of grid points used for NLC = 44728
    8   -1104.6951520660      2.57E-05
 Number of grid points used for NLC = 44726
    9   -1104.6953570839      1.23E-05
 Number of grid points used for NLC = 44720
   10   -1104.6955025155      6.66E-06
 Number of grid points used for NLC = 44716
   11   -1104.6955509864      2.86E-06
 Number of grid points used for NLC = 44714
   12   -1104.6955594875      1.67E-06
 Number of grid points used for NLC = 44714
   13   -1104.6955615023      6.80E-07
 Number of grid points used for NLC = 44716
   14   -1104.6955619252      2.94E-07
 Number of grid points used for NLC = 44716
   15   -1104.6955619957      1.81E-07
 Number of grid points used for NLC = 44716
   16   -1104.6955620106      6.22E-08
 Number of grid points used for NLC = 44716
   17   -1104.6955620131      2.11E-08
 Number of grid points used for NLC = 44716
   18   -1104.6955620133      6.19E-09 Convergence criterion met
 ---------------------------------------
 <S^2> = 2.0366
 SCF time:  CPU 509.54 s  wall 505.65 s
 SCF   energy in the final basis set = -1104.69556201
 Total energy in the final basis set = -1104.69556201
 
 --------------------------------------------------------------
 
                    Orbital Energies (a.u.)
 --------------------------------------------------------------
 
 Alpha MOs
 -- Occupied --
-89.204 -89.204 -10.391 -10.390 -10.384 -10.384 -10.361 -10.361
-10.360 -10.360  -8.139  -8.139  -6.049  -6.049  -6.046  -6.046
 -6.044  -6.044  -1.025  -1.000  -0.903  -0.876  -0.861  -0.816
 -0.734  -0.696  -0.657  -0.647  -0.640  -0.580  -0.531  -0.524
 -0.517  -0.508  -0.504  -0.491  -0.468  -0.455  -0.429  -0.405
 -0.374  -0.360  -0.304  -0.200
 -- Virtual --
  0.030   0.032   0.039   0.051   0.056   0.059   0.060   0.072
  0.077   0.080   0.085   0.104   0.108   0.113   0.118   0.122
  0.126   0.127   0.145   0.155   0.159   0.169   0.171   0.172
  0.188   0.197   0.202   0.204   0.206   0.212   0.215   0.223
  0.231   0.241   0.244   0.255   0.257   0.263   0.264   0.267
  0.269   0.271   0.284   0.288   0.289   0.295   0.301   0.304
  0.314   0.316   0.319   0.331   0.331   0.333   0.348   0.350
  0.353   0.353   0.361   0.362   0.367   0.374   0.374   0.376
  0.381   0.384   0.394   0.395   0.407   0.418   0.419   0.432
  0.436   0.438   0.443   0.444   0.451   0.452   0.460   0.467
  0.472   0.474   0.481   0.487   0.491   0.492   0.502   0.506
  0.510   0.512   0.514   0.519   0.542   0.547   0.555   0.564
  0.564   0.566   0.578   0.582   0.596   0.597   0.603   0.608
  0.609   0.630   0.631   0.639   0.644   0.656   0.658   0.683
  0.690   0.691   0.697   0.703   0.706   0.712   0.721   0.724
  0.729   0.730   0.732   0.740   0.744   0.753   0.753   0.764
  0.769   0.772   0.787   0.788   0.791   0.798   0.800   0.805
  0.811   0.813   0.818   0.819   0.823   0.847   0.855   0.861
  0.870   0.874   0.904   0.907   0.916   0.923   0.944   0.947
  0.956   0.961   0.972   0.973   0.980   0.989   0.992   1.015
  1.015   1.029   1.055   1.055   1.067   1.080   1.082   1.086
  1.113   1.118   1.118   1.148   1.154   1.158   1.207   1.219
  1.234   1.239   1.277   1.286   1.296   1.321   1.322   1.356
  1.358   1.386   1.389   1.418   1.440   1.444   1.451   1.455
  1.467   1.469   1.481   1.496   1.512   1.530   1.533   1.558
  1.581   1.602   1.613   1.625   1.625   1.652   1.666   1.690
  1.707   1.708   1.716   1.725   1.731   1.734   1.747   1.751
  1.762   1.769   1.779   1.781   1.803   1.824   1.824   1.839
  1.853   1.862   1.863   1.902   1.918   1.933   1.942   1.970
  1.974   2.001   2.008   2.014   2.021   2.029   2.056   2.067
  2.067   2.082   2.091   2.094   2.100   2.119   2.129   2.135
  2.184   2.186   2.194   2.194   2.211   2.233   2.252   2.255
  2.256   2.286   2.287   2.288   2.335   2.362   2.392   2.417
  2.436   2.488   2.504   2.540   2.558   2.613   2.635   2.638
  2.659   2.696   2.731   2.733   2.754   2.766   2.778   2.793
  2.801   2.828   2.838   2.838   2.856   2.896   2.899   2.933
  2.946   2.997   3.038   3.049   3.060   3.074   3.075   3.083
  3.088   3.089   3.108   3.124   3.131   3.139   3.162   3.171
  3.183   3.206   3.224   3.229   3.232   3.239   3.267   3.268
  3.284   3.298   3.306   3.321   3.341   3.345   3.346   3.360
  3.376   3.400   3.419   3.447   3.455   3.457   3.461   3.478
  3.490   3.495   3.526   3.533   3.551   3.552   3.570   3.597
  3.603   3.609   3.610   3.612   3.641   3.666   3.695   3.702
  3.715   3.734   3.779   3.796   3.797   3.798   3.825   3.833
  3.835   3.847   3.865   3.876   3.908   3.926   3.931   3.937
  3.939   3.941   4.013   4.029   4.033   4.034   4.072   4.092
  4.113   4.129   4.136   4.151   4.170   4.237   4.249   4.264
  4.288   4.291   4.324   4.334   4.364   4.365   4.366   4.421
  4.434   4.455   4.474   4.490   4.503   4.519   4.566   4.614
  4.640   4.665   4.678   4.712   4.733   4.741   4.763   4.859
  4.876   4.877   4.909   4.964   4.979   5.043   5.086   5.119
  5.196   5.226   5.234   5.249   5.249   5.259   5.286   5.291
  5.334   5.356   5.394   5.428   5.531   5.550   5.704   5.781
  5.793   5.838   5.881   6.250   6.257   6.926   6.929   6.943
  6.973   7.061   7.117   7.144   7.154   7.520   7.533   9.204
  9.218   9.717   9.754   9.782   9.786  20.820  20.863  23.189
 23.310  23.385  23.433  23.549  23.583  23.938  24.023
 
 Beta MOs
 -- Occupied --
-89.203 -89.203 -10.388 -10.388 -10.376 -10.376 -10.362 -10.362
-10.355 -10.355  -8.139  -8.139  -6.049  -6.049  -6.046  -6.046
 -6.041  -6.041  -1.018  -0.992  -0.894  -0.869  -0.854  -0.801
 -0.721  -0.689  -0.649  -0.640  -0.636  -0.574  -0.519  -0.511
 -0.508  -0.502  -0.499  -0.463  -0.461  -0.449  -0.425  -0.355
 -0.351  -0.336
 -- Virtual --
 -0.066   0.023   0.029   0.032   0.037   0.050   0.058   0.060
  0.073   0.074   0.078   0.085   0.091   0.108   0.109   0.118
  0.122   0.126   0.139   0.145   0.148   0.154   0.159   0.170
  0.173   0.173   0.189   0.198   0.205   0.205   0.207   0.212
  0.219   0.225   0.231   0.242   0.243   0.257   0.258   0.262
  0.269   0.269   0.269   0.274   0.290   0.290   0.293   0.296
  0.303   0.305   0.314   0.317   0.321   0.332   0.332   0.334
  0.347   0.353   0.354   0.355   0.362   0.363   0.370   0.376
  0.378   0.380   0.385   0.387   0.394   0.398   0.408   0.418
  0.422   0.433   0.438   0.440   0.444   0.446   0.452   0.454
  0.460   0.468   0.473   0.475   0.483   0.489   0.493   0.494
  0.505   0.506   0.512   0.513   0.514   0.521   0.544   0.546
  0.554   0.566   0.567   0.569   0.578   0.584   0.596   0.598
  0.607   0.610   0.615   0.632   0.633   0.640   0.646   0.658
  0.658   0.685   0.693   0.695   0.703   0.704   0.706   0.713
  0.723   0.726   0.732   0.733   0.735   0.742   0.744   0.756
  0.757   0.767   0.772   0.776   0.788   0.791   0.793   0.800
  0.804   0.807   0.812   0.816   0.821   0.822   0.826   0.849
  0.858   0.864   0.874   0.879   0.908   0.910   0.919   0.927
  0.949   0.952   0.957   0.963   0.974   0.983   0.990   0.994
  0.999   1.017   1.022   1.031   1.056   1.061   1.075   1.084
  1.085   1.088   1.118   1.120   1.129   1.149   1.158   1.170
  1.209   1.225   1.236   1.241   1.279   1.293   1.301   1.323
  1.326   1.360   1.366   1.394   1.397   1.429   1.446   1.452
  1.456   1.460   1.471   1.473   1.486   1.500   1.515   1.534
  1.534   1.564   1.589   1.608   1.625   1.629   1.642   1.657
  1.670   1.697   1.711   1.716   1.722   1.727   1.735   1.742
  1.754   1.757   1.770   1.785   1.786   1.787   1.828   1.834
  1.843   1.851   1.860   1.871   1.877   1.918   1.929   1.942
  1.946   1.976   1.979   2.004   2.019   2.021   2.030   2.039
  2.068   2.072   2.081   2.095   2.098   2.105   2.106   2.124
  2.139   2.144   2.194   2.196   2.202   2.207   2.217   2.236
  2.262   2.266   2.270   2.294   2.294   2.301   2.346   2.371
  2.401   2.427   2.447   2.498   2.515   2.548   2.569   2.630
  2.644   2.656   2.670   2.715   2.740   2.750   2.775   2.779
  2.789   2.807   2.808   2.833   2.851   2.854   2.865   2.907
  2.924   2.945   2.960   3.006   3.055   3.061   3.069   3.086
  3.093   3.101   3.105   3.116   3.121   3.141   3.149   3.151
  3.173   3.185   3.193   3.231   3.238   3.250   3.250   3.265
  3.277   3.290   3.296   3.313   3.325   3.333   3.357   3.359
  3.366   3.374   3.400   3.411   3.432   3.465   3.469   3.472
  3.477   3.494   3.504   3.515   3.543   3.550   3.566   3.571
  3.585   3.613   3.613   3.623   3.625   3.628   3.655   3.683
  3.703   3.716   3.733   3.745   3.790   3.807   3.813   3.815
  3.839   3.845   3.847   3.860   3.873   3.893   3.922   3.938
  3.943   3.948   3.951   3.954   4.017   4.037   4.038   4.041
  4.083   4.101   4.122   4.138   4.155   4.164   4.180   4.244
  4.258   4.274   4.294   4.305   4.342   4.344   4.369   4.382
  4.383   4.425   4.439   4.462   4.497   4.498   4.509   4.530
  4.576   4.632   4.652   4.675   4.694   4.726   4.744   4.759
  4.776   4.874   4.891   4.914   4.943   4.981   4.994   5.063
  5.102   5.133   5.219   5.236   5.244   5.265   5.266   5.270
  5.304   5.305   5.349   5.375   5.433   5.452   5.557   5.588
  5.722   5.784   5.814   5.860   5.894   6.265   6.271   6.928
  6.931   6.945   6.975   7.064   7.120   7.144   7.155   7.522
  7.535   9.208   9.223   9.718   9.754   9.782   9.787  20.821
 20.864  23.193  23.314  23.390  23.439  23.556  23.586  23.941
 24.027
 --------------------------------------------------------------
 
          Ground-State Mulliken Net Atomic Charges

     Atom                 Charge (a.u.)    Spin (a.u.)
  --------------------------------------------------------
      1 S                    -0.205155       0.094094
      2 C                    -0.154479       0.449403
      3 H                     0.230504       0.013089
      4 C                    -0.258469      -0.078530
      5 H                     0.156141      -0.000507
      6 C                    -0.289407       0.345296
      7 H                     0.059818       0.026389
      8 C                     0.461048       0.150783
      9 C                     0.461043       0.150766
     10 C                    -0.289398       0.345301
     11 H                     0.059819       0.026389
     12 C                    -0.258484      -0.078534
     13 H                     0.156139      -0.000507
     14 C                    -0.154468       0.449390
     15 H                     0.230504       0.013088
     16 S                    -0.205156       0.094091
  --------------------------------------------------------
  Sum of atomic charges =    -0.000000
  Sum of spin   charges =     2.000000

 -----------------------------------------------------------------
                    Cartesian Multipole Moments
 -----------------------------------------------------------------
    Charge (ESU x 10^10)
                -9.6064
    Dipole Moment (Debye)
         X       6.5478      Y      -0.9352      Z      20.3287
       Tot      21.3777
    Quadrupole Moments (Debye-Ang)
        XX     -99.8125     XY      -1.2886     YY     -84.9852
        XZ     -29.4633     YZ       1.9041     ZZ    -138.2541
    Octopole Moments (Debye-Ang^2)
       XXX     198.0182    XXY      -7.0916    XYY      57.5527
       YYY     -24.8048    XXZ     232.4978    XYZ       1.2589
       YYZ     179.8303    XZZ     160.2910    YZZ     -13.1426
       ZZZ     695.6416
    Hexadecapole Moments (Debye-Ang^3)
      XXXX   -1798.4186   XXXY      -1.2236   XXYY    -366.0847
      XYYY      38.1500   YYYY    -156.0251   XXXZ    -873.1061
      XXYZ      -2.8278   XYYZ    -268.5786   YYYZ     -23.2157
      XXZZ   -1089.0470   XYZZ      16.6263   YYZZ    -634.0273
      XZZZ   -1089.3316   YZZZ      19.3663   ZZZZ   -3988.1029
 -----------------------------------------------------------------
 Calculating analytic gradient of the SCF energy
 Number of grid points used for NLC = 44716
 Gradient of SCF Energy
            1           2           3           4           5           6
    1   0.0000355  -0.0000235   0.0000209   0.0000261   0.0000137   0.0000061
    2  -0.0000573   0.0000038  -0.0000346  -0.0000232  -0.0000001   0.0000012
    3  -0.0000001  -0.0000345  -0.0000100  -0.0000106  -0.0000591  -0.0000544
            7           8           9          10          11          12
    1   0.0000009   0.0000144  -0.0000157  -0.0000039  -0.0000011  -0.0000263
    2   0.0000280   0.0000243  -0.0000262  -0.0000026  -0.0000281   0.0000275
    3  -0.0000360   0.0000200  -0.0000195   0.0000556   0.0000360   0.0000068
           13          14          15          16
    1  -0.0000137   0.0000223  -0.0000208  -0.0000351
    2  -0.0000000  -0.0000084   0.0000345   0.0000611
    3   0.0000593   0.0000370   0.0000099  -0.0000004
 Max gradient component =       6.113E-05
 RMS gradient           =       2.875E-05
 Gradient time:  CPU 92.49 s  wall 92.11 s
 Geometry Optimization Parameters
   NAtoms,    NIC,     NZ,  NCons,   NDum,   NFix, NCnnct, MaxDiis
       16     111       0       1       0       0       0       0


** CONSTRAINED OPTIMIZATION IN DELOCALIZED INTERNAL COORDINATES **
   Searching for a Minimum

   Optimization Cycle:   1

                       Coordinates (Angstroms)
     ATOM                X               Y               Z
      1  S        -0.0180675100    0.4466191900   -0.0408592900
      2  C         1.6926804400    0.2166108700   -0.0439240600
      3  H         2.2550458700    0.3305548200    0.8671135700
      4  C         2.1935848100   -0.1115653500   -1.3030669500
      5  H         3.2449312800   -0.2870509600   -1.4774923200
      6  C         1.2341909700   -0.1883271400   -2.2796908100
      7  H         1.4178092200   -0.4288460700   -3.3154027100
      8  C        -0.1008011400    0.0925904100   -1.7763147300
      9  C        -1.2624453600    0.1021335800   -2.4560715100
     10  C        -2.5974336800    0.3830503500   -1.9526967800
     11  H        -2.7810533900    0.6235816400   -0.9169879800
     12  C        -3.5568336400    0.3062642600   -2.9293189100
     13  H        -4.6081823500    0.4817293100   -2.7548865900
     14  C        -3.0559361600   -0.0219615400   -4.1884466500
     15  H        -3.6183030600   -0.1359392000   -5.0994793100
     16  S        -1.3451735900   -0.2518581300   -4.1915332700
   Point Group: c1    Number of degrees of freedom:    42


   Energy is  -1104.695562013

              Constraints and their Current Values
                                        Value     Constraint
   Dihedral:        6   8   9  10     -180.000      180.000

 Attempting to Generate Delocalized Internal Coordinates

 41 Hessian modes will be used to form the next step
  Hessian Eigenvalues:
     0.045000    0.045000    0.045000    0.045000    0.045000    0.045000
     0.045000    0.045000    0.045000    0.045000    0.045000    0.045000
     0.160000    0.160000    0.160000    0.160000    0.160000    0.160000
     0.221198    0.221198    0.237567    0.237567    0.250000    0.250000
     0.279404    0.279405    0.320157    0.320157    0.359860    0.359860
     0.361141    0.361141    0.363991    0.363991    0.366347    0.366352
     0.448122    0.448129    0.491782    0.491790    0.558924

 Minimum Search - Taking Simple RFO Step
 Searching for Lamda that Minimizes Along All modes
 Value Taken    Lamda =   0.00000000
 Step Taken.  Stepsize is  0.000969

                             Maximum     Tolerance    Cnvgd?
         Gradient           0.000071      0.000300     YES
         Displacement       0.000587      0.001200     YES
         Energy change     *********      0.000001      NO

 Final energy is   -1104.69556201328     


 ******************************
 **  OPTIMIZATION CONVERGED  **
 ******************************

                       Coordinates (Angstroms)
     ATOM                X               Y               Z
      1  S        -0.0180675100    0.4466191900   -0.0408592900
      2  C         1.6926804400    0.2166108700   -0.0439240600
      3  H         2.2550458700    0.3305548200    0.8671135700
      4  C         2.1935848100   -0.1115653500   -1.3030669500
      5  H         3.2449312800   -0.2870509600   -1.4774923200
      6  C         1.2341909700   -0.1883271400   -2.2796908100
      7  H         1.4178092200   -0.4288460700   -3.3154027100
      8  C        -0.1008011400    0.0925904100   -1.7763147300
      9  C        -1.2624453600    0.1021335800   -2.4560715100
     10  C        -2.5974336800    0.3830503500   -1.9526967800
     11  H        -2.7810533900    0.6235816400   -0.9169879800
     12  C        -3.5568336400    0.3062642600   -2.9293189100
     13  H        -4.6081823500    0.4817293100   -2.7548865900
     14  C        -3.0559361600   -0.0219615400   -4.1884466500
     15  H        -3.6183030600   -0.1359392000   -5.0994793100
     16  S        -1.3451735900   -0.2518581300   -4.1915332700

Z-matrix Print:
$molecule
0 3
S 
C  1 1.726143
H  2 1.076674 1 120.135864
C  2 1.394286 1 112.893333 3 179.974816 0
H  4 1.080069 2 122.261668 1 -179.902799 0
C  4 1.371180 2 113.892707 1 0.125774 0
H  6 1.079011 4 125.245449 2 179.957531 0
C  6 1.454130 4 112.642766 2 -0.000841 0
C  8 1.345949 6 128.235425 4 179.886250 0
C  9 1.454134 8 128.235428 6 -180.000000 0
H  10 1.079011 9 122.111602 8 0.074393 0
C  10 1.371176 9 112.642777 8 -179.885130 0
H  12 1.080069 10 123.845768 9 179.970628 0
C  12 1.394290 10 113.892761 9 0.002293 0
H  14 1.076674 12 126.970674 10 179.901021 0
S  14 1.726144 12 112.893309 10 -0.130632 0
$end

 
 --------------------------------------------------------------
 
                    Orbital Energies (a.u.)
 --------------------------------------------------------------
 
 Alpha MOs
 -- Occupied --
-89.204 -89.204 -10.391 -10.390 -10.384 -10.384 -10.361 -10.361
-10.360 -10.360  -8.139  -8.139  -6.049  -6.049  -6.046  -6.046
 -6.044  -6.044  -1.025  -1.000  -0.903  -0.876  -0.861  -0.816
 -0.734  -0.696  -0.657  -0.647  -0.640  -0.580  -0.531  -0.524
 -0.517  -0.508  -0.504  -0.491  -0.468  -0.455  -0.429  -0.405
 -0.374  -0.360  -0.304  -0.200
 -- Virtual --
  0.030   0.032   0.039   0.051   0.056   0.059   0.060   0.072
  0.077   0.080   0.085   0.104   0.108   0.113   0.118   0.122
  0.126   0.127   0.145   0.155   0.159   0.169   0.171   0.172
  0.188   0.197   0.202   0.204   0.206   0.212   0.215   0.223
  0.231   0.241   0.244   0.255   0.257   0.263   0.264   0.267
  0.269   0.271   0.284   0.288   0.289   0.295   0.301   0.304
  0.314   0.316   0.319   0.331   0.331   0.333   0.348   0.350
  0.353   0.353   0.361   0.362   0.367   0.374   0.374   0.376
  0.381   0.384   0.394   0.395   0.407   0.418   0.419   0.432
  0.436   0.438   0.443   0.444   0.451   0.452   0.460   0.467
  0.472   0.474   0.481   0.487   0.491   0.492   0.502   0.506
  0.510   0.512   0.514   0.519   0.542   0.547   0.555   0.564
  0.564   0.566   0.578   0.582   0.596   0.597   0.603   0.608
  0.609   0.630   0.631   0.639   0.644   0.656   0.658   0.683
  0.690   0.691   0.697   0.703   0.706   0.712   0.721   0.724
  0.729   0.730   0.732   0.740   0.744   0.753   0.753   0.764
  0.769   0.772   0.787   0.788   0.791   0.798   0.800   0.805
  0.811   0.813   0.818   0.819   0.823   0.847   0.855   0.861
  0.870   0.874   0.904   0.907   0.916   0.923   0.944   0.947
  0.956   0.961   0.972   0.973   0.980   0.989   0.992   1.015
  1.015   1.029   1.055   1.055   1.067   1.080   1.082   1.086
  1.113   1.118   1.118   1.148   1.154   1.158   1.207   1.219
  1.234   1.239   1.277   1.286   1.296   1.321   1.322   1.356
  1.358   1.386   1.389   1.418   1.440   1.444   1.451   1.455
  1.467   1.469   1.481   1.496   1.512   1.530   1.533   1.558
  1.581   1.602   1.613   1.625   1.625   1.652   1.666   1.690
  1.707   1.708   1.716   1.725   1.731   1.734   1.747   1.751
  1.762   1.769   1.779   1.781   1.803   1.824   1.824   1.839
  1.853   1.862   1.863   1.902   1.918   1.933   1.942   1.970
  1.974   2.001   2.008   2.014   2.021   2.029   2.056   2.067
  2.067   2.082   2.091   2.094   2.100   2.119   2.129   2.135
  2.184   2.186   2.194   2.194   2.211   2.233   2.252   2.255
  2.256   2.286   2.287   2.288   2.335   2.362   2.392   2.417
  2.436   2.488   2.504   2.540   2.558   2.613   2.635   2.638
  2.659   2.696   2.731   2.733   2.754   2.766   2.778   2.793
  2.801   2.828   2.838   2.838   2.856   2.896   2.899   2.933
  2.946   2.997   3.038   3.049   3.060   3.074   3.075   3.083
  3.088   3.089   3.108   3.124   3.131   3.139   3.162   3.171
  3.183   3.206   3.224   3.229   3.232   3.239   3.267   3.268
  3.284   3.298   3.306   3.321   3.341   3.345   3.346   3.360
  3.376   3.400   3.419   3.447   3.455   3.457   3.461   3.478
  3.490   3.495   3.526   3.533   3.551   3.552   3.570   3.597
  3.603   3.609   3.610   3.612   3.641   3.666   3.695   3.702
  3.715   3.734   3.779   3.796   3.797   3.798   3.825   3.833
  3.835   3.847   3.865   3.876   3.908   3.926   3.931   3.937
  3.939   3.941   4.013   4.029   4.033   4.034   4.072   4.092
  4.113   4.129   4.136   4.151   4.170   4.237   4.249   4.264
  4.288   4.291   4.324   4.334   4.364   4.365   4.366   4.421
  4.434   4.455   4.474   4.490   4.503   4.519   4.566   4.614
  4.640   4.665   4.678   4.712   4.733   4.741   4.763   4.859
  4.876   4.877   4.909   4.964   4.979   5.043   5.086   5.119
  5.196   5.226   5.234   5.249   5.249   5.259   5.286   5.291
  5.334   5.356   5.394   5.428   5.531   5.550   5.704   5.781
  5.793   5.838   5.881   6.250   6.257   6.926   6.929   6.943
  6.973   7.061   7.117   7.144   7.154   7.520   7.533   9.204
  9.218   9.717   9.754   9.782   9.786  20.820  20.863  23.189
 23.310  23.385  23.433  23.549  23.583  23.938  24.023
 
 Beta MOs
 -- Occupied --
-89.203 -89.203 -10.388 -10.388 -10.376 -10.376 -10.362 -10.362
-10.355 -10.355  -8.139  -8.139  -6.049  -6.049  -6.046  -6.046
 -6.041  -6.041  -1.018  -0.992  -0.894  -0.869  -0.854  -0.801
 -0.721  -0.689  -0.649  -0.640  -0.636  -0.574  -0.519  -0.511
 -0.508  -0.502  -0.499  -0.463  -0.461  -0.449  -0.425  -0.355
 -0.351  -0.336
 -- Virtual --
 -0.066   0.023   0.029   0.032   0.037   0.050   0.058   0.060
  0.073   0.074   0.078   0.085   0.091   0.108   0.109   0.118
  0.122   0.126   0.139   0.145   0.148   0.154   0.159   0.170
  0.173   0.173   0.189   0.198   0.205   0.205   0.207   0.212
  0.219   0.225   0.231   0.242   0.243   0.257   0.258   0.262
  0.269   0.269   0.269   0.274   0.290   0.290   0.293   0.296
  0.303   0.305   0.314   0.317   0.321   0.332   0.332   0.334
  0.347   0.353   0.354   0.355   0.362   0.363   0.370   0.376
  0.378   0.380   0.385   0.387   0.394   0.398   0.408   0.418
  0.422   0.433   0.438   0.440   0.444   0.446   0.452   0.454
  0.460   0.468   0.473   0.475   0.483   0.489   0.493   0.494
  0.505   0.506   0.512   0.513   0.514   0.521   0.544   0.546
  0.554   0.566   0.567   0.569   0.578   0.584   0.596   0.598
  0.607   0.610   0.615   0.632   0.633   0.640   0.646   0.658
  0.658   0.685   0.693   0.695   0.703   0.704   0.706   0.713
  0.723   0.726   0.732   0.733   0.735   0.742   0.744   0.756
  0.757   0.767   0.772   0.776   0.788   0.791   0.793   0.800
  0.804   0.807   0.812   0.816   0.821   0.822   0.826   0.849
  0.858   0.864   0.874   0.879   0.908   0.910   0.919   0.927
  0.949   0.952   0.957   0.963   0.974   0.983   0.990   0.994
  0.999   1.017   1.022   1.031   1.056   1.061   1.075   1.084
  1.085   1.088   1.118   1.120   1.129   1.149   1.158   1.170
  1.209   1.225   1.236   1.241   1.279   1.293   1.301   1.323
  1.326   1.360   1.366   1.394   1.397   1.429   1.446   1.452
  1.456   1.460   1.471   1.473   1.486   1.500   1.515   1.534
  1.534   1.564   1.589   1.608   1.625   1.629   1.642   1.657
  1.670   1.697   1.711   1.716   1.722   1.727   1.735   1.742
  1.754   1.757   1.770   1.785   1.786   1.787   1.828   1.834
  1.843   1.851   1.860   1.871   1.877   1.918   1.929   1.942
  1.946   1.976   1.979   2.004   2.019   2.021   2.030   2.039
  2.068   2.072   2.081   2.095   2.098   2.105   2.106   2.124
  2.139   2.144   2.194   2.196   2.202   2.207   2.217   2.236
  2.262   2.266   2.270   2.294   2.294   2.301   2.346   2.371
  2.401   2.427   2.447   2.498   2.515   2.548   2.569   2.630
  2.644   2.656   2.670   2.715   2.740   2.750   2.775   2.779
  2.789   2.807   2.808   2.833   2.851   2.854   2.865   2.907
  2.924   2.945   2.960   3.006   3.055   3.061   3.069   3.086
  3.093   3.101   3.105   3.116   3.121   3.141   3.149   3.151
  3.173   3.185   3.193   3.231   3.238   3.250   3.250   3.265
  3.277   3.290   3.296   3.313   3.325   3.333   3.357   3.359
  3.366   3.374   3.400   3.411   3.432   3.465   3.469   3.472
  3.477   3.494   3.504   3.515   3.543   3.550   3.566   3.571
  3.585   3.613   3.613   3.623   3.625   3.628   3.655   3.683
  3.703   3.716   3.733   3.745   3.790   3.807   3.813   3.815
  3.839   3.845   3.847   3.860   3.873   3.893   3.922   3.938
  3.943   3.948   3.951   3.954   4.017   4.037   4.038   4.041
  4.083   4.101   4.122   4.138   4.155   4.164   4.180   4.244
  4.258   4.274   4.294   4.305   4.342   4.344   4.369   4.382
  4.383   4.425   4.439   4.462   4.497   4.498   4.509   4.530
  4.576   4.632   4.652   4.675   4.694   4.726   4.744   4.759
  4.776   4.874   4.891   4.914   4.943   4.981   4.994   5.063
  5.102   5.133   5.219   5.236   5.244   5.265   5.266   5.270
  5.304   5.305   5.349   5.375   5.433   5.452   5.557   5.588
  5.722   5.784   5.814   5.860   5.894   6.265   6.271   6.928
  6.931   6.945   6.975   7.064   7.120   7.144   7.155   7.522
  7.535   9.208   9.223   9.718   9.754   9.782   9.787  20.821
 20.864  23.193  23.314  23.390  23.439  23.556  23.586  23.941
 24.027
 --------------------------------------------------------------
 
          Ground-State Mulliken Net Atomic Charges

     Atom                 Charge (a.u.)    Spin (a.u.)
  --------------------------------------------------------
      1 S                    -0.205155       0.094094
      2 C                    -0.154479       0.449403
      3 H                     0.230504       0.013089
      4 C                    -0.258469      -0.078530
      5 H                     0.156141      -0.000507
      6 C                    -0.289407       0.345296
      7 H                     0.059818       0.026389
      8 C                     0.461048       0.150783
      9 C                     0.461043       0.150766
     10 C                    -0.289398       0.345301
     11 H                     0.059819       0.026389
     12 C                    -0.258484      -0.078534
     13 H                     0.156139      -0.000507
     14 C                    -0.154468       0.449390
     15 H                     0.230504       0.013088
     16 S                    -0.205156       0.094091
  --------------------------------------------------------
  Sum of atomic charges =    -0.000000
  Sum of spin   charges =     2.000000

 -----------------------------------------------------------------
                    Cartesian Multipole Moments
 -----------------------------------------------------------------
    Charge (ESU x 10^10)
                -9.6064
    Dipole Moment (Debye)
         X       6.5478      Y      -0.9352      Z      20.3287
       Tot      21.3777
    Quadrupole Moments (Debye-Ang)
        XX     -99.8125     XY      -1.2886     YY     -84.9852
        XZ     -29.4633     YZ       1.9041     ZZ    -138.2541
    Octopole Moments (Debye-Ang^2)
       XXX     198.0182    XXY      -7.0916    XYY      57.5527
       YYY     -24.8048    XXZ     232.4978    XYZ       1.2589
       YYZ     179.8303    XZZ     160.2910    YZZ     -13.1426
       ZZZ     695.6416
    Hexadecapole Moments (Debye-Ang^3)
      XXXX   -1798.4186   XXXY      -1.2236   XXYY    -366.0847
      XYYY      38.1500   YYYY    -156.0251   XXXZ    -873.1061
      XXYZ      -2.8278   XYYZ    -268.5786   YYYZ     -23.2157
      XXZZ   -1089.0470   XYZZ      16.6263   YYZZ    -634.0273
      XZZZ   -1089.3316   YZZZ      19.3663   ZZZZ   -3988.1029
 -----------------------------------------------------------------
Archival summary:
1\1\nid01829\OPT\ProcedureUnspecified\BasisUnspecified\286(3)\bwood\ThuFeb2200:26:322018ThuFeb2200:26:322018\0\\#,OPT,ProcedureUnspecified,BasisUnspecified,\\0,3\S\C,1,1.72614\H,2,1.07667,1,120.136\C,2,1.39429,1,112.893,3,179.975,0\H,4,1.08007,2,122.262,1,-179.903,0\C,4,1.37118,2,113.893,1,0.125774,0\H,6,1.07901,4,125.245,2,179.958,0\C,6,1.45413,4,112.643,2,-0.000841209,0\C,8,1.34595,6,128.235,4,179.886,0\C,9,1.45413,8,128.235,6,-180,0\H,10,1.07901,9,122.112,8,0.0743928,0\C,10,1.37118,9,112.643,8,-179.885,0\H,12,1.08007,10,123.846,9,179.971,0\C,12,1.39429,10,113.893,9,0.00229335,0\H,14,1.07667,12,126.971,10,179.901,0\S,14,1.72614,12,112.893,10,-0.130632,0\\\@

 Total job time:  600.46s(wall), 603.30s(cpu) 
 Thu Feb 22 00:26:32 2018

        *************************************************************
        *                                                           *
        *  Thank you very much for using Q-Chem.  Have a nice day.  *
        *                                                           *
        *************************************************************


0 sent ACK to 0 
now end server 0 ... 
