 vasp.5.3.5 31Mar14 (build Oct 24 2014 12:38:34) complex                        
  
 executed on             LinuxIFC date 2016.10.20  19:24:48
 running on    8 total cores
 distrk:  each k-point on    8 cores,    1 groups
 distr:  one band on NCORES_PER_BAND=   1 cores,    8 groups


--------------------------------------------------------------------------------------------------------


 INCAR:
 POTCAR:    PAW_PBE Ba_sv 06Sep2000               
 POTCAR:    PAW_PBE Ti_pv 07Sep2000               
 POTCAR:    PAW_PBE O 08Apr2002                   

 ----------------------------------------------------------------------------- 
|                                                                             |
|           W    W    AA    RRRRR   N    N  II  N    N   GGGG   !!!           |
|           W    W   A  A   R    R  NN   N  II  NN   N  G    G  !!!           |
|           W    W  A    A  R    R  N N  N  II  N N  N  G       !!!           |
|           W WW W  AAAAAA  RRRRR   N  N N  II  N  N N  G  GGG   !            |
|           WW  WW  A    A  R   R   N   NN  II  N   NN  G    G                |
|           W    W  A    A  R    R  N    N  II  N    N   GGGG   !!!           |
|                                                                             |
|      For optimal performance we recommend to set                            |
|        NCORE= 4 - approx SQRT( number of cores)                             |
|      NCORE specifies how many cores store one orbital (NPAR=cpu/NCORE).     |
|      This setting can  greatly improve the performance of VASP for DFT.     |
|      The default, NPAR=number of cores might be grossly inefficient         |
|      on modern multi-core architectures or massively parallel machines.     |
|      Do your own testing !!!!                                               |
|      Unfortunately you need to use the default for GW and RPA calculations. |
|      (for HF NCORE is supported but not extensively tested yet)             |
|                                                                             |
 ----------------------------------------------------------------------------- 

 POTCAR:    PAW_PBE Ba_sv 06Sep2000               
   VRHFIN =Ba: 5s5p6s                                                           
   LEXCH  = PE                                                                  
   EATOM  =   700.8560 eV,   51.5115 Ry                                         
                                                                                
   TITEL  = PAW_PBE Ba_sv 06Sep2000                                             
   LULTRA =        F    use ultrasoft PP ?                                      
   IUNSCR =        1    unscreen: 0-lin 1-nonlin 2-no                           
   RPACOR =    2.400    partial core radius                                     
   POMASS =  137.327; ZVAL   =   10.000    mass and valenz                      
   RCORE  =    2.800    outmost cutoff radius                                   
   RWIGS  =    3.740; RWIGS  =    1.979    wigner-seitz radius (au A)           
   ENMAX  =  187.181; ENMIN  =  140.386 eV                                      
   RCLOC  =    2.516    cutoff for local pot                                    
   LCOR   =        T    correct aug charges                                     
   LPAW   =        T    paw PP                                                  
   EAUG   =  351.165                                                            
   DEXC   =    0.000                                                            
   RMAX   =    2.865    core radius for proj-oper                               
   RAUG   =    1.300    factor for augmentation sphere                          
   RDEP   =    2.976    radius for radial grids                                 
   RDEPT  =    2.289    core radius for aug-charge                              
                                                                                
   Atomic configuration                                                         
   13 entries                                                                   
     n  l   j            E        occ.                                          
     1  0  0.50    -37249.5946   2.0000                                         
     2  0  0.50     -5887.1925   2.0000                                         
     2  1  1.50     -5278.3977   6.0000                                         
     3  0  0.50     -1242.7293   2.0000                                         
     3  1  1.50     -1047.6609   6.0000                                         
     3  2  2.50      -764.6158  10.0000                                         
     4  0  0.50      -243.8228   2.0000                                         
     4  1  1.50      -180.9218   6.0000                                         
     4  2  2.50       -89.6477  10.0000                                         
     5  0  0.50       -33.6549   2.0000                                         
     6  0  0.50        -3.2247   1.9900                                         
     5  1  1.50       -18.7193   6.0000                                         
     5  2  2.50        -2.0115   0.0100                                         
   Description                                                                  
     l       E           TYP  RCUT    TYP  RCUT                                 
     0    -33.6549039     23  2.800                                             
     0     -3.2246942     23  2.800                                             
     1    -18.7193050     23  2.700                                             
     1     27.2116520     23  2.700                                             
     2     -2.0115002     23  2.700                                             
     2      0.3057420     23  2.700                                             
  local pseudopotential read in
  partial core-charges read in
  partial kinetic energy density read in
  atomic valenz-charges read in
  non local Contribution for L=           0  read in
    real space projection operators read in
  non local Contribution for L=           0  read in
    real space projection operators read in
  non local Contribution for L=           1  read in
    real space projection operators read in
  non local Contribution for L=           1  read in
    real space projection operators read in
  non local Contribution for L=           2  read in
    real space projection operators read in
  non local Contribution for L=           2  read in
    real space projection operators read in
    PAW grid and wavefunctions read in
 
   number of l-projection  operators is LMAX  =           6
   number of lm-projection operators is LMMAX =          18
 
 POTCAR:    PAW_PBE Ti_pv 07Sep2000               
   VRHFIN =Ti: d3 s1                                                            
   LEXCH  = PE                                                                  
   EATOM  =  1042.5995 eV,   76.6289 Ry                                         
                                                                                
   TITEL  = PAW_PBE Ti_pv 07Sep2000                                             
   LULTRA =        F    use ultrasoft PP ?                                      
   IUNSCR =        1    unscreen: 0-lin 1-nonlin 2-no                           
   RPACOR =    2.200    partial core radius                                     
   POMASS =   47.880; ZVAL   =   10.000    mass and valenz                      
   RCORE  =    2.500    outmost cutoff radius                                   
   RWIGS  =    2.500; RWIGS  =    1.323    wigner-seitz radius (au A)           
   ENMAX  =  222.335; ENMIN  =  166.751 eV                                      
   RCLOC  =    1.701    cutoff for local pot                                    
   LCOR   =        T    correct aug charges                                     
   LPAW   =        T    paw PP                                                  
   EAUG   =  482.848                                                            
   DEXC   =    0.000                                                            
   RMAX   =    2.564    core radius for proj-oper                               
   RAUG   =    1.300    factor for augmentation sphere                          
   RDEP   =    2.538    radius for radial grids                                 
   RDEPT  =    1.952    core radius for aug-charge                              
                                                                                
   Atomic configuration                                                         
    8 entries                                                                   
     n  l   j            E        occ.                                          
     1  0  0.50     -4865.3608   2.0000                                         
     2  0  0.50      -533.1368   2.0000                                         
     2  1  1.50      -440.5031   6.0000                                         
     3  0  0.50       -59.3186   2.0000                                         
     3  1  1.50       -35.7012   6.0000                                         
     3  2  2.50        -1.9157   3.0000                                         
     4  0  0.50        -3.7291   1.0000                                         
     4  3  2.50        -1.3606   0.0000                                         
   Description                                                                  
     l       E           TYP  RCUT    TYP  RCUT                                 
     1    -35.7012140     23  2.300                                             
     1     -1.3605826     23  2.300                                             
     2     -1.9156996     23  2.500                                             
     2     -0.4063033     23  2.500                                             
     0     -3.7290856     23  2.500                                             
     0     20.4087390     23  2.500                                             
  local pseudopotential read in
  partial core-charges read in
  partial kinetic energy density read in
  atomic valenz-charges read in
  non local Contribution for L=           1  read in
    real space projection operators read in
  non local Contribution for L=           1  read in
    real space projection operators read in
  non local Contribution for L=           2  read in
    real space projection operators read in
  non local Contribution for L=           2  read in
    real space projection operators read in
  non local Contribution for L=           0  read in
    real space projection operators read in
  non local Contribution for L=           0  read in
    real space projection operators read in
    PAW grid and wavefunctions read in
 
   number of l-projection  operators is LMAX  =           6
   number of lm-projection operators is LMMAX =          18
 
 POTCAR:    PAW_PBE O 08Apr2002                   
   VRHFIN =O: s2p4                                                              
   LEXCH  = PE                                                                  
   EATOM  =   432.3788 eV,   31.7789 Ry                                         
                                                                                
   TITEL  = PAW_PBE O 08Apr2002                                                 
   LULTRA =        F    use ultrasoft PP ?                                      
   IUNSCR =        1    unscreen: 0-lin 1-nonlin 2-no                           
   RPACOR =    1.200    partial core radius                                     
   POMASS =   16.000; ZVAL   =    6.000    mass and valenz                      
   RCORE  =    1.520    outmost cutoff radius                                   
   RWIGS  =    1.550; RWIGS  =    0.820    wigner-seitz radius (au A)           
   ENMAX  =  400.000; ENMIN  =  300.000 eV                                      
   ICORE  =        2    local potential                                         
   LCOR   =        T    correct aug charges                                     
   LPAW   =        T    paw PP                                                  
   EAUG   =  605.392                                                            
   DEXC   =    0.000                                                            
   RMAX   =    1.553    core radius for proj-oper                               
   RAUG   =    1.300    factor for augmentation sphere                          
   RDEP   =    1.550    radius for radial grids                                 
   RDEPT  =    1.329    core radius for aug-charge                              
                                                                                
   Atomic configuration                                                         
    4 entries                                                                   
     n  l   j            E        occ.                                          
     1  0  0.50      -514.6923   2.0000                                         
     2  0  0.50       -23.9615   2.0000                                         
     2  1  0.50        -9.0305   4.0000                                         
     3  2  1.50        -9.5241   0.0000                                         
   Description                                                                  
     l       E           TYP  RCUT    TYP  RCUT                                 
     0    -23.9615318     23  1.200                                             
     0     -9.5240782     23  1.200                                             
     1     -9.0304911     23  1.520                                             
     1      8.1634956     23  1.520                                             
     2     -9.5240782      7  1.500                                             
  local pseudopotential read in
  partial core-charges read in
  partial kinetic energy density read in
  kinetic energy density of atom read in
  atomic valenz-charges read in
  non local Contribution for L=           0  read in
    real space projection operators read in
  non local Contribution for L=           0  read in
    real space projection operators read in
  non local Contribution for L=           1  read in
    real space projection operators read in
  non local Contribution for L=           1  read in
    real space projection operators read in
    PAW grid and wavefunctions read in
 
   number of l-projection  operators is LMAX  =           4
   number of lm-projection operators is LMMAX =           8
 

 ----------------------------------------------------------------------------- 
|                                                                             |
|  ADVICE TO THIS USER RUNNING 'VASP/VAMP'   (HEAR YOUR MASTER'S VOICE ...):  |
|                                                                             |
|      You have a (more or less) 'small supercell' and for smaller cells      |
|      it is recommended  to use the reciprocal-space projection scheme!      |
|      The real space optimization is not  efficient for small cells and it   |
|      is also less accurate ...                                              |
|      Therefore set LREAL=.FALSE. in the  INCAR file                         |
|                                                                             |
 ----------------------------------------------------------------------------- 

 Optimization of the real space projectors (new method)

 maximal supplied QI-value         = 13.42
 optimisation between [QCUT,QGAM] = [ 11.67, 23.35] = [ 38.16,152.62] Ry 
 Optimized for a Real-space Cutoff    1.68 Angstroem

   l    n(q)    QCUT    max X(q) W(low)/X(q) W(high)/X(q)  e(spline) 
   0     12    11.673    13.244    0.27E-04    0.53E-05    0.55E-07
   0     12    11.673    14.240    0.39E-04    0.74E-05    0.11E-06
   1     11    11.673     4.828    0.65E-05    0.14E-04    0.51E-07
   1     11    11.673     3.934    0.16E-04    0.58E-04    0.38E-06
   2     11    11.673    87.714    0.23E-03    0.16E-03    0.84E-06
   2     11    11.673    59.874    0.22E-03    0.15E-03    0.81E-06
 Optimization of the real space projectors (new method)

 maximal supplied QI-value         = 15.12
 optimisation between [QCUT,QGAM] = [ 11.64, 23.28] = [ 37.95,151.78] Ry 
 Optimized for a Real-space Cutoff    1.49 Angstroem

   l    n(q)    QCUT    max X(q) W(low)/X(q) W(high)/X(q)  e(spline) 
   1     10    11.641     4.216    0.17E-04    0.40E-04    0.50E-07
   1     10    11.641     5.422    0.66E-04    0.10E-03    0.13E-06
   2      9    11.641    72.084    0.68E-04    0.13E-03    0.50E-06
   2      9    11.641    65.965    0.66E-04    0.13E-03    0.50E-06
   0     10    11.641    41.531    0.10E-03    0.87E-04    0.31E-06
   0     10    11.641    16.290    0.75E-04    0.66E-04    0.24E-06
 Optimization of the real space projectors (new method)

 maximal supplied QI-value         = 24.76
 optimisation between [QCUT,QGAM] = [ 11.64, 23.27] = [ 37.91,151.63] Ry 
 Optimized for a Real-space Cutoff    1.14 Angstroem

   l    n(q)    QCUT    max X(q) W(low)/X(q) W(high)/X(q)  e(spline) 
   0      8    11.635    20.381    0.10E-03    0.33E-03    0.24E-06
   0      8    11.635    15.268    0.11E-03    0.35E-03    0.26E-06
   1      7    11.635     5.964    0.24E-03    0.31E-03    0.30E-06
   1      7    11.635     5.382    0.22E-03    0.25E-03    0.26E-06
  PAW_PBE Ba_sv 06Sep2000               :
 energy of atom  1       EATOM= -700.8560
 kinetic energy error for atom=    0.0005 (will be added to EATOM!!)
  PAW_PBE Ti_pv 07Sep2000               :
 energy of atom  2       EATOM=-1042.5995
 kinetic energy error for atom=    0.0019 (will be added to EATOM!!)
  PAW_PBE O 08Apr2002                   :
 energy of atom  3       EATOM= -432.3788
 kinetic energy error for atom=    0.0208 (will be added to EATOM!!)
 
 
 POSCAR: Ba1 Ti1 O3                              
  positions in direct lattice
  velocities in cartesian coordinates
 exchange correlation table for  LEXCH =        8
   RHO(1)=    0.500       N(1)  =     2000
   RHO(2)=  100.500       N(2)  =     4000
 


--------------------------------------------------------------------------------------------------------


 ion  position               nearest neighbor table
   1  0.000  0.000  0.009-   3 2.84   4 2.84   3 2.84   4 2.84   5 2.85   5 2.85   5 2.85   5 2.85
                             3 2.90   4 2.90   4 2.90   3 2.90   2 3.49   2 3.49   2 3.49   2 3.49
   2  0.500  0.500  0.515-   5 1.95   4 2.01   3 2.01   4 2.01   3 2.01   5 2.14   1 3.49   1 3.49
                             1 3.49   1 3.49   1 3.52   1 3.52   1 3.52   1 3.52
   3  0.000  0.500  0.499-   2 2.01   2 2.01   1 2.84   1 2.84   1 2.90   1 2.90
   4  0.500  0.000  0.499-   2 2.01   2 2.01   1 2.84   1 2.84   1 2.90   1 2.90
   5  0.500  0.500  0.992-   2 1.95   2 2.14   1 2.85   1 2.85   1 2.85   1 2.85
 
  LATTYP: Found a simple tetragonal cell.
 ALAT       =     4.0224850000
 C/A-ratio  =     1.0177648891
  
  Lattice vectors:
  
 A1 = (   4.0224850000,   0.0000000000,   0.0000000000)
 A2 = (   0.0000000000,   4.0224850000,   0.0000000000)
 A3 = (   0.0000000000,   0.0000000000,   4.0939440000)


Analysis of symmetry for initial positions (statically):
=====================================================================
 Subroutine PRICEL returns:
 Original cell was already a primitive cell.
 

 Routine SETGRP: Setting up the symmetry group for a 
 simple tetragonal supercell.


 Subroutine GETGRP returns: Found  8 space group operations
 (whereof  8 operations were pure point group operations)
 out of a pool of 16 trial point group operations.


The static configuration has the point symmetry C_4v.


Analysis of symmetry for dynamics (positions and initial velocities):
=====================================================================
 Subroutine PRICEL returns:
 Original cell was already a primitive cell.
 

 Routine SETGRP: Setting up the symmetry group for a 
 simple tetragonal supercell.


 Subroutine GETGRP returns: Found  8 space group operations
 (whereof  8 operations were pure point group operations)
 out of a pool of 16 trial point group operations.


The dynamic configuration has the point symmetry C_4v.


Analysis of magnetic symmetry:
=====================================================================
 Subroutine PRICEL returns:
 Original cell was already a primitive cell.
 

 Subroutine MAGSYM returns: Found  8 space group operations
 (whereof  8 operations were pure point group operations)
 out of a pool of  8 trial space group operations
 (whereof  8 operations were pure point group operations)
 and found also     1 'primitive' translations


The magnetic configuration has the point symmetry C_4v.
 
 
 KPOINTS: pymatgen generated KPOINTS with grid den

Automatic generation of k-mesh.
Space group operators:
 irot       det(A)        alpha          n_x          n_y          n_z        tau_x        tau_y        tau_z
    1     1.000000     0.000000     1.000000     0.000000     0.000000     0.000000     0.000000     0.000000
    2     1.000000    90.000000     0.000000     0.000000    -1.000000     0.000000     0.000000     0.000000
    3     1.000000   180.000000     0.000000     0.000000     1.000000     0.000000     0.000000     0.000000
    4     1.000000    90.000000     0.000000     0.000000     1.000000     0.000000     0.000000     0.000000
    5    -1.000000   179.999999     0.000000     1.000000     0.000000     0.000000     0.000000     0.000000
    6    -1.000000   180.000000     0.707107     0.707107     0.000000     0.000000     0.000000     0.000000
    7    -1.000000   180.000000     1.000000     0.000000     0.000000     0.000000     0.000000     0.000000
    8    -1.000000   180.000000     0.707107    -0.707107     0.000000     0.000000     0.000000     0.000000
 
 Subroutine IBZKPT returns following result:
 ===========================================
 
 Found     40 irreducible k-points:
 
 Following reciprocal coordinates:
            Coordinates               Weight
  0.062500  0.062500  0.062500      8.000000
  0.187500  0.062500  0.062500     16.000000
  0.312500  0.062500  0.062500     16.000000
  0.437500  0.062500  0.062500     16.000000
  0.187500  0.187500  0.062500      8.000000
  0.312500  0.187500  0.062500     16.000000
  0.437500  0.187500  0.062500     16.000000
  0.312500  0.312500  0.062500      8.000000
  0.437500  0.312500  0.062500     16.000000
  0.437500  0.437500  0.062500      8.000000
  0.062500  0.062500  0.187500      8.000000
  0.187500  0.062500  0.187500     16.000000
  0.312500  0.062500  0.187500     16.000000
  0.437500  0.062500  0.187500     16.000000
  0.187500  0.187500  0.187500      8.000000
  0.312500  0.187500  0.187500     16.000000
  0.437500  0.187500  0.187500     16.000000
  0.312500  0.312500  0.187500      8.000000
  0.437500  0.312500  0.187500     16.000000
  0.437500  0.437500  0.187500      8.000000
  0.062500  0.062500  0.312500      8.000000
  0.187500  0.062500  0.312500     16.000000
  0.312500  0.062500  0.312500     16.000000
  0.437500  0.062500  0.312500     16.000000
  0.187500  0.187500  0.312500      8.000000
  0.312500  0.187500  0.312500     16.000000
  0.437500  0.187500  0.312500     16.000000
  0.312500  0.312500  0.312500      8.000000
  0.437500  0.312500  0.312500     16.000000
  0.437500  0.437500  0.312500      8.000000
  0.062500  0.062500  0.437500      8.000000
  0.187500  0.062500  0.437500     16.000000
  0.312500  0.062500  0.437500     16.000000
  0.437500  0.062500  0.437500     16.000000
  0.187500  0.187500  0.437500      8.000000
  0.312500  0.187500  0.437500     16.000000
  0.437500  0.187500  0.437500     16.000000
  0.312500  0.312500  0.437500      8.000000
  0.437500  0.312500  0.437500     16.000000
  0.437500  0.437500  0.437500      8.000000
 
 Following cartesian coordinates:
            Coordinates               Weight
  0.015538  0.015538  0.015266      8.000000
  0.046613  0.015538  0.015266     16.000000
  0.077688  0.015538  0.015266     16.000000
  0.108764  0.015538  0.015266     16.000000
  0.046613  0.046613  0.015266      8.000000
  0.077688  0.046613  0.015266     16.000000
  0.108764  0.046613  0.015266     16.000000
  0.077688  0.077688  0.015266      8.000000
  0.108764  0.077688  0.015266     16.000000
  0.108764  0.108764  0.015266      8.000000
  0.015538  0.015538  0.045799      8.000000
  0.046613  0.015538  0.045799     16.000000
  0.077688  0.015538  0.045799     16.000000
  0.108764  0.015538  0.045799     16.000000
  0.046613  0.046613  0.045799      8.000000
  0.077688  0.046613  0.045799     16.000000
  0.108764  0.046613  0.045799     16.000000
  0.077688  0.077688  0.045799      8.000000
  0.108764  0.077688  0.045799     16.000000
  0.108764  0.108764  0.045799      8.000000
  0.015538  0.015538  0.076332      8.000000
  0.046613  0.015538  0.076332     16.000000
  0.077688  0.015538  0.076332     16.000000
  0.108764  0.015538  0.076332     16.000000
  0.046613  0.046613  0.076332      8.000000
  0.077688  0.046613  0.076332     16.000000
  0.108764  0.046613  0.076332     16.000000
  0.077688  0.077688  0.076332      8.000000
  0.108764  0.077688  0.076332     16.000000
  0.108764  0.108764  0.076332      8.000000
  0.015538  0.015538  0.106865      8.000000
  0.046613  0.015538  0.106865     16.000000
  0.077688  0.015538  0.106865     16.000000
  0.108764  0.015538  0.106865     16.000000
  0.046613  0.046613  0.106865      8.000000
  0.077688  0.046613  0.106865     16.000000
  0.108764  0.046613  0.106865     16.000000
  0.077688  0.077688  0.106865      8.000000
  0.108764  0.077688  0.106865     16.000000
  0.108764  0.108764  0.106865      8.000000
 
 TETIRR: Found    703 inequivalent tetrahedra from     3072


--------------------------------------------------------------------------------------------------------




 Dimension of arrays:
   k-points           NKPTS =     40   k-points in BZ     NKDIM =     40   number of bands    NBANDS=     32
   number of dos      NEDOS =    301   number of ions     NIONS =      5
   non local maximal  LDIM  =      6   non local SUM 2l+1 LMDIM =     18
   total plane-waves  NPLWV =  27000
   max r-space proj   IRMAX =   8088   max aug-charges    IRDMAX=  25711
   dimension x,y,z NGX =    30 NGY =   30 NGZ =   30
   dimension x,y,z NGXF=    60 NGYF=   60 NGZF=   60
   support grid    NGXF=    60 NGYF=   60 NGZF=   60
   ions per type =               1   1   3
 NGX,Y,Z   is equivalent  to a cutoff of  12.40, 12.40, 12.18 a.u.
 NGXF,Y,Z  is equivalent  to a cutoff of  24.80, 24.80, 24.36 a.u.


 I would recommend the setting:
   dimension x,y,z NGX =    30 NGY =   30 NGZ =   30
 SYSTEM =  unknown system                          
 POSCAR =  Ba1 Ti1 O3                              

 Startparameter for this run:
   NWRITE =      2    write-flag & timer
   PREC   = accura    normal or accurate (medium, high low for compatibility)
   ISTART =      0    job   : 0-new  1-cont  2-samecut
   ICHARG =      0    charge: 1-file 2-atom 10-const
   ISPIN  =      2    spin polarized calculation?
   LNONCOLLINEAR =      F non collinear calculations
   LSORBIT =      F    spin-orbit coupling
   INIWAV =      1    electr: 0-lowe 1-rand  2-diag
   LASPH  =      F    aspherical Exc in radial PAW
   METAGGA=      F    non-selfconsistent MetaGGA calc.

 Electronic Relaxation 1
   ENCUT  =  520.0 eV  38.22 Ry    6.18 a.u.   7.48  7.48  7.61*2*pi/ulx,y,z
   ENINI  =  520.0     initial cutoff
   ENAUG  =  605.4 eV  augmentation charge cutoff
   NELM   =    100;   NELMIN=  2; NELMDL= -5     # of ELM steps 
   EDIFF  = 0.3E-03   stopping-criterion for ELM
   LREAL  =      T    real-space projection
   NLSPLINE    = F    spline interpolate recip. space projectors
   LCOMPAT=      F    compatible to vasp.4.4
   GGA_COMPAT  = T    GGA compatible to vasp.4.4-vasp.4.6
   LMAXPAW     = -100 max onsite density
   LMAXMIX     =    2 max onsite mixed and CHGCAR
   VOSKOWN=      0    Vosko Wilk Nusair interpolation
   ROPT   =   -0.00025  -0.00025  -0.00025
 Ionic relaxation
   EDIFFG = 0.3E-02   stopping-criterion for IOM
   NSW    =      0    number of steps for IOM
   NBLOCK =      1;   KBLOCK =      1    inner block; outer block 
   IBRION =     -1    ionic relax: 0-MD 1-quasi-New 2-CG
   NFREE  =      0    steps in history (QN), initial steepest desc. (CG)
   ISIF   =      3    stress and relaxation
   IWAVPR =     10    prediction:  0-non 1-charg 2-wave 3-comb
   ISYM   =      2    0-nonsym 1-usesym 2-fastsym
   LCORR  =      T    Harris-Foulkes like correction to forces

   POTIM  = 0.5000    time-step for ionic-motion
   TEIN   =    0.0    initial temperature
   TEBEG  =    0.0;   TEEND  =   0.0 temperature during run
   SMASS  =  -3.00    Nose mass-parameter (am)
   estimated Nose-frequenzy (Omega)   =  0.10E-29 period in steps =****** mass=  -0.370E-27a.u.
   SCALEE = 1.0000    scale energy and forces
   NPACO  =    256;   APACO  = 16.0  distance and # of slots for P.C.
   PSTRESS=    0.0 pullay stress

  Mass of Ions in am
   POMASS = 137.33 47.88 16.00
  Ionic Valenz
   ZVAL   =  10.00 10.00  6.00
  Atomic Wigner-Seitz radii
   RWIGS  =  -1.00 -1.00 -1.00
  virtual crystal weights 
   VCA    =   1.00  1.00  1.00
   NELECT =      38.0000    total number of electrons
   NUPDOWN=      -1.0000    fix difference up-down

 DOS related values:
   EMIN   =  10.00;   EMAX   =-10.00  energy-range for DOS
   EFERMI =   0.00
   ISMEAR =    -5;   SIGMA  =   0.05  broadening in eV -4-tet -1-fermi 0-gaus

 Electronic relaxation 2 (details)
   IALGO  =     38    algorithm
   LDIAG  =      T    sub-space diagonalisation (order eigenvalues)
   LSUBROT=      F    optimize rotation matrix (better conditioning)
   TURBO    =      0    0=normal 1=particle mesh
   IRESTART =      0    0=no restart 2=restart with 2 vectors
   NREBOOT  =      0    no. of reboots
   NMIN     =      0    reboot dimension
   EREF     =   0.00    reference energy to select bands
   IMIX   =      4    mixing-type and parameters
     AMIX     =   0.40;   BMIX     =  1.00
     AMIX_MAG =   1.60;   BMIX_MAG =  1.00
     AMIN     =   0.10
     WC   =   100.;   INIMIX=   1;  MIXPRE=   1;  MAXMIX= -45

 Intra band minimization:
   WEIMIN = 0.0000     energy-eigenvalue tresh-hold
   EBREAK =  0.20E-05  absolut break condition
   DEPER  =   0.30     relativ break condition  

   TIME   =   0.40     timestep for ELM

  volume/ion in A,a.u.               =      13.25        89.40
  Fermi-wavevector in a.u.,A,eV,Ry     =   1.360272  2.570541 25.175405  1.850340
  Thomas-Fermi vector in A             =   2.486948
 
 Write flags
   LWAVE  =      T    write WAVECAR
   LCHARG =      T    write CHGCAR
   LVTOT  =      F    write LOCPOT, total local potential
   LVHAR  =      T    write LOCPOT, Hartree potential only
   LELF   =      F    write electronic localiz. function (ELF)
   LORBIT =     11    0 simple, 1 ext, 2 COOP (PROOUT)


 Dipole corrections
   LMONO  =      F    monopole corrections only (constant potential shift)
   LDIPOL =      F    correct potential (dipole corrections)
   IDIPOL =      0    1-x, 2-y, 3-z, 4-all directions 
   EPSILON=  1.0000000 bulk dielectric constant

 Exchange correlation treatment:
   GGA     =    --    GGA type
   LEXCH   =     8    internal setting for exchange type
   VOSKOWN=      0    Vosko Wilk Nusair interpolation
   LHFCALC =     F    Hartree Fock is set to
   LHFONE  =     F    Hartree Fock one center treatment
   AEXX    =    0.0000 exact exchange contribution

 Linear response parameters
   LEPSILON=     F    determine dielectric tensor
   LRPA    =     F    only Hartree local field effects (RPA)
   LNABLA  =     F    use nabla operator in PAW spheres
   LVEL    =     F    velocity operator in full k-point grid
   LINTERFAST=   F  fast interpolation
   KINTER  =     0    interpolate to denser k-point grid
   CSHIFT  =0.1000    complex shift for real part using Kramers Kronig
   OMEGAMAX=  -1.0    maximum frequency
   DEG_THRESHOLD= 0.2000000E-02 threshold for treating states as degnerate
   RTIME   =    0.100 relaxation time in fs

 Orbital magnetization related:
   ORBITALMAG=     F  switch on orbital magnetization
   LCHIMAG   =     F  perturbation theory with respect to B field
   DQ        =  0.001000  dq finite difference perturbation B field



--------------------------------------------------------------------------------------------------------


 Static calculation
 charge density and potential will be updated during run
 spin polarized calculation
 Variant of blocked Davidson
 Davidson routine will perform the subspace rotation
 perform sub-space diagonalisation
    after iterative eigenvector-optimisation
 modified Broyden-mixing scheme, WC =      100.0
 initial mixing is a Kerker type mixing with AMIX =  0.4000 and BMIX =      1.0000
 Hartree-type preconditioning will be used
 using additional bands           13
 real space projection scheme for non local part
 use partial core corrections
 calculate Harris-corrections to forces 
   (improved forces if not selfconsistent)
 use gradient corrections 
 use of overlap-Matrix (Vanderbilt PP)
 Fermi weights with tetrahedron method with Bloechl corrections


--------------------------------------------------------------------------------------------------------


  energy-cutoff  :      520.00
  volume of cell :       66.24
      direct lattice vectors                 reciprocal lattice vectors
     4.022485000  0.000000000  0.000000000     0.248602543  0.000000000  0.000000000
     0.000000000  4.022485000  0.000000000     0.000000000  0.248602543  0.000000000
     0.000000000  0.000000000  4.093944000     0.000000000  0.000000000  0.244263234

  length of vectors
     4.022485000  4.022485000  4.093944000     0.248602543  0.248602543  0.244263234


 
 k-points in units of 2pi/SCALE and weight: pymatgen generated KPOINTS with grid den
   0.01553766  0.01553766  0.01526645       0.016
   0.04661298  0.01553766  0.01526645       0.031
   0.07768829  0.01553766  0.01526645       0.031
   0.10876361  0.01553766  0.01526645       0.031
   0.04661298  0.04661298  0.01526645       0.016
   0.07768829  0.04661298  0.01526645       0.031
   0.10876361  0.04661298  0.01526645       0.031
   0.07768829  0.07768829  0.01526645       0.016
   0.10876361  0.07768829  0.01526645       0.031
   0.10876361  0.10876361  0.01526645       0.016
   0.01553766  0.01553766  0.04579936       0.016
   0.04661298  0.01553766  0.04579936       0.031
   0.07768829  0.01553766  0.04579936       0.031
   0.10876361  0.01553766  0.04579936       0.031
   0.04661298  0.04661298  0.04579936       0.016
   0.07768829  0.04661298  0.04579936       0.031
   0.10876361  0.04661298  0.04579936       0.031
   0.07768829  0.07768829  0.04579936       0.016
   0.10876361  0.07768829  0.04579936       0.031
   0.10876361  0.10876361  0.04579936       0.016
   0.01553766  0.01553766  0.07633226       0.016
   0.04661298  0.01553766  0.07633226       0.031
   0.07768829  0.01553766  0.07633226       0.031
   0.10876361  0.01553766  0.07633226       0.031
   0.04661298  0.04661298  0.07633226       0.016
   0.07768829  0.04661298  0.07633226       0.031
   0.10876361  0.04661298  0.07633226       0.031
   0.07768829  0.07768829  0.07633226       0.016
   0.10876361  0.07768829  0.07633226       0.031
   0.10876361  0.10876361  0.07633226       0.016
   0.01553766  0.01553766  0.10686516       0.016
   0.04661298  0.01553766  0.10686516       0.031
   0.07768829  0.01553766  0.10686516       0.031
   0.10876361  0.01553766  0.10686516       0.031
   0.04661298  0.04661298  0.10686516       0.016
   0.07768829  0.04661298  0.10686516       0.031
   0.10876361  0.04661298  0.10686516       0.031
   0.07768829  0.07768829  0.10686516       0.016
   0.10876361  0.07768829  0.10686516       0.031
   0.10876361  0.10876361  0.10686516       0.016
 
 k-points in reciprocal lattice and weights: pymatgen generated KPOINTS with grid den
   0.06250000  0.06250000  0.06250000       0.016
   0.18750000  0.06250000  0.06250000       0.031
   0.31250000  0.06250000  0.06250000       0.031
   0.43750000  0.06250000  0.06250000       0.031
   0.18750000  0.18750000  0.06250000       0.016
   0.31250000  0.18750000  0.06250000       0.031
   0.43750000  0.18750000  0.06250000       0.031
   0.31250000  0.31250000  0.06250000       0.016
   0.43750000  0.31250000  0.06250000       0.031
   0.43750000  0.43750000  0.06250000       0.016
   0.06250000  0.06250000  0.18750000       0.016
   0.18750000  0.06250000  0.18750000       0.031
   0.31250000  0.06250000  0.18750000       0.031
   0.43750000  0.06250000  0.18750000       0.031
   0.18750000  0.18750000  0.18750000       0.016
   0.31250000  0.18750000  0.18750000       0.031
   0.43750000  0.18750000  0.18750000       0.031
   0.31250000  0.31250000  0.18750000       0.016
   0.43750000  0.31250000  0.18750000       0.031
   0.43750000  0.43750000  0.18750000       0.016
   0.06250000  0.06250000  0.31250000       0.016
   0.18750000  0.06250000  0.31250000       0.031
   0.31250000  0.06250000  0.31250000       0.031
   0.43750000  0.06250000  0.31250000       0.031
   0.18750000  0.18750000  0.31250000       0.016
   0.31250000  0.18750000  0.31250000       0.031
   0.43750000  0.18750000  0.31250000       0.031
   0.31250000  0.31250000  0.31250000       0.016
   0.43750000  0.31250000  0.31250000       0.031
   0.43750000  0.43750000  0.31250000       0.016
   0.06250000  0.06250000  0.43750000       0.016
   0.18750000  0.06250000  0.43750000       0.031
   0.31250000  0.06250000  0.43750000       0.031
   0.43750000  0.06250000  0.43750000       0.031
   0.18750000  0.18750000  0.43750000       0.016
   0.31250000  0.18750000  0.43750000       0.031
   0.43750000  0.18750000  0.43750000       0.031
   0.31250000  0.31250000  0.43750000       0.016
   0.43750000  0.31250000  0.43750000       0.031
   0.43750000  0.43750000  0.43750000       0.016
 
 position of ions in fractional coordinates (direct lattice) 
   0.00000000  0.00000000  0.00862400
   0.50000000  0.50000000  0.51481700
   0.00000000  0.50000000  0.49920700
   0.50000000  0.00000000  0.49920700
   0.50000000  0.50000000  0.99214300
 
 position of ions in cartesian coordinates  (Angst):
   0.00000000  0.00000000  0.03530617
   2.01124250  2.01124250  2.10763197
   0.00000000  2.01124250  2.04372550
   2.01124250  0.00000000  2.04372550
   2.01124250  2.01124250  4.06177788
 


--------------------------------------------------------------------------------------------------------


 k-point  1 :   0.0625 0.0625 0.0625  plane waves:    1798
 k-point  2 :   0.1875 0.0625 0.0625  plane waves:    1797
 k-point  3 :   0.3125 0.0625 0.0625  plane waves:    1783
 k-point  4 :   0.4375 0.0625 0.0625  plane waves:    1783
 k-point  5 :   0.1875 0.1875 0.0625  plane waves:    1787
 k-point  6 :   0.3125 0.1875 0.0625  plane waves:    1789
 k-point  7 :   0.4375 0.1875 0.0625  plane waves:    1785
 k-point  8 :   0.3125 0.3125 0.0625  plane waves:    1790
 k-point  9 :   0.4375 0.3125 0.0625  plane waves:    1779
 k-point 10 :   0.4375 0.4375 0.0625  plane waves:    1772
 k-point 11 :   0.0625 0.0625 0.1875  plane waves:    1801
 k-point 12 :   0.1875 0.0625 0.1875  plane waves:    1793
 k-point 13 :   0.3125 0.0625 0.1875  plane waves:    1791
 k-point 14 :   0.4375 0.0625 0.1875  plane waves:    1781
 k-point 15 :   0.1875 0.1875 0.1875  plane waves:    1789
 k-point 16 :   0.3125 0.1875 0.1875  plane waves:    1791
 k-point 17 :   0.4375 0.1875 0.1875  plane waves:    1777
 k-point 18 :   0.3125 0.3125 0.1875  plane waves:    1792
 k-point 19 :   0.4375 0.3125 0.1875  plane waves:    1770
 k-point 20 :   0.4375 0.4375 0.1875  plane waves:    1776
 k-point 21 :   0.0625 0.0625 0.3125  plane waves:    1790
 k-point 22 :   0.1875 0.0625 0.3125  plane waves:    1791
 k-point 23 :   0.3125 0.0625 0.3125  plane waves:    1789
 k-point 24 :   0.4375 0.0625 0.3125  plane waves:    1782
 k-point 25 :   0.1875 0.1875 0.3125  plane waves:    1786
 k-point 26 :   0.3125 0.1875 0.3125  plane waves:    1783
 k-point 27 :   0.4375 0.1875 0.3125  plane waves:    1775
 k-point 28 :   0.3125 0.3125 0.3125  plane waves:    1779
 k-point 29 :   0.4375 0.3125 0.3125  plane waves:    1780
 k-point 30 :   0.4375 0.4375 0.3125  plane waves:    1775
 k-point 31 :   0.0625 0.0625 0.4375  plane waves:    1790
 k-point 32 :   0.1875 0.0625 0.4375  plane waves:    1788
 k-point 33 :   0.3125 0.0625 0.4375  plane waves:    1780
 k-point 34 :   0.4375 0.0625 0.4375  plane waves:    1765
 k-point 35 :   0.1875 0.1875 0.4375  plane waves:    1777
 k-point 36 :   0.3125 0.1875 0.4375  plane waves:    1782
 k-point 37 :   0.4375 0.1875 0.4375  plane waves:    1774
 k-point 38 :   0.3125 0.3125 0.4375  plane waves:    1782
 k-point 39 :   0.4375 0.3125 0.4375  plane waves:    1781
 k-point 40 :   0.4375 0.4375 0.4375  plane waves:    1792

 maximum and minimum number of plane-waves per node :      1801     1765

 maximum number of plane-waves:      1801
 maximum index in each direction: 
   IXMAX=    7   IYMAX=    7   IZMAX=    7
   IXMIN=   -7   IYMIN=   -7   IZMIN=   -8

 NGX is ok and might be reduce to  30
 NGY is ok and might be reduce to  30
 WARNING: aliasing errors must be expected set NGZ to  32 to avoid them
 aliasing errors are usually negligible using standard VASP settings
 and one can safely disregard these warnings

 serial   3D FFT for wavefunctions
 parallel 3D FFT for charge:
    minimum data exchange during FFTs selected (reduces bandwidth)


 total amount of memory used by VASP on root node    48938. kBytes
========================================================================

   base      :      30000. kBytes
   nonlr-proj:       3311. kBytes
   fftplans  :       1096. kBytes
   grid      :       4792. kBytes
   one-center:        155. kBytes
   wavefun   :       9584. kBytes
 
     INWAV:  cpu time    0.00: real time    0.00
 Broyden mixing: mesh for mixing (old mesh)
   NGX = 15   NGY = 15   NGZ = 15
  (NGX  = 60   NGY  = 60   NGZ  = 60)
  gives a total of   3375 points

 charge density for first step will be calculated from the start-wavefunctions


--------------------------------------------------------------------------------------------------------


 Maximum index for non-local projection operator         7812
 Maximum index for augmentation-charges         3619 (set IRDMAX)


--------------------------------------------------------------------------------------------------------


 initial charge from wavefunction
 First call to EWALD:  gamma=   0.438
 Maximum number of real-space cells 3x 3x 3
 Maximum number of reciprocal cells 3x 3x 3

 FEWALD executed in parallel
    FEWALD:  cpu time    0.00: real time    0.00


----------------------------------------- Iteration    1(   1)  ---------------------------------------


    POTLOK:  cpu time    0.09: real time    0.09
    SETDIJ:  cpu time    0.01: real time    0.02
     EDDAV:  cpu time    9.65: real time    9.66
 BZINTS: Fermi energy:-25.630680; 38.000000 electrons
         Band energy:***********;  BLOECHL correction: -1.105976
       DOS:  cpu time    0.09: real time    0.10
    --------------------------------------------
      LOOP:  cpu time    9.85: real time    9.87

 eigenvalue-minimisations  :  6296
 total energy-change (2. order) :-0.8999571E+03  (-0.3439841E+04)
 number of electron      37.9999997 magnetization       0.0000000
 augmentation part       -1.2402721 magnetization       0.0032964

 Free energy of the ion-electron system (eV)
  ---------------------------------------------------
  alpha Z        PSCENC =       252.95646988
  Ewald energy   TEWEN  =     -2497.40215596
  -Hartree energ DENC   =       -59.14623253
  -exchange      EXHF   =         0.00000000
  -V(xc)+E(xc)   XCENC  =       115.26664211
  PAW double counting   =    115172.45052959  -115172.08161574
  entropy T*S    EENTRO =         0.00000000
  eigenvalues    EBANDS =     -1752.52774004
  atomic energy  EATOM  =      3040.52701931
  ---------------------------------------------------
  free energy    TOTEN  =      -899.95708337 eV

  energy without entropy =     -899.95708337  energy(sigma->0) =     -899.95708337


--------------------------------------------------------------------------------------------------------




----------------------------------------- Iteration    1(   2)  ---------------------------------------


     EDDAV:  cpu time    8.27: real time    8.28
 BZINTS: Fermi energy:-41.976786; 38.000000 electrons
         Band energy:***********;  BLOECHL correction:  0.000000
       DOS:  cpu time    0.02: real time    0.02
    --------------------------------------------
      LOOP:  cpu time    8.29: real time    8.30

 eigenvalue-minimisations  :  5200
 total energy-change (2. order) :-0.4075270E+03  (-0.3892318E+03)
 number of electron      37.9999997 magnetization       0.0000000
 augmentation part       -1.2402721 magnetization       0.0032964

 Free energy of the ion-electron system (eV)
  ---------------------------------------------------
  alpha Z        PSCENC =       252.95646988
  Ewald energy   TEWEN  =     -2497.40215596
  -Hartree energ DENC   =       -59.14623253
  -exchange      EXHF   =         0.00000000
  -V(xc)+E(xc)   XCENC  =       115.26664211
  PAW double counting   =    115172.45052959  -115172.08161574
  entropy T*S    EENTRO =         0.00000000
  eigenvalues    EBANDS =     -2160.05476140
  atomic energy  EATOM  =      3040.52701931
  ---------------------------------------------------
  free energy    TOTEN  =     -1307.48410474 eV

  energy without entropy =    -1307.48410474  energy(sigma->0) =    -1307.48410474


--------------------------------------------------------------------------------------------------------




----------------------------------------- Iteration    1(   3)  ---------------------------------------


     EDDAV:  cpu time    9.55: real time    9.55
 BZINTS: Fermi energy:-43.195220; 38.000000 electrons
         Band energy:***********;  BLOECHL correction:  0.000000
       DOS:  cpu time    0.01: real time    0.01
    --------------------------------------------
      LOOP:  cpu time    9.57: real time    9.57

 eigenvalue-minimisations  :  6208
 total energy-change (2. order) :-0.2546477E+02  (-0.2529477E+02)
 number of electron      37.9999997 magnetization       0.0000000
 augmentation part       -1.2402721 magnetization       0.0032964

 Free energy of the ion-electron system (eV)
  ---------------------------------------------------
  alpha Z        PSCENC =       252.95646988
  Ewald energy   TEWEN  =     -2497.40215596
  -Hartree energ DENC   =       -59.14623253
  -exchange      EXHF   =         0.00000000
  -V(xc)+E(xc)   XCENC  =       115.26664211
  PAW double counting   =    115172.45052959  -115172.08161574
  entropy T*S    EENTRO =         0.00000000
  eigenvalues    EBANDS =     -2185.51953083
  atomic energy  EATOM  =      3040.52701931
  ---------------------------------------------------
  free energy    TOTEN  =     -1332.94887417 eV

  energy without entropy =    -1332.94887417  energy(sigma->0) =    -1332.94887417


--------------------------------------------------------------------------------------------------------




----------------------------------------- Iteration    1(   4)  ---------------------------------------


     EDDAV:  cpu time   10.39: real time   10.39
 BZINTS: Fermi energy:-43.217064; 38.000000 electrons
         Band energy:***********;  BLOECHL correction:  0.000000
       DOS:  cpu time    0.01: real time    0.01
    --------------------------------------------
      LOOP:  cpu time   10.41: real time   10.41

 eigenvalue-minimisations  :  6864
 total energy-change (2. order) :-0.7958204E+00  (-0.7955708E+00)
 number of electron      37.9999997 magnetization       0.0000000
 augmentation part       -1.2402721 magnetization       0.0032964

 Free energy of the ion-electron system (eV)
  ---------------------------------------------------
  alpha Z        PSCENC =       252.95646988
  Ewald energy   TEWEN  =     -2497.40215596
  -Hartree energ DENC   =       -59.14623253
  -exchange      EXHF   =         0.00000000
  -V(xc)+E(xc)   XCENC  =       115.26664211
  PAW double counting   =    115172.45052959  -115172.08161574
  entropy T*S    EENTRO =         0.00000000
  eigenvalues    EBANDS =     -2186.31535127
  atomic energy  EATOM  =      3040.52701931
  ---------------------------------------------------
  free energy    TOTEN  =     -1333.74469461 eV

  energy without entropy =    -1333.74469461  energy(sigma->0) =    -1333.74469461


--------------------------------------------------------------------------------------------------------




----------------------------------------- Iteration    1(   5)  ---------------------------------------


     EDDAV:  cpu time   11.57: real time   11.56
 BZINTS: Fermi energy:-43.315478; 38.000000 electrons
         Band energy:***********;  BLOECHL correction:  0.000000
       DOS:  cpu time    0.01: real time    0.01
    CHARGE:  cpu time    0.44: real time    0.44
    MIXING:  cpu time    0.00: real time    0.00
    --------------------------------------------
      LOOP:  cpu time   12.02: real time   12.02

 eigenvalue-minimisations  :  7824
 total energy-change (2. order) :-0.3126376E-01  (-0.3126323E-01)
 number of electron      37.9999978 magnetization      -0.0000000
 augmentation part       15.8051222 magnetization      -0.0005525

 Broyden mixing:
  rms(total) = 0.39031E+02    rms(broyden)= 0.39023E+02
  rms(prec ) = 0.57497E+02
  weight for this iteration     100.00

 Free energy of the ion-electron system (eV)
  ---------------------------------------------------
  alpha Z        PSCENC =       252.95646988
  Ewald energy   TEWEN  =     -2497.40215596
  -Hartree energ DENC   =       -59.14623253
  -exchange      EXHF   =         0.00000000
  -V(xc)+E(xc)   XCENC  =       115.26664211
  PAW double counting   =    115172.45052959  -115172.08161574
  entropy T*S    EENTRO =         0.00000000
  eigenvalues    EBANDS =     -2186.34661503
  atomic energy  EATOM  =      3040.52701931
  ---------------------------------------------------
  free energy    TOTEN  =     -1333.77595837 eV

  energy without entropy =    -1333.77595837  energy(sigma->0) =    -1333.77595837


--------------------------------------------------------------------------------------------------------




----------------------------------------- Iteration    1(   6)  ---------------------------------------


    POTLOK:  cpu time    0.09: real time    0.10
    SETDIJ:  cpu time    0.02: real time    0.02
     EDDAV:  cpu time   12.84: real time   12.84
 BZINTS: Fermi energy: -3.362815; 38.000000 electrons
         Band energy:-669.669881;  BLOECHL correction:  0.000000
       DOS:  cpu time    0.02: real time    0.02
    CHARGE:  cpu time    0.44: real time    0.44
    MIXING:  cpu time    0.00: real time    0.00
    --------------------------------------------
      LOOP:  cpu time   13.42: real time   13.43

 eigenvalue-minimisations  :  8672
 total energy-change (2. order) : 0.1095088E+04  (-0.3579065E+03)
 number of electron      37.9999962 magnetization      -0.0000000
 augmentation part        6.7478365 magnetization       0.0041948

 Broyden mixing:
  rms(total) = 0.25221E+02    rms(broyden)= 0.25219E+02
  rms(prec ) = 0.29731E+02
  weight for this iteration     100.00

 eigenvalues of (default mixing * dielectric matrix)
  average eigenvalue GAMMA=   0.6472
  0.6472

 Free energy of the ion-electron system (eV)
  ---------------------------------------------------
  alpha Z        PSCENC =       252.95646988
  Ewald energy   TEWEN  =     -2497.40215596
  -Hartree energ DENC   =      -477.13552116
  -exchange      EXHF   =         0.00000000
  -V(xc)+E(xc)   XCENC  =       136.52264129
  PAW double counting   =    206320.39439788  -206344.88055734
  entropy T*S    EENTRO =         0.00000000
  eigenvalues    EBANDS =      -669.66988056
  atomic energy  EATOM  =      3040.52701931
  ---------------------------------------------------
  free energy    TOTEN  =      -238.68758666 eV

  energy without entropy =     -238.68758666  energy(sigma->0) =     -238.68758666


--------------------------------------------------------------------------------------------------------




----------------------------------------- Iteration    1(   7)  ---------------------------------------


    POTLOK:  cpu time    0.08: real time    0.08
    SETDIJ:  cpu time    0.02: real time    0.02
     EDDAV:  cpu time    9.34: real time    9.34
 BZINTS: Fermi energy:  1.245004; 38.000000 electrons
         Band energy:-455.648437;  BLOECHL correction:  0.000000
       DOS:  cpu time    0.02: real time    0.02
    CHARGE:  cpu time    0.44: real time    0.44
    MIXING:  cpu time    0.00: real time    0.00
    --------------------------------------------
      LOOP:  cpu time    9.90: real time   10.69

 eigenvalue-minimisations  :  5960
 total energy-change (2. order) : 0.1508493E+03  (-0.3519949E+02)
 number of electron      37.9999972 magnetization      -0.0000000
 augmentation part        5.2627833 magnetization      -0.0023285

 Broyden mixing:
  rms(total) = 0.16450E+02    rms(broyden)= 0.16449E+02
  rms(prec ) = 0.18536E+02
  weight for this iteration     100.00

 eigenvalues of (default mixing * dielectric matrix)
  average eigenvalue GAMMA=   1.3397
  1.1456  1.5337

 Free energy of the ion-electron system (eV)
  ---------------------------------------------------
  alpha Z        PSCENC =       252.95646988
  Ewald energy   TEWEN  =     -2497.40215596
  -Hartree energ DENC   =      -547.04262330
  -exchange      EXHF   =         0.00000000
  -V(xc)+E(xc)   XCENC  =       141.92746960
  PAW double counting   =    106059.27036678  -106082.42642450
  entropy T*S    EENTRO =         0.00000000
  eigenvalues    EBANDS =      -455.64843737
  atomic energy  EATOM  =      3040.52701931
  ---------------------------------------------------
  free energy    TOTEN  =       -87.83831556 eV

  energy without entropy =      -87.83831556  energy(sigma->0) =      -87.83831556


--------------------------------------------------------------------------------------------------------




----------------------------------------- Iteration    1(   8)  ---------------------------------------


    POTLOK:  cpu time    0.08: real time    0.08
    SETDIJ:  cpu time    0.01: real time    0.02
     EDDAV:  cpu time   10.13: real time   10.13
 BZINTS: Fermi energy:  3.416567; 38.000000 electrons
         Band energy:-365.402306;  BLOECHL correction: -0.057832
       DOS:  cpu time    0.09: real time    0.09
    CHARGE:  cpu time    0.44: real time    0.44
    MIXING:  cpu time    0.00: real time    0.00
    --------------------------------------------
      LOOP:  cpu time   10.76: real time   10.77

 eigenvalue-minimisations  :  6400
 total energy-change (2. order) : 0.2802587E+02  (-0.2285078E+02)
 number of electron      37.9999991 magnetization      -0.0001270
 augmentation part        7.5154595 magnetization       0.0039475

 Broyden mixing:
  rms(total) = 0.79634E+01    rms(broyden)= 0.79624E+01
  rms(prec ) = 0.14693E+02
  weight for this iteration     100.00

 eigenvalues of (default mixing * dielectric matrix)
  average eigenvalue GAMMA=   1.0169
  1.5597  1.1655  0.3256

 Free energy of the ion-electron system (eV)
  ---------------------------------------------------
  alpha Z        PSCENC =       252.95646988
  Ewald energy   TEWEN  =     -2497.40215596
  -Hartree energ DENC   =      -620.96752337
  -exchange      EXHF   =         0.00000000
  -V(xc)+E(xc)   XCENC  =       146.11857631
  PAW double counting   =     22882.25402067   -22897.89655016
  entropy T*S    EENTRO =         0.00000000
  eigenvalues    EBANDS =      -365.40230565
  atomic energy  EATOM  =      3040.52701931
  ---------------------------------------------------
  free energy    TOTEN  =       -59.81244896 eV

  energy without entropy =      -59.81244896  energy(sigma->0) =      -59.81244896


--------------------------------------------------------------------------------------------------------




----------------------------------------- Iteration    1(   9)  ---------------------------------------


    POTLOK:  cpu time    0.09: real time    0.09
    SETDIJ:  cpu time    0.02: real time    0.02
     EDDAV:  cpu time    9.89: real time    9.89
 BZINTS: Fermi energy:  3.714079; 38.000000 electrons
         Band energy:-357.494733;  BLOECHL correction: -0.047307
       DOS:  cpu time    0.10: real time    0.10
    CHARGE:  cpu time    0.44: real time    0.44
    MIXING:  cpu time    0.00: real time    0.00
    --------------------------------------------
      LOOP:  cpu time   10.54: real time   10.54

 eigenvalue-minimisations  :  6312
 total energy-change (2. order) : 0.5451879E+01  (-0.2813050E+01)
 number of electron      37.9999990 magnetization       0.0296634
 augmentation part        6.6017421 magnetization       0.0279183

 Broyden mixing:
  rms(total) = 0.77052E+01    rms(broyden)= 0.77052E+01
  rms(prec ) = 0.12541E+02
  weight for this iteration     100.00

 eigenvalues of (default mixing * dielectric matrix)
  average eigenvalue GAMMA=   0.9592
  1.4823  1.4823  0.5667  0.3056

 Free energy of the ion-electron system (eV)
  ---------------------------------------------------
  alpha Z        PSCENC =       252.95646988
  Ewald energy   TEWEN  =     -2497.40215596
  -Hartree energ DENC   =      -623.74295140
  -exchange      EXHF   =         0.00000000
  -V(xc)+E(xc)   XCENC  =       146.13997565
  PAW double counting   =     22214.61775086   -22229.96194558
  entropy T*S    EENTRO =         0.00000000
  eigenvalues    EBANDS =      -357.49473297
  atomic energy  EATOM  =      3040.52701931
  ---------------------------------------------------
  free energy    TOTEN  =       -54.36057021 eV

  energy without entropy =      -54.36057021  energy(sigma->0) =      -54.36057021


--------------------------------------------------------------------------------------------------------




----------------------------------------- Iteration    1(  10)  ---------------------------------------


    POTLOK:  cpu time    0.08: real time    0.08
    SETDIJ:  cpu time    0.02: real time    0.02
     EDDAV:  cpu time    9.65: real time    9.67
 BZINTS: Fermi energy:  0.493291; 38.000000 electrons
         Band energy:-452.660315;  BLOECHL correction: -0.038347
       DOS:  cpu time    0.10: real time    0.10
    CHARGE:  cpu time    0.44: real time    0.44
    MIXING:  cpu time    0.00: real time    0.00
    --------------------------------------------
      LOOP:  cpu time   10.29: real time   10.32

 eigenvalue-minimisations  :  5840
 total energy-change (2. order) :-0.7368655E+01  (-0.4726941E+01)
 number of electron      37.9999984 magnetization       0.0528664
 augmentation part        8.3822362 magnetization       0.0341853

 Broyden mixing:
  rms(total) = 0.63764E+01    rms(broyden)= 0.63758E+01
  rms(prec ) = 0.14979E+02
  weight for this iteration     100.00

 eigenvalues of (default mixing * dielectric matrix)
  average eigenvalue GAMMA=   1.0822
  1.9192  1.9192  0.8498  0.4563  0.2662

 Free energy of the ion-electron system (eV)
  ---------------------------------------------------
  alpha Z        PSCENC =       252.95646988
  Ewald energy   TEWEN  =     -2497.40215596
  -Hartree energ DENC   =      -534.41329741
  -exchange      EXHF   =         0.00000000
  -V(xc)+E(xc)   XCENC  =       140.18394567
  PAW double counting   =     16279.16310350   -16290.08399456
  entropy T*S    EENTRO =         0.00000000
  eigenvalues    EBANDS =      -452.66031535
  atomic energy  EATOM  =      3040.52701931
  ---------------------------------------------------
  free energy    TOTEN  =       -61.72922492 eV

  energy without entropy =      -61.72922492  energy(sigma->0) =      -61.72922492


--------------------------------------------------------------------------------------------------------




----------------------------------------- Iteration    1(  11)  ---------------------------------------


    POTLOK:  cpu time    0.08: real time    0.08
    SETDIJ:  cpu time    0.02: real time    0.02
     EDDAV:  cpu time   10.96: real time   10.96
 BZINTS: Fermi energy: -0.348743; 38.000000 electrons
         Band energy:-475.127267;  BLOECHL correction: -0.010744
       DOS:  cpu time    0.09: real time    0.09
    CHARGE:  cpu time    0.44: real time    0.44
    MIXING:  cpu time    0.00: real time    0.00
    --------------------------------------------
      LOOP:  cpu time   11.59: real time   11.61

 eigenvalue-minimisations  :  7176
 total energy-change (2. order) : 0.5154646E+01  (-0.1615759E+02)
 number of electron      37.9999977 magnetization      -0.0060638
 augmentation part        6.0174192 magnetization       0.0193525

 Broyden mixing:
  rms(total) = 0.36947E+01    rms(broyden)= 0.36933E+01
  rms(prec ) = 0.63904E+01
  weight for this iteration     100.00

 eigenvalues of (default mixing * dielectric matrix)
  average eigenvalue GAMMA=   0.9927
  2.6023  0.9669  0.9535  0.9535  0.2399  0.2399

 Free energy of the ion-electron system (eV)
  ---------------------------------------------------
  alpha Z        PSCENC =       252.95646988
  Ewald energy   TEWEN  =     -2497.40215596
  -Hartree energ DENC   =      -508.19454522
  -exchange      EXHF   =         0.00000000
  -V(xc)+E(xc)   XCENC  =       137.56546969
  PAW double counting   =      9732.30138623    -9739.20095618
  entropy T*S    EENTRO =         0.00000000
  eigenvalues    EBANDS =      -475.12726695
  atomic energy  EATOM  =      3040.52701931
  ---------------------------------------------------
  free energy    TOTEN  =       -56.57457920 eV

  energy without entropy =      -56.57457920  energy(sigma->0) =      -56.57457920


--------------------------------------------------------------------------------------------------------




----------------------------------------- Iteration    1(  12)  ---------------------------------------


    POTLOK:  cpu time    0.08: real time    0.08
    SETDIJ:  cpu time    0.02: real time    0.02
     EDDAV:  cpu time   10.18: real time   10.17
 BZINTS: Fermi energy:  1.192137; 38.000000 electrons
         Band energy:-407.656748;  BLOECHL correction: -0.054362
       DOS:  cpu time    0.10: real time    0.10
    CHARGE:  cpu time    0.43: real time    0.44
    MIXING:  cpu time    0.00: real time    0.00
    --------------------------------------------
      LOOP:  cpu time   10.81: real time   10.88

 eigenvalue-minimisations  :  6616
 total energy-change (2. order) :-0.9471745E+01  (-0.1551425E+02)
 number of electron      37.9999987 magnetization       0.0591938
 augmentation part        8.2315604 magnetization       0.0272582

 Broyden mixing:
  rms(total) = 0.60235E+01    rms(broyden)= 0.60232E+01
  rms(prec ) = 0.14717E+02
  weight for this iteration     100.00

 eigenvalues of (default mixing * dielectric matrix)
  average eigenvalue GAMMA=   0.9199
  2.5190  1.0422  1.0422  0.9477  0.3395  0.3395  0.2094

 Free energy of the ion-electron system (eV)
  ---------------------------------------------------
  alpha Z        PSCENC =       252.95646988
  Ewald energy   TEWEN  =     -2497.40215596
  -Hartree energ DENC   =      -591.43749476
  -exchange      EXHF   =         0.00000000
  -V(xc)+E(xc)   XCENC  =       143.58026654
  PAW double counting   =      2879.78544820    -2886.39913000
  entropy T*S    EENTRO =         0.00000000
  eigenvalues    EBANDS =      -407.65674769
  atomic energy  EATOM  =      3040.52701931
  ---------------------------------------------------
  free energy    TOTEN  =       -66.04632448 eV

  energy without entropy =      -66.04632448  energy(sigma->0) =      -66.04632448


--------------------------------------------------------------------------------------------------------




----------------------------------------- Iteration    1(  13)  ---------------------------------------


    POTLOK:  cpu time    0.08: real time    0.08
    SETDIJ:  cpu time    0.02: real time    0.02
     EDDAV:  cpu time   10.18: real time   10.18
 BZINTS: Fermi energy:  1.280792; 38.000000 electrons
         Band energy:-390.333754;  BLOECHL correction:  0.000000
       DOS:  cpu time    0.01: real time    0.02
    CHARGE:  cpu time    0.44: real time    0.44
    MIXING:  cpu time    0.00: real time    0.00
    --------------------------------------------
      LOOP:  cpu time   10.74: real time   10.87

 eigenvalue-minimisations  :  6648
 total energy-change (2. order) : 0.2212438E+02  (-0.4882822E+01)
 number of electron      37.9999980 magnetization       0.0393724
 augmentation part        5.4665916 magnetization       0.0398734

 Broyden mixing:
  rms(total) = 0.14645E+01    rms(broyden)= 0.14635E+01
  rms(prec ) = 0.27450E+01
  weight for this iteration     100.00

 eigenvalues of (default mixing * dielectric matrix)
  average eigenvalue GAMMA=   0.8988
  2.3997  1.1005  1.1005  1.0702  0.6206  0.3444  0.3444  0.2099

 Free energy of the ion-electron system (eV)
  ---------------------------------------------------
  alpha Z        PSCENC =       252.95646988
  Ewald energy   TEWEN  =     -2497.40215596
  -Hartree energ DENC   =      -586.58126699
  -exchange      EXHF   =         0.00000000
  -V(xc)+E(xc)   XCENC  =       142.65709493
  PAW double counting   =      3178.14700350    -3183.89235106
  entropy T*S    EENTRO =         0.00000000
  eigenvalues    EBANDS =      -390.33375422
  atomic energy  EATOM  =      3040.52701931
  ---------------------------------------------------
  free energy    TOTEN  =       -43.92194062 eV

  energy without entropy =      -43.92194062  energy(sigma->0) =      -43.92194062


--------------------------------------------------------------------------------------------------------




----------------------------------------- Iteration    1(  14)  ---------------------------------------


    POTLOK:  cpu time    0.08: real time    0.08
    SETDIJ:  cpu time    0.02: real time    0.02
     EDDAV:  cpu time    9.74: real time    9.74
 BZINTS: Fermi energy:  1.697504; 38.000000 electrons
         Band energy:-374.241952;  BLOECHL correction:  0.000000
       DOS:  cpu time    0.02: real time    0.02
    CHARGE:  cpu time    0.44: real time    0.44
    MIXING:  cpu time    0.00: real time    0.00
    --------------------------------------------
      LOOP:  cpu time   10.30: real time   10.30

 eigenvalue-minimisations  :  6280
 total energy-change (2. order) : 0.1865100E+01  (-0.2237796E+00)
 number of electron      37.9999979 magnetization       0.0213720
 augmentation part        5.2557835 magnetization       0.0201638

 Broyden mixing:
  rms(total) = 0.11541E+01    rms(broyden)= 0.11540E+01
  rms(prec ) = 0.20489E+01
  weight for this iteration     100.00

 eigenvalues of (default mixing * dielectric matrix)
  average eigenvalue GAMMA=   0.9058
  2.2737  1.2967  1.0891  1.0891  0.7423  0.7423  0.3550  0.3550  0.2093

 Free energy of the ion-electron system (eV)
  ---------------------------------------------------
  alpha Z        PSCENC =       252.95646988
  Ewald energy   TEWEN  =     -2497.40215596
  -Hartree energ DENC   =      -600.94531072
  -exchange      EXHF   =         0.00000000
  -V(xc)+E(xc)   XCENC  =       143.56265780
  PAW double counting   =      3367.63148219    -3374.14505066
  entropy T*S    EENTRO =         0.00000000
  eigenvalues    EBANDS =      -374.24195243
  atomic energy  EATOM  =      3040.52701931
  ---------------------------------------------------
  free energy    TOTEN  =       -42.05684059 eV

  energy without entropy =      -42.05684059  energy(sigma->0) =      -42.05684059


--------------------------------------------------------------------------------------------------------




----------------------------------------- Iteration    1(  15)  ---------------------------------------


    POTLOK:  cpu time    0.08: real time    0.08
    SETDIJ:  cpu time    0.01: real time    0.02
     EDDAV:  cpu time   10.02: real time   10.02
 BZINTS: Fermi energy:  2.457893; 38.000000 electrons
         Band energy:-352.472411;  BLOECHL correction:  0.000000
       DOS:  cpu time    0.02: real time    0.02
    CHARGE:  cpu time    0.44: real time    0.44
    MIXING:  cpu time    0.00: real time    0.00
    --------------------------------------------
      LOOP:  cpu time   10.58: real time   10.58

 eigenvalue-minimisations  :  6472
 total energy-change (2. order) : 0.1659615E+01  (-0.1853021E+00)
 number of electron      37.9999980 magnetization       0.0163636
 augmentation part        4.9956294 magnetization       0.0160107

 Broyden mixing:
  rms(total) = 0.66420E+00    rms(broyden)= 0.66417E+00
  rms(prec ) = 0.10966E+01
  weight for this iteration     100.00

 eigenvalues of (default mixing * dielectric matrix)
  average eigenvalue GAMMA=   0.9552
  2.1247  1.3852  1.3852  1.5664  0.9129  0.6320  0.6320  0.3521  0.3521  0.2093

 Free energy of the ion-electron system (eV)
  ---------------------------------------------------
  alpha Z        PSCENC =       252.95646988
  Ewald energy   TEWEN  =     -2497.40215596
  -Hartree energ DENC   =      -621.26789962
  -exchange      EXHF   =         0.00000000
  -V(xc)+E(xc)   XCENC  =       144.89779002
  PAW double counting   =      3606.53507809    -3614.17111705
  entropy T*S    EENTRO =         0.00000000
  eigenvalues    EBANDS =      -352.47241059
  atomic energy  EATOM  =      3040.52701931
  ---------------------------------------------------
  free energy    TOTEN  =       -40.39722592 eV

  energy without entropy =      -40.39722592  energy(sigma->0) =      -40.39722592


--------------------------------------------------------------------------------------------------------




----------------------------------------- Iteration    1(  16)  ---------------------------------------


    POTLOK:  cpu time    0.08: real time    0.08
    SETDIJ:  cpu time    0.02: real time    0.02
     EDDAV:  cpu time   10.36: real time   10.36
 BZINTS: Fermi energy:  2.721007; 38.000000 electrons
         Band energy:-344.523838;  BLOECHL correction:  0.000000
       DOS:  cpu time    0.02: real time    0.02
    CHARGE:  cpu time    0.44: real time    0.44
    MIXING:  cpu time    0.00: real time    0.00
    --------------------------------------------
      LOOP:  cpu time   10.92: real time   10.92

 eigenvalue-minimisations  :  6800
 total energy-change (2. order) : 0.2159901E+00  (-0.3368119E-01)
 number of electron      37.9999980 magnetization       0.0143242
 augmentation part        4.8684279 magnetization       0.0151479

 Broyden mixing:
  rms(total) = 0.56658E+00    rms(broyden)= 0.56657E+00
  rms(prec ) = 0.95328E+00
  weight for this iteration     100.00

 eigenvalues of (default mixing * dielectric matrix)
  average eigenvalue GAMMA=   1.0523
  2.2912  1.6956  1.6956  1.4481  0.9844  0.9844  0.9539  0.6120  0.3507  0.3507
  0.2093

 Free energy of the ion-electron system (eV)
  ---------------------------------------------------
  alpha Z        PSCENC =       252.95646988
  Ewald energy   TEWEN  =     -2497.40215596
  -Hartree energ DENC   =      -629.09157556
  -exchange      EXHF   =         0.00000000
  -V(xc)+E(xc)   XCENC  =       145.38841299
  PAW double counting   =      3664.50600286    -3672.54157081
  entropy T*S    EENTRO =         0.00000000
  eigenvalues    EBANDS =      -344.52383849
  atomic energy  EATOM  =      3040.52701931
  ---------------------------------------------------
  free energy    TOTEN  =       -40.18123578 eV

  energy without entropy =      -40.18123578  energy(sigma->0) =      -40.18123578


--------------------------------------------------------------------------------------------------------




----------------------------------------- Iteration    1(  17)  ---------------------------------------


    POTLOK:  cpu time    0.08: real time    0.08
    SETDIJ:  cpu time    0.02: real time    0.02
     EDDAV:  cpu time   10.10: real time   10.10
 BZINTS: Fermi energy:  2.648075; 38.000000 electrons
         Band energy:-339.796653;  BLOECHL correction:  0.000000
       DOS:  cpu time    0.01: real time    0.02
    CHARGE:  cpu time    0.44: real time    0.44
    MIXING:  cpu time    0.00: real time    0.00
    --------------------------------------------
      LOOP:  cpu time   10.66: real time   10.67

 eigenvalue-minimisations  :  6584
 total energy-change (2. order) :-0.1448471E+00  (-0.1875503E-01)
 number of electron      37.9999980 magnetization       0.0071920
 augmentation part        4.7857860 magnetization       0.0086794

 Broyden mixing:
  rms(total) = 0.59364E+00    rms(broyden)= 0.59364E+00
  rms(prec ) = 0.11973E+01
  weight for this iteration     100.00

 eigenvalues of (default mixing * dielectric matrix)
  average eigenvalue GAMMA=   1.2519
  2.8704  2.8704  2.4137  1.3217  1.3217  1.0446  0.9191  0.7143  0.6360  0.3509
  0.3509  0.2093

 Free energy of the ion-electron system (eV)
  ---------------------------------------------------
  alpha Z        PSCENC =       252.95646988
  Ewald energy   TEWEN  =     -2497.40215596
  -Hartree energ DENC   =      -634.06856072
  -exchange      EXHF   =         0.00000000
  -V(xc)+E(xc)   XCENC  =       145.66768265
  PAW double counting   =      3596.31661383    -3604.52649887
  entropy T*S    EENTRO =         0.00000000
  eigenvalues    EBANDS =      -339.79665298
  atomic energy  EATOM  =      3040.52701931
  ---------------------------------------------------
  free energy    TOTEN  =       -40.32608287 eV

  energy without entropy =      -40.32608287  energy(sigma->0) =      -40.32608287


--------------------------------------------------------------------------------------------------------




----------------------------------------- Iteration    1(  18)  ---------------------------------------


    POTLOK:  cpu time    0.08: real time    0.08
    SETDIJ:  cpu time    0.02: real time    0.02
     EDDAV:  cpu time    9.79: real time    9.79
 BZINTS: Fermi energy:  3.069167; 38.000000 electrons
         Band energy:-324.593411;  BLOECHL correction:  0.000000
       DOS:  cpu time    0.02: real time    0.02
    CHARGE:  cpu time    0.44: real time    0.44
    MIXING:  cpu time    0.00: real time    0.00
    --------------------------------------------
      LOOP:  cpu time   10.35: real time   10.35

 eigenvalue-minimisations  :  6336
 total energy-change (2. order) : 0.6931295E-01  (-0.6795135E-01)
 number of electron      37.9999980 magnetization       0.0018286
 augmentation part        4.6600801 magnetization       0.0038502

 Broyden mixing:
  rms(total) = 0.38788E+00    rms(broyden)= 0.38786E+00
  rms(prec ) = 0.10104E+01
  weight for this iteration     100.00

 eigenvalues of (default mixing * dielectric matrix)
  average eigenvalue GAMMA=   1.2717
  3.3033  3.3033  2.0157  1.4308  1.4308  1.1036  0.8890  0.7628  0.7628  0.2093
  0.3509  0.3509  0.6194

 Free energy of the ion-electron system (eV)
  ---------------------------------------------------
  alpha Z        PSCENC =       252.95646988
  Ewald energy   TEWEN  =     -2497.40215596
  -Hartree energ DENC   =      -649.41722362
  -exchange      EXHF   =         0.00000000
  -V(xc)+E(xc)   XCENC  =       146.70080529
  PAW double counting   =      3684.07934546    -3693.10761911
  entropy T*S    EENTRO =         0.00000000
  eigenvalues    EBANDS =      -324.59341116
  atomic energy  EATOM  =      3040.52701931
  ---------------------------------------------------
  free energy    TOTEN  =       -40.25676992 eV

  energy without entropy =      -40.25676992  energy(sigma->0) =      -40.25676992


--------------------------------------------------------------------------------------------------------




----------------------------------------- Iteration    1(  19)  ---------------------------------------


    POTLOK:  cpu time    0.08: real time    0.08
    SETDIJ:  cpu time    0.01: real time    0.02
     EDDAV:  cpu time   10.21: real time   10.22
 BZINTS: Fermi energy:  3.397336; 38.000000 electrons
         Band energy:-314.706949;  BLOECHL correction:  0.000000
       DOS:  cpu time    0.02: real time    0.02
    CHARGE:  cpu time    0.44: real time    0.44
    MIXING:  cpu time    0.00: real time    0.00
    --------------------------------------------
      LOOP:  cpu time   10.77: real time   10.79

 eigenvalue-minimisations  :  6672
 total energy-change (2. order) :-0.3399851E+00  (-0.3483060E-01)
 number of electron      37.9999980 magnetization       0.0021865
 augmentation part        4.5629366 magnetization       0.0034845

 Broyden mixing:
  rms(total) = 0.59158E+00    rms(broyden)= 0.59157E+00
  rms(prec ) = 0.12749E+01
  weight for this iteration     100.00

 eigenvalues of (default mixing * dielectric matrix)
  average eigenvalue GAMMA=   1.2316
  2.9359  2.3438  2.1280  2.1280  1.1818  1.1818  1.0893  0.9841  0.9841  0.3509
  0.3509  0.2093  0.7477  0.6269

 Free energy of the ion-electron system (eV)
  ---------------------------------------------------
  alpha Z        PSCENC =       252.95646988
  Ewald energy   TEWEN  =     -2497.40215596
  -Hartree energ DENC   =      -659.66453497
  -exchange      EXHF   =         0.00000000
  -V(xc)+E(xc)   XCENC  =       147.40942982
  PAW double counting   =      3812.25182924    -3821.96786353
  entropy T*S    EENTRO =         0.00000000
  eigenvalues    EBANDS =      -314.70694878
  atomic energy  EATOM  =      3040.52701931
  ---------------------------------------------------
  free energy    TOTEN  =       -40.59675498 eV

  energy without entropy =      -40.59675498  energy(sigma->0) =      -40.59675498


--------------------------------------------------------------------------------------------------------




----------------------------------------- Iteration    1(  20)  ---------------------------------------


    POTLOK:  cpu time    0.08: real time    0.08
    SETDIJ:  cpu time    0.02: real time    0.02
     EDDAV:  cpu time    9.38: real time    9.41
 BZINTS: Fermi energy:  3.206720; 38.000000 electrons
         Band energy:-320.075762;  BLOECHL correction:  0.000000
       DOS:  cpu time    0.01: real time    0.02
    CHARGE:  cpu time    0.44: real time    0.44
    MIXING:  cpu time    0.00: real time    0.00
    --------------------------------------------
      LOOP:  cpu time    9.94: real time    9.98

 eigenvalue-minimisations  :  6016
 total energy-change (2. order) : 0.3300344E+00  (-0.1288702E-01)
 number of electron      37.9999980 magnetization       0.0024110
 augmentation part        4.6292260 magnetization       0.0033889

 Broyden mixing:
  rms(total) = 0.43243E+00    rms(broyden)= 0.43243E+00
  rms(prec ) = 0.96568E+00
  weight for this iteration     100.00

 eigenvalues of (default mixing * dielectric matrix)
  average eigenvalue GAMMA=   1.2181
  2.9345  2.4334  2.4334  1.5158  1.5158  1.2756  1.2756  0.9500  0.9500  0.2093
  0.3509  0.3509  0.7942  0.6642  0.6172

 Free energy of the ion-electron system (eV)
  ---------------------------------------------------
  alpha Z        PSCENC =       252.95646988
  Ewald energy   TEWEN  =     -2497.40215596
  -Hartree energ DENC   =      -653.89162360
  -exchange      EXHF   =         0.00000000
  -V(xc)+E(xc)   XCENC  =       147.09586615
  PAW double counting   =      3709.85399180    -3719.33052644
  entropy T*S    EENTRO =         0.00000000
  eigenvalues    EBANDS =      -320.07576166
[...]
      3     -30.0479      1.00000
      4     -21.7803      1.00000
      5     -13.4264      1.00000
      6     -13.1215      1.00000
      7     -13.0948      1.00000
      8      -7.3518      1.00000
      9      -7.3168      1.00000
     10      -7.0825      1.00000
     11      -1.1852      1.00000
     12      -0.7012      1.00000
     13      -0.4248      1.00000
     14       0.2830      1.00000
     15       0.4658      1.00000
     16       0.6236      1.00000
     17       2.1757      1.00000
     18       2.2623      1.00000
     19       2.7915      1.00000
     20       6.3427      0.00000
     21       6.4410      0.00000
     22       6.6602      0.00000
     23       8.4155      0.00000
     24      10.0330      0.00000
     25      10.3849      0.00000
     26      11.1431      0.00000
     27      11.3778      0.00000
     28      11.5239      0.00000
     29      13.0497      0.00000
     30      15.5083      0.00000
     31      16.8000      0.00000
     32      17.0014      0.00000

 k-point    38 :       0.3125    0.3125    0.4375
  band No.  band energies     occupation 
      1     -30.0838      1.00000
      2     -30.0660      1.00000
      3     -30.0658      1.00000
      4     -21.7744      1.00000
      5     -13.3814      1.00000
      6     -13.0774      1.00000
      7     -13.0610      1.00000
      8      -7.5402      1.00000
      9      -7.4078      1.00000
     10      -7.1776      1.00000
     11      -1.0331      1.00000
     12      -0.4675      1.00000
     13      -0.3769      1.00000
     14      -0.0371      1.00000
     15       0.5407      1.00000
     16       0.5440      1.00000
     17       2.3753      1.00000
     18       2.4622      1.00000
     19       2.6718      1.00000
     20       6.4320      0.00000
     21       6.5405      0.00000
     22       6.5458      0.00000
     23       9.2113      0.00000
     24       9.5986      0.00000
     25      10.5377      0.00000
     26      10.5663      0.00000
     27      10.7087      0.00000
     28      11.6757      0.00000
     29      12.5118      0.00000
     30      15.2314      0.00000
     31      16.9190      0.00000
     32      17.4662      0.00000

 k-point    39 :       0.4375    0.3125    0.4375
  band No.  band energies     occupation 
      1     -30.0831      1.00000
      2     -30.0782      1.00000
      3     -30.0654      1.00000
      4     -21.7567      1.00000
      5     -13.2251      1.00000
      6     -13.0608      1.00000
      7     -13.0441      1.00000
      8      -7.5965      1.00000
      9      -7.5439      1.00000
     10      -7.4014      1.00000
     11      -1.2206      1.00000
     12      -0.6984      1.00000
     13      -0.3913      1.00000
     14       0.0840      1.00000
     15       0.4609      1.00000
     16       0.5564      1.00000
     17       2.5234      1.00000
     18       2.6086      1.00000
     19       2.8241      1.00000
     20       6.5998      0.00000
     21       6.6787      0.00000
     22       6.7490      0.00000
     23       9.3012      0.00000
     24       9.9372      0.00000
     25      10.1527      0.00000
     26      10.3596      0.00000
     27      10.5501      0.00000
     28      12.0253      0.00000
     29      12.8868      0.00000
     30      15.3274      0.00000
     31      17.3031      0.00000
     32      17.4550      0.00000

 k-point    40 :       0.4375    0.4375    0.4375
  band No.  band energies     occupation 
      1     -30.0825      1.00000
      2     -30.0776      1.00000
      3     -30.0776      1.00000
      4     -21.7398      1.00000
      5     -13.0728      1.00000
      6     -13.0160      1.00000
      7     -13.0104      1.00000
      8      -7.7355      1.00000
      9      -7.7054      1.00000
     10      -7.6261      1.00000
     11      -1.3599      1.00000
     12      -0.7794      1.00000
     13      -0.6670      1.00000
     14       0.3608      1.00000
     15       0.5021      1.00000
     16       0.5518      1.00000
     17       2.7917      1.00000
     18       2.8295      1.00000
     19       2.9100      1.00000
     20       6.8090      0.00000
     21       6.8116      0.00000
     22       6.8764      0.00000
     23       9.5462      0.00000
     24       9.6653      0.00000
     25       9.7638      0.00000
     26      10.2229      0.00000
     27      10.2877      0.00000
     28      12.7211      0.00000
     29      12.8665      0.00000
     30      15.2074      0.00000
     31      17.7557      0.00000
     32      17.8718      0.00000


--------------------------------------------------------------------------------------------------------


 soft charge-density along one line, spin component           1
         0         1         2         3         4         5         6         7         8         9
 total charge-density along one line
 
 soft charge-density along one line, spin component           2
         0         1         2         3         4         5         6         7         8         9
 total charge-density along one line
 
 pseudopotential strength for first ion, spin component:           1
  1.192  -5.016   0.000  -0.002   0.000   0.000   0.000   0.000
 -5.016   0.670  -0.000   0.001  -0.000   0.000  -0.001   0.000
  0.000  -0.000  -7.685  -0.000   0.000   4.453  -0.000   0.000
 -0.002   0.001  -0.000  -7.685   0.000  -0.000   4.453   0.000
  0.000  -0.000   0.000   0.000  -7.685   0.000   0.000   4.453
  0.000   0.000   4.453  -0.000   0.000   6.773   0.000  -0.000
  0.000  -0.001  -0.000   4.453   0.000   0.000   6.773  -0.000
  0.000   0.000   0.000   0.000   4.453  -0.000  -0.000   6.773
  0.000  -0.000   0.000   0.000   0.000   0.000   0.000   0.000
 -0.000   0.000  -0.001   0.000   0.000  -0.000   0.000   0.000
 -0.000   0.000  -0.000  -0.001  -0.000  -0.000  -0.000  -0.000
  0.000  -0.000   0.000   0.000  -0.001   0.000   0.000  -0.000
 -0.000   0.000  -0.000   0.000   0.000  -0.000   0.000   0.000
  0.000  -0.000   0.000   0.000   0.000   0.000   0.000   0.000
 -0.000   0.000  -0.001   0.000   0.000  -0.000   0.000   0.000
 -0.000   0.000  -0.000  -0.001  -0.000  -0.000  -0.000  -0.000
  0.000  -0.000   0.000   0.000  -0.001   0.000   0.000  -0.000
 -0.000   0.000  -0.000   0.000   0.000  -0.000   0.000   0.000
 pseudopotential strength for first ion, spin component:           2
  1.192  -5.016   0.000  -0.002   0.000   0.000   0.000   0.000
 -5.016   0.670  -0.000   0.001  -0.000   0.000  -0.001   0.000
  0.000  -0.000  -7.685  -0.000   0.000   4.453  -0.000   0.000
 -0.002   0.001  -0.000  -7.685   0.000  -0.000   4.453   0.000
  0.000  -0.000   0.000   0.000  -7.685   0.000   0.000   4.453
  0.000   0.000   4.453  -0.000   0.000   6.773   0.000  -0.000
  0.000  -0.001  -0.000   4.453   0.000   0.000   6.773  -0.000
  0.000   0.000   0.000   0.000   4.453  -0.000  -0.000   6.773
  0.000  -0.000   0.000   0.000   0.000   0.000   0.000   0.000
 -0.000   0.000  -0.001   0.000   0.000  -0.000   0.000   0.000
 -0.000   0.000  -0.000  -0.001  -0.000  -0.000  -0.000  -0.000
  0.000  -0.000   0.000   0.000  -0.001   0.000   0.000  -0.000
 -0.000   0.000  -0.000   0.000   0.000  -0.000   0.000   0.000
  0.000  -0.000   0.000   0.000   0.000   0.000   0.000   0.000
 -0.000   0.000  -0.001   0.000   0.000  -0.000   0.000   0.000
 -0.000   0.000  -0.000  -0.001  -0.000  -0.000  -0.000  -0.000
  0.000  -0.000   0.000   0.000  -0.001   0.000   0.000  -0.000
 -0.000   0.000  -0.000   0.000   0.000  -0.000   0.000   0.000
 total augmentation occupancy for first ion, spin component:           1
  2.004  -0.004   0.000  -0.000   0.000   0.000  -0.000   0.000   0.000  -0.000   0.000   0.000   0.000   0.000   0.000  -0.000
 -0.004   0.394   0.000  -0.009   0.000  -0.000   0.002   0.000   0.000   0.000  -0.016   0.000   0.000   0.000   0.000   0.009
  0.000  -0.000   2.021   0.000   0.000  -0.009   0.000   0.000   0.000  -0.014   0.000  -0.000  -0.000   0.000   0.006   0.000
 -0.000  -0.009   0.000   2.021   0.000  -0.000  -0.009   0.000   0.000   0.000  -0.007   0.000   0.000   0.000   0.000   0.003
  0.000   0.000   0.000   0.000   2.021   0.000   0.000  -0.009  -0.000   0.000   0.000  -0.014   0.000  -0.000   0.000   0.000
  0.000   0.000  -0.009   0.000   0.000   0.010   0.000   0.000   0.000   0.005   0.000   0.000   0.000   0.000  -0.003   0.000
 -0.000   0.002   0.000  -0.009   0.000   0.000   0.010   0.000   0.000   0.000   0.003   0.000   0.000   0.000   0.000  -0.002
  0.000   0.000   0.000   0.000  -0.009   0.000   0.000   0.010   0.000   0.000   0.000   0.005   0.000   0.000   0.000   0.000
  0.000   0.000   0.000   0.000  -0.000   0.000   0.000   0.000   2.901   0.000   0.000   0.000   0.000  -1.540   0.000   0.000
  0.000   0.000  -0.014  -0.000  -0.000   0.005  -0.000  -0.000   0.000   2.748   0.000   0.000  -0.000   0.000  -1.458  -0.000
  0.000  -0.016  -0.000  -0.007   0.000   0.000   0.003   0.000   0.000   0.000   1.813   0.000   0.000   0.000   0.000  -0.955
  0.000   0.000   0.000   0.000  -0.014   0.000   0.000   0.005   0.000   0.000   0.000   2.748   0.000  -0.000   0.000   0.000
  0.000   0.000   0.000   0.000   0.000   0.000   0.000   0.000   0.000   0.000   0.000   0.000   1.722   0.000   0.000   0.000
  0.000   0.000   0.000   0.000  -0.000   0.000   0.000  -0.000  -1.540   0.000   0.000  -0.000   0.000   0.819   0.000   0.000
  0.000   0.000   0.006   0.000   0.000  -0.003  -0.000   0.000   0.000  -1.458   0.000   0.000  -0.000   0.000   0.776  -0.000
 -0.000   0.009  -0.000   0.003   0.000   0.000  -0.002   0.000   0.000   0.000  -0.955   0.000   0.000   0.000   0.000   0.504
  0.000   0.000   0.000   0.000   0.006   0.000   0.000  -0.003  -0.000   0.000   0.000  -1.458   0.000   0.000   0.000   0.000
  0.000   0.000   0.000   0.000   0.000   0.000   0.000   0.000   0.000  -0.000   0.000   0.000  -0.908   0.000   0.000   0.000
 total augmentation occupancy for first ion, spin component:           2
 -0.000  -0.000   0.000   0.000  -0.000  -0.000   0.000   0.000   0.000   0.000  -0.000  -0.000   0.000   0.000   0.000   0.000
 -0.000   0.000  -0.000   0.000   0.000   0.000  -0.000  -0.000   0.000   0.000   0.000  -0.000   0.000   0.000   0.000  -0.000
  0.000  -0.000  -0.000   0.000   0.000   0.000  -0.000   0.000  -0.000  -0.000   0.000   0.000   0.000   0.000   0.000   0.000
  0.000   0.000   0.000  -0.000   0.000   0.000  -0.000   0.000   0.000  -0.000  -0.000  -0.000   0.000   0.000   0.000   0.000
 -0.000   0.000   0.000   0.000  -0.000  -0.000   0.000   0.000   0.000   0.000   0.000  -0.000   0.000   0.000   0.000  -0.000
 -0.000   0.000   0.000   0.000  -0.000   0.000  -0.000   0.000   0.000   0.000  -0.000   0.000   0.000   0.000  -0.000  -0.000
  0.000  -0.000  -0.000  -0.000   0.000  -0.000  -0.000   0.000   0.000  -0.000  -0.000   0.000   0.000   0.000  -0.000   0.000
  0.000  -0.000   0.000   0.000   0.000   0.000   0.000   0.000   0.000   0.000   0.000   0.000  -0.000   0.000  -0.000   0.000
  0.000   0.000  -0.000   0.000   0.000   0.000   0.000   0.000   0.000   0.000   0.000   0.000   0.000  -0.000  -0.000   0.000
  0.000   0.000  -0.000  -0.000   0.000   0.000  -0.000   0.000   0.000  -0.000   0.000   0.000   0.000  -0.000  -0.000   0.000
 -0.000   0.000   0.000  -0.000   0.000  -0.000  -0.000   0.000   0.000   0.000   0.000   0.000   0.000   0.000   0.000  -0.000
 -0.000  -0.000   0.000  -0.000  -0.000   0.000   0.000   0.000   0.000   0.000   0.000  -0.000   0.000   0.000   0.000   0.000
  0.000   0.000   0.000   0.000   0.000   0.000   0.000  -0.000   0.000   0.000   0.000   0.000  -0.000   0.000  -0.000   0.000
  0.000   0.000   0.000   0.000   0.000   0.000   0.000   0.000  -0.000  -0.000   0.000   0.000   0.000   0.000   0.000   0.000
  0.000   0.000   0.000   0.000   0.000  -0.000  -0.000  -0.000  -0.000  -0.000   0.000   0.000  -0.000   0.000   0.000   0.000
  0.000  -0.000   0.000   0.000  -0.000  -0.000   0.000   0.000   0.000   0.000  -0.000   0.000   0.000   0.000   0.000   0.000
  0.000   0.000   0.000   0.000   0.000   0.000   0.000  -0.000   0.000   0.000  -0.000  -0.000   0.000  -0.000   0.000  -0.000
  0.000   0.000   0.000   0.000   0.000   0.000   0.000   0.000  -0.000   0.000   0.000   0.000   0.000   0.000   0.000   0.000


------------------------ aborting loop because EDIFF is reached ----------------------------------------


 


 total charge     
 
# of ion     s       p       d       tot
----------------------------------------
  1        2.006   5.647   0.309   7.962
  2        0.294   6.407   1.874   8.575
  3        1.575   3.310   0.000   4.884
  4        1.552   3.597   0.000   5.149
  5        1.563   3.448   0.000   5.011
------------------------------------------------
tot        6.989  22.409   2.183  31.581
 


 magnetization (x)
 
# of ion     s       p       d       tot
----------------------------------------
  1       -0.000  -0.000  -0.000  -0.000
  2        0.000  -0.000   0.000   0.000
  3        0.000   0.000   0.000   0.000
  4        0.000   0.000   0.000   0.000
  5       -0.000  -0.000   0.000  -0.000
------------------------------------------------
tot       -0.000  -0.000   0.000  -0.000
 
    CHARGE:  cpu time    0.44: real time    0.44
    FORLOC:  cpu time    0.00: real time    0.00
    FORNL :  cpu time    2.41: real time    2.42
    STRESS:  cpu time    7.29: real time    7.29
    FORCOR:  cpu time    0.08: real time    0.08
    FORHAR:  cpu time    0.01: real time    0.01
    MIXING:  cpu time    0.00: real time    0.00
    OFIELD:  cpu time    0.00: real time    0.00

  FORCE on cell =-STRESS in cart. coord.  units (eV):
  Direction    XX          YY          ZZ          XY          YZ          ZX
  --------------------------------------------------------------------------------------
  Alpha Z   252.95647   252.95647   252.95647
  Ewald    -825.27863  -825.27863  -846.84703     0.00000    -0.00000    -0.00000
  Hartree   218.45440   218.45440   205.78465    -0.00000    -0.00000    -0.00000
  E(xc)    -171.22853  -171.22853  -171.26771    -0.00000     0.00000     0.00000
  Local     -37.48972   -37.48972    -3.16153     0.00000     0.00000    -0.00000
  n-local  -129.30011  -126.46040  -128.12315    -0.35755    -0.33950    -0.30053
  augment    63.35875    63.35875    63.21985    -0.00000    -0.00000     0.00000
  Kinetic   621.24548   633.01257   626.62076    -3.13091    -3.27775    -2.76817
  Fock        0.00000     0.00000     0.00000     0.00000     0.00000     0.00000
  -------------------------------------------------------------------------------------
  Total       0.02151     0.02151    -0.81768     0.00000     0.00000     0.00000
  in kB       0.52023     0.52023   -19.77718     0.00000     0.00000     0.00000
  external pressure =       -6.25 kB  Pullay stress =        0.00 kB


 VOLUME and BASIS-vectors are now :
 -----------------------------------------------------------------------------
  energy-cutoff  :      520.00
  volume of cell :       66.24
      direct lattice vectors                 reciprocal lattice vectors
     4.022485000  0.000000000  0.000000000     0.248602543  0.000000000  0.000000000
     0.000000000  4.022485000  0.000000000     0.000000000  0.248602543  0.000000000
     0.000000000  0.000000000  4.093944000     0.000000000  0.000000000  0.244263234

  length of vectors
     4.022485000  4.022485000  4.093944000     0.248602543  0.248602543  0.244263234


 FORCES acting on ions
    electron-ion (+dipol)            ewald-force                    non-local-force                 convergence-correction
 -----------------------------------------------------------------------------------------------
   -.618E-14 -.656E-14 0.245E+01   0.715E-14 -.190E-14 -.220E+01   0.000E+00 0.000E+00 -.295E+00   -.387E-13 -.885E-14 0.356E-03
   0.159E-12 0.174E-11 0.247E+02   0.632E-14 0.195E-13 -.240E+02   0.000E+00 0.000E+00 -.264E+00   0.540E-13 0.726E-14 -.990E-03
   -.992E-14 0.168E-12 0.671E+01   0.324E-14 -.325E-14 -.695E+01   0.000E+00 0.000E+00 0.193E+00   -.456E-13 -.590E-13 0.106E-02
   0.124E-12 -.389E-13 0.671E+01   -.969E-14 -.145E-13 -.695E+01   -.217E-18 0.542E-19 0.193E+00   0.429E-13 0.109E-13 0.106E-02
   0.129E-12 0.126E-11 -.367E+02   -.599E-14 -.127E-14 0.401E+02   0.000E+00 0.000E+00 -.369E+01   0.185E-13 -.410E-13 0.295E-02
 -----------------------------------------------------------------------------------------------
   0.396E-12 0.312E-11 0.384E+01   0.103E-14 -.144E-14 0.000E+00   -.217E-18 0.542E-19 -.386E+01   0.311E-13 -.907E-13 0.444E-02
 
 
 POSITION                                       TOTAL-FORCE (eV/Angst)
 -----------------------------------------------------------------------------------
      0.00000      0.00000      0.03531         0.000000     -0.000000     -0.038585
      2.01124      2.01124      2.10763         0.000000     -0.000000      0.410313
      0.00000      2.01124      2.04373         0.000000      0.000000     -0.049548
      2.01124      0.00000      2.04373         0.000000      0.000000     -0.049548
      2.01124      2.01124      4.06178         0.000000      0.000000     -0.272633
 -----------------------------------------------------------------------------------
    total drift:                                0.000000      0.000000     -0.013381


--------------------------------------------------------------------------------------------------------



  FREE ENERGIE OF THE ION-ELECTRON SYSTEM (eV)
  ---------------------------------------------------
  free  energy   TOTEN  =       -39.89660520 eV

  energy  without entropy=      -39.89660520  energy(sigma->0) =      -39.89660520
 


--------------------------------------------------------------------------------------------------------


    POTLOK:  cpu time    0.10: real time    0.10


--------------------------------------------------------------------------------------------------------


 writing wavefunctions
     LOOP+:  cpu time  319.19: real time  320.40
    4ORBIT:  cpu time    0.00: real time    0.00
 


 total charge     
 
# of ion     s       p       d       tot
----------------------------------------
  1        2.006   5.647   0.309   7.962
  2        0.294   6.407   1.874   8.575
  3        1.575   3.310   0.000   4.884
  4        1.552   3.597   0.000   5.149
  5        1.563   3.448   0.000   5.011
------------------------------------------------
tot        6.989  22.409   2.183  31.581
 


 magnetization (x)
 
# of ion     s       p       d       tot
----------------------------------------
  1       -0.000  -0.000  -0.000  -0.000
  2        0.000  -0.000   0.000   0.000
  3        0.000   0.000   0.000   0.000
  4        0.000   0.000   0.000   0.000
  5       -0.000  -0.000   0.000  -0.000
------------------------------------------------
tot       -0.000  -0.000   0.000  -0.000
 
 BZINTS: Fermi energy:  3.036654; 38.000000 electrons
         Band energy:-330.678285;  BLOECHL correction:  0.000000

 total amount of memory used by VASP on root node    48938. kBytes
========================================================================

   base      :      30000. kBytes
   nonlr-proj:       3311. kBytes
   fftplans  :       1096. kBytes
   grid      :       4792. kBytes
   one-center:        155. kBytes
   wavefun   :       9584. kBytes
 
  
  
 General timing and accounting informations for this job:
 ========================================================
  
                  Total CPU time used (sec):      328.255
                            User time (sec):      316.070
                          System time (sec):       12.185
                         Elapsed time (sec):      331.231
  
                   Maximum memory used (kb):       65056.
                   Average memory used (kb):           0.
  
                          Minor page faults:      3376158
                          Major page faults:            7
                 Voluntary context switches:         1239
