
Running Job 1 of 1 mol.qin
qchem mol.qin_23898.0 /tmp/qchem23898/ 1
srun -n 1 /global/common/edison/software/qchem/5.1beta/exe/qcprog.exe mol.qin_23898.0 /tmp/qchem23898/

Process 0 of 1 is on nid02699 - thread support 0
initial socket setup ...start
initial socket setup ...done 
now start server 0 ... 
Check license passed

                  Welcome to Q-Chem
     A Quantum Leap Into The Future Of Chemistry


 Q-Chem 5.1, Q-Chem, Inc., Pleasanton, CA (2018)

 Yihan Shao,  Zhengting Gan,  E. Epifanovsky,  A. T. B. Gilbert,  M. Wormit,  
 J. Kussmann,  A. W. Lange,  A. Behn,  Jia Deng,  Xintian Feng,  D. Ghosh,  
 M. Goldey,  P. R. Horn,  L. D. Jacobson,  I. Kaliman,  T. Kus,  A. Landau,  
 Jie Liu,  E. I. Proynov,  R. M. Richard,  R. P. Steele,  E. J. Sundstrom,  
 H. L. Woodcock III,  P. M. Zimmerman,  D. Zuev,  B. Albrecht,  E. Alguire,  
 S. A. Baeppler,  D. Barton,  Z. Benda,  Y. A. Bernard,  E. J. Berquist,  
 K. B. Bravaya,  H. Burton,  D. Casanova,  Chun-Min Chang,  Yunqing Chen,  
 A. Chien,  K. D. Closser,  M. P. Coons,  S. Coriani,  S. Dasgupta,  
 A. L. Dempwolff,  M. Diedenhofen,  Hainam Do,  R. G. Edgar,  Po-Tung Fang,  
 S. Faraji,  S. Fatehi,  Qingguo Feng,  K. D. Fenk,  J. Fosso-Tande,  
 Qinghui Ge,  A. Ghysels,  G. Gidofalvi,  J. Gomes,  J. Gonthier,  A. Gunina,  
 D. Hait,  M. W. D. Hanson-Heine,  P. H. P. Harbach,  A. W. Hauser,  
 J. E. Herr,  E. G. Hohenstein,  Z. C. Holden,  Kerwin Hui,  B. C. Huynh,  
 T.-C. Jagau,  Hyunjun Ji,  B. Kaduk,  K. Khistyaev,  Jaehoon Kim,  
 P. Klunzinger,  K. Koh,  D. Kosenkov,  L. Koulias,  T. Kowalczyk,  
 C. M. Krauter,  A. Kunitsa,  Ka Un Lao,  A. Laurent,  K. V. Lawler,  
 Joonho Lee,  D. Lefrancois,  S. Lehtola,  D. S. Levine,  Yi-Pei Li,  
 You-Sheng Lin,  Fenglai Liu,  E. Livshits,  A. Luenser,  P. Manohar,  
 E. Mansoor,  S. F. Manzer,  Shan-Ping Mao,  Yuezhi Mao,  N. Mardirossian,  
 A. V. Marenich,  T. Markovich,  L. A. Martinez-Martinez,  S. A. Maurer,  
 N. J. Mayhall,  S. C. McKenzie,  J.-M. Mewes,  A. F. Morrison,  
 J. W. Mullinax,  K. Nanda,  T. S. Nguyen-Beck,  R. Olivares-Amaya,  
 J. A. Parkhill,  T. M. Perrine,  F. Plasser,  P. Pokhilko,  S. Prager,  
 A. Prociuk,  E. Ramos,  D. R. Rehn,  F. Rob,  M. Schneider,  N. Sergueev,  
 S. M. Sharada,  S. Sharma,  D. W. Small,  T. Stauch,  T. Stein,  
 Yu-Chuan Su,  A. J. W. Thom,  A. Tkatchenko,  T. Tsuchimochi,  N. M. Tubman,  
 L. Vogt,  M. L. Vidal,  O. Vydrov,  M. A. Watson,  J. Wenzel,  
 M. de Wergifosse,  T. A. Wesolowski,  A. White,  J. Witte,  A. Yamada,  
 Jun Yang,  K. Yao,  S. Yeganeh,  S. R. Yost,  Zhi-Qiang You,  A. Zech,  
 Igor Ying Zhang,  Xing Zhang,  Yan Zhao,  Ying Zhu,  B. R. Brooks,  
 G. K. L. Chan,  C. J. Cramer,  M. S. Gordon,  W. J. Hehre,  A. Klamt,  
 M. W. Schmidt,  C. D. Sherrill,  D. G. Truhlar,  A. Aspuru-Guzik,  R. Baer,  
 A. T. Bell,  N. A. Besley,  Jeng-Da Chai,  R. A. DiStasio Jr.,  A. Dreuw,  
 B. D. Dunietz,  T. R. Furlani,  Chao-Ping Hsu,  Yousung Jung,  Jing Kong,  
 D. S. Lambrecht,  WanZhen Liang,  C. Ochsenfeld,  V. A. Rassolov,  
 L. V. Slipchenko,  J. E. Subotnik,  T. Van Voorhis,  J. M. Herbert,  
 A. I. Krylov,  P. M. W. Gill,  M. Head-Gordon

 Contributors to earlier versions of Q-Chem not listed above: 
 R. D. Adamson,  B. Austin,  J. Baker,  G. J. O. Beran,  K. Brandhorst,  
 S. T. Brown,  E. F. C. Byrd,  A. K. Chakraborty,  C.-L. Cheng,  
 Siu Hung Chien,  D. M. Chipman,  D. L. Crittenden,  H. Dachsel,  
 R. J. Doerksen,  A. D. Dutoi,  L. Fusti-Molnar,  W. A. Goddard III,  
 A. Golubeva-Zadorozhnaya,  S. R. Gwaltney,  G. Hawkins,  A. Heyden,  
 S. Hirata,  G. Kedziora,  F. J. Keil,  C. Kelley,  Jihan Kim,  R. A. King,  
 R. Z. Khaliullin,  P. P. Korambath,  W. Kurlancheek,  A. M. Lee,  M. S. Lee,  
 S. V. Levchenko,  Ching Yeh Lin,  D. Liotard,  R. C. Lochan,  I. Lotan,  
 P. E. Maslen,  N. Nair,  D. P. O'Neill,  D. Neuhauser,  E. Neuscamman,  
 C. M. Oana,  R. Olson,  B. Peters,  R. Peverati,  P. A. Pieniazek,  
 Y. M. Rhee,  J. Ritchie,  M. A. Rohrdanz,  E. Rosta,  N. J. Russ,  
 H. F. Schaefer III,  N. E. Schultz,  N. Shenvi,  A. C. Simmonett,  A. Sodt,  
 D. Stuck,  K. S. Thanthiriwatte,  V. Vanovschi,  Tao Wang,  A. Warshel,  
 C. F. Williams,  Q. Wu,  X. Xu,  W. Zhang

 Please cite Q-Chem as follows:
 Y. Shao et al., Mol. Phys. 113, 184-215 (2015)
 DOI: 10.1080/00268976.2014.952696

 Q-Chem 5.1.0 for Intel X86 EM64T Linux

 Parts of Q-Chem use Armadillo 8.300.2 (Tropical Shenanigans).
 http://arma.sourceforge.net/

 Q-Chem begins on Wed Jul 11 18:13:41 2018  

Host: edison04
0

     Scratch files written to /tmp/qchem23898//
 Apr1918  _RNUM -1
 Parallel job on  1  processors
Processing $rem in /global/common/edison/software/qchem/5.1beta/config/preferences.
 MEM_TOTAL  2000 

Checking the input file for inconsistencies... 	...done.

--------------------------------------------------------------
User input:
--------------------------------------------------------------
$molecule
0 1
O     -0.0074020873     -0.9725377021     -0.0818413860
O     -2.1480608226     -0.1084306860      0.1158114145
C      0.9721579268      0.1031170682     -0.0849730813
C      0.0639819460      1.1044382255     -0.0652741366
C      2.3416050805      0.1067744221      0.1693642554
C     -0.9818466411      0.0148754594      0.0128826591
H      0.0964214130      2.1820834157     -0.0381875096
H      2.6078378821     -0.7702662599      0.7796903301
$end

$rem
job_type = freq
basis = 6-311++g*
max_scf_cycles = 200
gen_scfman = true
scf_algorithm = gdm
method = wb97xd
geom_opt_max_cycles = 200
$end
--------------------------------------------------------------
 ----------------------------------------------------------------
             Standard Nuclear Orientation (Angstroms)
    I     Atom           X                Y                Z
 ----------------------------------------------------------------
    1      O      -0.0430325408    -0.9853590354    -0.1407980743
    2      O      -2.1451099048    -0.0493942385     0.1301411082
    3      C       0.9760223487     0.0529262781    -0.1323391355
    4      C       0.1067609782     1.0860059118    -0.0620052126
    5      C       2.3496180414    -0.0020425494     0.0919367324
    6      C      -0.9774684586     0.0339135985     0.0055316837
    7      H       0.1802711894     2.1603270479    -0.0025450931
    8      H       2.5952709178    -0.9071202911     0.6690564131
 ----------------------------------------------------------------
 Molecular Point Group                 C1    NOp =  1
 Largest Abelian Subgroup              C1    NOp =  1
 Nuclear Repulsion Energy =   199.3126683293 hartrees
 There are       21 alpha and       21 beta electrons
 Requested basis set is 6-311++G(d)
 There are 44 shells and 140 basis functions

 Total QAlloc Memory Limit   2000 MB
 Mega-Array Size       188 MB
 MEM_STATIC part       192 MB

                       Distance Matrix (Angstroms)
             O (  1)   O (  2)   C (  3)   C (  4)   C (  5)   C (  6)
   O (  2)  2.316931
   C (  3)  1.454847  3.133821
   C (  4)  2.078268  2.529224  1.351967
   C (  5)  2.597278  4.495140  1.392870  2.497590
   C (  6)  1.390503  1.177223  1.958442  1.512287  3.328403
   H (  7)  3.156631  3.210587  2.256370  1.078474  3.064447  2.421169
   H (  8)  2.760911  4.847405  2.045945  3.271037  1.101171  3.753702
             H (  7)
   H (  8)  3.961377
 
 A cutoff of  1.0D-12 yielded    953 shell pairs
 There are      9858 function pairs (     10727 Cartesian)
 
 -------------------------------------------------------
 OpenMP Integral Computing Module                       
 Release: version 1.0, May 2013, Q-Chem Inc. Pittsburgh 
 -------------------------------------------------------
 Integral Job Info:
 Integral job number is                      11
 Integral operator is                         1
 short-range coefficients              22203600
 long-range coefficients              100000000
 Omega coefficients                         200
 if combine SR and LR in K                    1
 Integral screening is                        0
 Integral computing path is                   2
 max size of driver memory is            800000
 size of driver memory is                593474
 size of scratch memory is              2428936
 max col of scratch BK array               1296
 max len of scratch array in speh3          155
 max len of scratch index in speh4           18
 max int batch size is                      520
 min int batch size is                       52
 fixed nKL is                                52
 max L of basis functions is                  2
 order of int derivative is                   0
 number of shells is                         44
 number of basis is                         146
 number of cartesian basis is               146
 number of contracted shell pairs           953
 number of primitive shell pairs           2949
 maxK2 (contraction) of shell pair           36
 max number of K2 of shell pair               1
 max number of CS2 of shell pair            174
 max number of PS2 of shell pair            636
 mem total for path MDJ                  527990
 -------------------------------------------------------
 Smallest overlap matrix eigenvalue = 1.88E-05
 Guess from superposition of atomic densities
 Warning:  Energy on first SCF cycle will be non-variational
 SAD guess density has 42.000000 electrons

 -----------------------------------------------------------------------
  General SCF calculation program by
  Eric Jon Sundstrom, Paul Horn, Yuezhi Mao, Dmitri Zuev, Alec White,
  David Stuck, Shaama M.S., Shane Yost, Joonho Lee, David Small,
  Daniel Levine, Susi Lehtola, Hugh Burton, Evgeny Epifanovsky
 -----------------------------------------------------------------------
 Exchange:     0.2220 Hartree-Fock + 1.0000 wB97X-D + LR-HF
 Correlation:  1.0000 wB97X-D
 Using SG-2 standard quadrature grid
 Dispersion:   Grimme D
 using 32 threads for integral computing
 -------------------------------------------------------
 OpenMP Integral computing Module                
 Release: version 1.0, May 2013, Q-Chem Inc. Pittsburgh 
 -------------------------------------------------------
 using 32 threads for integral computing
 -------------------------------------------------------
 OpenMP Integral computing Module                
 Release: version 1.0, May 2013, Q-Chem Inc. Pittsburgh 
 -------------------------------------------------------
 -------------------------------------------------------
 OpenMP BLAS3 based DFT computing Module                
 Release: version 1.0, May 2013, Q-Chem Inc. Pittsburgh 
 -------------------------------------------------------
 A restricted SCF calculation will be
 performed using Roothaan-Hall, GDM
 SCF converges when RMS gradient is below 1.0e-08
 ---------------------------------------
  Cycle       Energy         DIIS error
 ---------------------------------------
    1    -305.3276152429      5.66e-02  Roothaan Step
 ---------------------------------------
  Cycle       Energy        RMS Gradient
 ---------------------------------------
    1    -303.7106884733      1.93e-01   Descent step
    2    -303.7857965430      9.93e-02   Normal BFGS step
    3    -303.8319669410      1.86e-02   Normal BFGS step
    4    -303.8328245128      1.55e-02   Normal BFGS step
    5    -303.8354104240      2.89e-03   Normal BFGS step
    6    -303.8354710042      1.92e-03   Normal BFGS step
    7    -303.8355261972      7.92e-04   Normal BFGS step
    8    -303.8355304906      7.78e-04   Normal BFGS step
    9    -303.8355323563      3.33e-04   Normal BFGS step
   10    -303.8355327823      1.66e-04   Normal BFGS step
   11    -303.8355329480      7.55e-05   Normal BFGS step
   12    -303.8355329957      3.02e-05   Normal BFGS step
   13    -303.8355330064      1.74e-05   Normal BFGS step
   14    -303.8355330083      4.65e-06   Normal BFGS step
   15    -303.8355330084      5.69e-07   Normal BFGS step
   16    -303.8355330084      2.18e-07   Normal BFGS step
   17    -303.8355330084      7.38e-08   Normal BFGS step
   18    -303.8355330084      8.88e-08   Normal BFGS step
   19    -303.8355330084      1.30e-08   Normal BFGS step
   20    -303.8355330084      6.91e-09  Convergence criterion met
 ---------------------------------------
 SCF time:   CPU 397.61s  wall 14.00s 
 SCF   energy in the final basis set =     -303.8355330084
 
 --------------------------------------------------------------
 
                    Orbital Energies (a.u.)
 --------------------------------------------------------------
 
 Alpha MOs
 -- Occupied --
-19.319 -19.294 -10.465 -10.404 -10.373 -10.360  -1.260  -1.193
 -0.940  -0.865  -0.701  -0.675  -0.641  -0.601  -0.593  -0.527
 -0.507  -0.481  -0.415  -0.396  -0.345
 -- Virtual --
 -0.106   0.031   0.041   0.057   0.085   0.090   0.103   0.115
  0.120   0.126   0.134   0.137   0.152   0.156   0.166   0.180
  0.184   0.189   0.201   0.210   0.231   0.250   0.268   0.273
  0.281   0.304   0.328   0.338   0.346   0.361   0.377   0.387
  0.408   0.431   0.455   0.505   0.531   0.553   0.600   0.619
  0.633   0.653   0.658   0.670   0.683   0.699   0.731   0.787
  0.806   0.850   0.879   0.889   0.929   0.953   1.002   1.096
  1.133   1.159   1.205   1.225   1.234   1.253   1.261   1.317
  1.400   1.425   1.437   1.525   1.625   1.648   1.747   1.750
  1.810   1.823   1.829   1.878   1.945   2.014   2.043   2.122
  2.169   2.376   2.515   2.569   2.643   2.730   2.770   2.824
  2.858   2.911   2.921   2.938   3.027   3.065   3.136   3.171
  3.248   3.287   3.368   3.474   3.484   3.605   3.758   3.821
  3.988   4.052   4.188   5.083   5.122   5.203   5.519   5.590
  5.881  23.463  23.904  23.975  24.261  50.011  50.131
 --------------------------------------------------------------
 
          Ground-State Mulliken Net Atomic Charges

     Atom                 Charge (a.u.)
  ----------------------------------------
      1 O                    -0.104893
      2 O                    -0.250622
      3 C                    -0.269119
      4 C                     0.224105
      5 C                    -0.179860
      6 C                     0.035234
      7 H                     0.338774
      8 H                     0.206380
  ----------------------------------------
  Sum of atomic charges =     0.000000

 -----------------------------------------------------------------
                    Cartesian Multipole Moments
 -----------------------------------------------------------------
    Charge (ESU x 10^10)
                 0.0000
    Dipole Moment (Debye)
         X       0.9577      Y       1.3101      Z       0.4985
       Tot       1.6977
    Quadrupole Moments (Debye-Ang)
        XX     -44.1698     XY      -4.6422     YY     -31.8411
        XZ       2.1893     YZ      -0.1641     ZZ     -32.7658
    Octopole Moments (Debye-Ang^2)
       XXX     -20.0739    XXY     -14.6987    XYY      -3.7334
       YYY       5.9242    XXZ       3.2303    XYZ       0.1640
       YYZ       0.6364    XZZ      -4.4615    YZZ      -2.5038
       ZZZ       0.9331
    Hexadecapole Moments (Debye-Ang^3)
      XXXX    -586.1386   XXXY     -39.3989   XXYY    -100.3741
      XYYY      -5.2725   YYYY    -106.3307   XXXZ      14.8944
      XXYZ      -0.4328   XYYZ       0.9916   YYYZ      -0.1345
      XXZZ     -81.3542   XYZZ      -2.8427   YYZZ     -27.9622
      XZZZ       1.2610   YZZZ       0.3620   ZZZZ     -36.5983
 -----------------------------------------------------------------
 Calculating MO derivatives via CPSCF
 D1JvT checksum  = 268032 18852.7954476832
 D1KAT checksum  = 533760 1913.9401673327
 D1JvT checksum  = 268032 10984.3444454854
 D1KAT checksum  = 533760 831.8074404788
   1         3          24      0.282685    0.050103
   2         3          24      0.063638    0.013858
   3         3          24      0.015241    0.003323
   4         3          24      0.002689    0.000565
   5         3          24      0.000348    0.000074
   6        16          11      0.000033    0.000009
   7        26           1      0.000001    0.000001
   8        27           0      0.000000    0.000000    Roots Converged
 Time for AOints: 40.1 s (CPU) 1.9 s (wall)
 ------------------------------------------------------------------------------
                     AOints        : Timing summary (seconds)
 ------------------------------------------------------------------------------
     job step          cpu (% of tot)      sys (% of tot)     wall (% of tot)
 ------------------------------------------------------------------------------
  cpscf_lag         0.1795E+03 (24.9)   0.9500E-03 ( 7.1)   0.9600E+01 ( 2.6)
  iterzp            0.5022E+03 (69.5)   0.1213E-01 (90.4)   0.3508E+03 (96.8)
  make_fx           0.0000E+00 ( 0.0)   0.0000E+00 ( 0.0)   0.0000E+00 ( 0.0)
  AOints            0.4011E+02 ( 5.6)   0.3360E-03 ( 2.5)   0.1862E+01 ( 0.5)
 ------------------------------------------------------------------------------
   Grand Totals     0.7222E+03          0.1342E-01          0.3623E+03
 ------------------------------------------------------------------------------
 Calculating analytic Hessian of the SCF energy
 Polarizability Matrix (a.u.)
            1           2           3
    1 -86.4557252   6.2029693  -2.6852297
    2   6.2029693 -46.5072149   1.3559705
    3  -2.6852297   1.3559705 -32.0021673
atom: 0 element: 8
atom: 1 element: 8
atom: 2 element: 6
atom: 3 element: 6
atom: 4 element: 6
atom: 5 element: 6
atom: 6 element: 1
atom: 7 element: 1
 
 Direct stationary perturbation theory relativistic correction:
 
 rels  =       0.096415321520
 relv  =      -0.424226191053
 rel2e =       0.000000000000
 E_rel =      -0.327810869533
 
 Hessian of the SCF Energy
            1           2           3           4           5           6
    1   0.2075106   0.0054333   0.0019784  -0.0787585   0.0469735   0.0104779
    2   0.0054333   0.4546262   0.0180921   0.0231578   0.0217047  -0.0004148
    3   0.0019784   0.0180921   0.0551534   0.0100179  -0.0064552   0.0156189
    4  -0.0787585   0.0231578   0.0100179   0.9772520   0.0613875  -0.1007272
    5   0.0469735   0.0217047  -0.0064552   0.0613875   0.0798893  -0.0032045
    6   0.0104779  -0.0004148   0.0156189  -0.1007272  -0.0032045   0.0387069
    7  -0.0340115  -0.0346735  -0.0058172   0.0134935  -0.0124077   0.0027913
    8  -0.0264381  -0.1477629  -0.0051432   0.0107972  -0.0131741  -0.0064973
    9  -0.0205096   0.0042644  -0.0508608   0.0019317   0.0040000   0.0015793
   10   0.0076132  -0.0239904  -0.0018971  -0.0365123  -0.0213754   0.0047456
   11  -0.0159102  -0.1574815  -0.0016916  -0.0111445   0.0121491   0.0031842
   12  -0.0051604  -0.0043939   0.0343364   0.0011542   0.0033822   0.0216484
   13  -0.0424943   0.0060021  -0.0115606  -0.0084246   0.0038501  -0.0012547
   14  -0.0150767   0.0011522  -0.0050329  -0.0014060   0.0005506   0.0023027
   15   0.0173316  -0.0063917   0.0084141   0.0021391  -0.0039640  -0.0039434
   16  -0.0729437   0.0294623   0.0053461  -0.8653011  -0.0766489   0.0846424
   17   0.0103854  -0.1734602   0.0016371  -0.0811328  -0.1027995   0.0037261
   18   0.0048868  -0.0123038  -0.0695388   0.0860087   0.0039478  -0.0733708
   19   0.0060019  -0.0045059  -0.0006828  -0.0035813  -0.0009005   0.0002621
   20   0.0008704  -0.0038189  -0.0004666  -0.0014418  -0.0002759   0.0003106
   21   0.0017721  -0.0019067   0.0083647   0.0011345   0.0002205  -0.0010021
   22   0.0070822  -0.0008857   0.0026152   0.0018323  -0.0008786  -0.0009373
   23  -0.0062377   0.0050404  -0.0009397  -0.0002174   0.0019557   0.0005930
   24  -0.0107768   0.0030543  -0.0014878  -0.0016590   0.0020731   0.0007628
            7           8           9          10          11          12
    1  -0.0340115  -0.0264381  -0.0205096   0.0076132  -0.0159102  -0.0051604
    2  -0.0346735  -0.1477629   0.0042644  -0.0239904  -0.1574815  -0.0043939
    3  -0.0058172  -0.0051432  -0.0508608  -0.0018971  -0.0016916   0.0343364
    4   0.0134935   0.0107972   0.0019317  -0.0365123  -0.0111445   0.0011542
    5  -0.0124077  -0.0131741   0.0040000  -0.0213754   0.0121491   0.0033822
    6   0.0027913  -0.0064973   0.0015793   0.0047456   0.0031842   0.0216484
    7   0.6694080  -0.1995245   0.0530955  -0.2147960   0.1689037   0.0242176
    8  -0.1995245   0.4679509  -0.0161204   0.2102362  -0.3018515  -0.0178478
    9   0.0530955  -0.0161204   0.1320479   0.0301495  -0.0138667  -0.0496299
   10  -0.2147960   0.2102362   0.0301495   0.4394518  -0.1060504  -0.0280732
   11   0.1689037  -0.3018515  -0.0138667  -0.1060504   0.9405068   0.0405217
   12   0.0242176  -0.0178478  -0.0496299  -0.0280732   0.0405217   0.0991723
   13  -0.2577433  -0.0135460  -0.0526933  -0.0379983   0.0219564   0.0018039
   14   0.0481638  -0.0644704   0.0354198   0.0101608   0.0073719  -0.0047022
   15  -0.0734000   0.0078698  -0.0572408  -0.0143020   0.0028306   0.0001281
   16  -0.1530689  -0.0245432   0.0115790  -0.0968294  -0.0304381   0.0069715
   17   0.0561959   0.0643061  -0.0172502  -0.0550388  -0.1278703  -0.0028118
   18   0.0012960   0.0211582   0.0202461   0.0004545  -0.0076883  -0.0809779
   19   0.0050908   0.0111484   0.0020500  -0.0600101  -0.0242677  -0.0005078
   20  -0.0112988  -0.0033040  -0.0004961  -0.0188501  -0.3714560  -0.0165484
   21  -0.0076937  -0.0006255   0.0025971   0.0062169  -0.0195689  -0.0286989
   22  -0.0283727   0.0318700  -0.0256029  -0.0009189  -0.0030493  -0.0004058
   23  -0.0153589  -0.0016942   0.0040493   0.0049081  -0.0013685   0.0024001
   24   0.0055105   0.0172062   0.0012610   0.0027058  -0.0037210   0.0040215
           13          14          15          16          17          18
    1  -0.0424943  -0.0150767   0.0173316  -0.0729437   0.0103854   0.0048868
    2   0.0060021   0.0011522  -0.0063917   0.0294623  -0.1734602  -0.0123038
    3  -0.0115606  -0.0050329   0.0084141   0.0053461   0.0016371  -0.0695388
    4  -0.0084246  -0.0014060   0.0021391  -0.8653011  -0.0811328   0.0860087
    5   0.0038501   0.0005506  -0.0039640  -0.0766489  -0.1027995   0.0039478
    6  -0.0012547   0.0023027  -0.0039434   0.0846424   0.0037261  -0.0733708
    7  -0.2577433   0.0481638  -0.0734000  -0.1530689   0.0561959   0.0012960
    8  -0.0135460  -0.0644704   0.0078698  -0.0245432   0.0643061   0.0211582
    9  -0.0526933   0.0354198  -0.0572408   0.0115790  -0.0172502   0.0202461
   10  -0.0379983   0.0101608  -0.0143020  -0.0968294  -0.0550388   0.0004545
   11   0.0219564   0.0073719   0.0028306  -0.0304381  -0.1278703  -0.0076883
   12   0.0018039  -0.0047022   0.0001281   0.0069715  -0.0028118  -0.0809779
   13   0.3687216  -0.0833005   0.0915095   0.0055851  -0.0182299   0.0105559
   14  -0.0833005   0.2666154  -0.1543927   0.0079771   0.0057362  -0.0056129
   15   0.0915095  -0.1543927   0.1361321   0.0007337   0.0206240   0.0161991
   16   0.0055851   0.0079771   0.0007337   1.1742084   0.0867641  -0.1047582
   17  -0.0182299   0.0057362   0.0206240   0.0867641   0.3426275   0.0061957
   18   0.0105559  -0.0056129   0.0161991  -0.1047582   0.0061957   0.1906992
   19   0.0017170  -0.0008091  -0.0009473   0.0115615  -0.0024081  -0.0010166
   20   0.0006013  -0.0006613  -0.0008229   0.0085877   0.0010216  -0.0019430
   21   0.0007168   0.0018615  -0.0016559  -0.0026099   0.0004517   0.0009379
   22  -0.0293632   0.0342905  -0.0230647  -0.0032120   0.0034643   0.0025729
   23   0.0826664  -0.2162946   0.1342469  -0.0011610  -0.0095613  -0.0037536
   24  -0.0390776   0.1301567  -0.0980333  -0.0019045  -0.0125727  -0.0041948
           19          20          21          22          23          24
    1   0.0060019   0.0008704   0.0017721   0.0070822  -0.0062377  -0.0107768
    2  -0.0045059  -0.0038189  -0.0019067  -0.0008857   0.0050404   0.0030543
    3  -0.0006828  -0.0004666   0.0083647   0.0026152  -0.0009397  -0.0014878
    4  -0.0035813  -0.0014418   0.0011345   0.0018323  -0.0002174  -0.0016590
    5  -0.0009005  -0.0002759   0.0002205  -0.0008786   0.0019557   0.0020731
    6   0.0002621   0.0003106  -0.0010021  -0.0009373   0.0005930   0.0007628
    7   0.0050908  -0.0112988  -0.0076937  -0.0283727  -0.0153589   0.0055105
    8   0.0111484  -0.0033040  -0.0006255   0.0318700  -0.0016942   0.0172062
    9   0.0020500  -0.0004961   0.0025971  -0.0256029   0.0040493   0.0012610
   10  -0.0600101  -0.0188501   0.0062169  -0.0009189   0.0049081   0.0027058
   11  -0.0242677  -0.3714560  -0.0195689  -0.0030493  -0.0013685  -0.0037210
   12  -0.0005078  -0.0165484  -0.0286989  -0.0004058   0.0024001   0.0040215
   13   0.0017170   0.0006013   0.0007168  -0.0293632   0.0826664  -0.0390776
   14  -0.0008091  -0.0006613   0.0018615   0.0342905  -0.2162946   0.1301567
   15  -0.0009473  -0.0008229  -0.0016559  -0.0230647   0.1342469  -0.0980333
   16   0.0115615   0.0085877  -0.0026099  -0.0032120  -0.0011610  -0.0019045
   17  -0.0024081   0.0010216   0.0004517   0.0034643  -0.0095613  -0.0125727
   18  -0.0010166  -0.0019430   0.0009379   0.0025729  -0.0037536  -0.0041948
   19   0.0394060   0.0215387   0.0002867  -0.0001857   0.0002041   0.0005557
   20   0.0215387   0.3779336   0.0192599  -0.0000074   0.0005609   0.0007067
   21   0.0002867   0.0192599   0.0191350   0.0001766   0.0003074   0.0003222
   22  -0.0001857  -0.0000074   0.0001766   0.0531379  -0.0648037   0.0446460
   23   0.0002041   0.0005609   0.0003074  -0.0648037   0.2213615  -0.1369033
   24   0.0005557   0.0007067   0.0003222   0.0446460  -0.1369033   0.0973484
 Gradient time:  CPU 856.26 s  wall 393.85 s
 **********************************************************************
 **                                                                  **
 **                       VIBRATIONAL ANALYSIS                       **
 **                       --------------------                       **
 **                                                                  **
 **        VIBRATIONAL FREQUENCIES (CM**-1) AND NORMAL MODES         **
 **     FORCE CONSTANTS (mDYN/ANGSTROM) AND REDUCED MASSES (AMU)     **
 **                  INFRARED INTENSITIES (KM/MOL)                   **
 **                                                                  **
 **********************************************************************
 

 Mode:                 1                      2                      3
 Frequency:       124.56                 294.04                 359.74
 Force Cnst:      0.0438                 0.2583                 0.1679
 Red. Mass:       4.7933                 5.0712                 2.2025
 IR Active:          YES                    YES                    YES
 IR Intens:        0.619                  9.022                 47.137
 Raman Active:       YES                    YES                    YES
               X      Y      Z        X      Y      Z        X      Y      Z
 O          0.001 -0.011 -0.243   -0.086 -0.167  0.001    0.086  0.033  0.043
 O          0.060  0.003  0.266   -0.021  0.196 -0.087    0.028 -0.063 -0.087
 C         -0.009 -0.049 -0.161    0.008 -0.207 -0.146   -0.065 -0.030 -0.112
 C          0.026 -0.009 -0.172    0.088 -0.173  0.139    0.010  0.047  0.085
 C         -0.103  0.031  0.298   -0.021  0.350 -0.012   -0.099 -0.100 -0.102
 C          0.024  0.019 -0.047    0.015 -0.043  0.106    0.027  0.085  0.112
 H          0.056 -0.016 -0.114    0.210 -0.185  0.163    0.028  0.040  0.103
 H         -0.287  0.260  0.733    0.425  0.590  0.165   -0.322  0.406  0.786
 TransDip   0.012 -0.008 -0.020    0.062 -0.065  0.033    0.071 -0.019  0.207

 Mode:                 4                      5                      6
 Frequency:       503.28                 534.61                 687.74
 Force Cnst:      0.6235                 0.6490                 0.7287
 Red. Mass:       4.1781                 3.8543                 2.6148
 IR Active:          YES                    YES                    YES
 IR Intens:       42.412                 17.099                 66.813
 Raman Active:       YES                    YES                    YES
               X      Y      Z        X      Y      Z        X      Y      Z
 O          0.148 -0.087 -0.112    0.144 -0.105  0.037   -0.061  0.028  0.019
 O          0.021  0.123  0.063    0.042  0.223 -0.018   -0.137 -0.001  0.028
 C         -0.090 -0.073  0.349    0.021  0.161 -0.139    0.164  0.069 -0.045
 C         -0.130 -0.052 -0.015   -0.221 -0.055  0.016   -0.027 -0.046 -0.033
 C          0.002 -0.022 -0.164   -0.032 -0.058  0.043    0.238 -0.051 -0.031
 C         -0.010  0.061 -0.135    0.077 -0.179  0.041   -0.106 -0.027 -0.056
 H         -0.307 -0.042 -0.148   -0.613 -0.044  0.263   -0.126 -0.070  0.622
 H          0.355  0.501  0.489   -0.492 -0.273 -0.086    0.073  0.303  0.598
 TransDip   0.153 -0.048  0.134   -0.132  0.006 -0.010    0.213  0.013  0.152

 Mode:                 7                      8                      9
 Frequency:       709.40                 763.80                 823.26
 Force Cnst:      0.7001                 2.1800                 1.0189
 Red. Mass:       2.3612                 6.3424                 2.5516
 IR Active:          YES                    YES                    YES
 IR Intens:        0.171                156.384                 35.244
 Raman Active:       YES                    YES                    YES
               X      Y      Z        X      Y      Z        X      Y      Z
 O         -0.022 -0.018  0.119    0.404  0.024  0.052    0.069  0.028 -0.053
 O          0.101 -0.019  0.050   -0.265  0.036  0.066   -0.028  0.002 -0.054
 C         -0.062 -0.033 -0.026   -0.065 -0.140 -0.122   -0.026 -0.063  0.074
 C          0.008  0.013  0.000    0.094 -0.051  0.066   -0.013  0.006 -0.239
 C         -0.104  0.030 -0.019    0.030  0.047  0.058   -0.047 -0.000  0.024
 C          0.045  0.043 -0.251   -0.262  0.100 -0.122    0.004  0.027  0.231
 H          0.115 -0.047  0.928    0.485 -0.070 -0.057    0.077 -0.056  0.857
 H         -0.032  0.001 -0.101   -0.285 -0.356 -0.389    0.252 -0.069 -0.229
 TransDip  -0.004 -0.010  0.008   -0.383 -0.055 -0.102   -0.067 -0.032  0.175

 Mode:                10                     11                     12
 Frequency:       916.93                 972.04                1087.37
 Force Cnst:      1.4088                 0.9484                 3.4389
 Red. Mass:       2.8440                 1.7037                 4.9365
 IR Active:          YES                    YES                    YES
 IR Intens:       12.065                 41.677                 44.325
 Raman Active:       YES                    YES                    YES
               X      Y      Z        X      Y      Z        X      Y      Z
 O         -0.012  0.068  0.019    0.039  0.096  0.024   -0.009  0.370  0.002
 O          0.064 -0.048 -0.011   -0.025  0.017  0.009    0.052  0.037 -0.001
 C         -0.013 -0.148 -0.092    0.060  0.002 -0.073    0.029 -0.077  0.086
 C         -0.134 -0.125  0.025   -0.005  0.003  0.033   -0.072 -0.325 -0.009
 C          0.115  0.007  0.067   -0.135 -0.095  0.040   -0.049  0.059 -0.064
 C          0.021  0.261  0.012   -0.003 -0.080 -0.034    0.048 -0.166 -0.018
 H         -0.856 -0.085 -0.074   -0.168  0.022 -0.085    0.428 -0.387 -0.071
 H          0.159 -0.163 -0.198    0.927  0.211 -0.045   -0.588 -0.015  0.099
 TransDip  -0.098  0.035 -0.039    0.170 -0.115  0.024   -0.064 -0.197 -0.049

 Mode:                13                     14                     15
 Frequency:      1167.82                1240.04                1615.30
 Force Cnst:      1.4435                 8.4645                10.8887
 Red. Mass:       1.7964                 9.3428                 7.0830
 IR Active:          YES                    YES                    YES
 IR Intens:       37.674                105.794                 30.617
 Raman Active:       YES                    YES                    YES
               X      Y      Z        X      Y      Z        X      Y      Z
 O          0.002 -0.038  0.002    0.005 -0.161 -0.011   -0.007 -0.001 -0.001
 O          0.048 -0.005 -0.008   -0.070 -0.069  0.004   -0.034  0.004  0.008
 C         -0.037  0.069 -0.050    0.445  0.312  0.089    0.452 -0.372  0.035
 C         -0.206 -0.039  0.014    0.080 -0.339 -0.019   -0.307  0.306  0.031
 C          0.066 -0.043  0.037   -0.389  0.003 -0.058   -0.111  0.053 -0.040
 C          0.008  0.078  0.013   -0.030  0.359  0.020    0.033 -0.018 -0.022
 H          0.897 -0.111 -0.077    0.027 -0.371 -0.069    0.296  0.384 -0.058
 H          0.327  0.018 -0.001   -0.262  0.042 -0.202   -0.442 -0.068 -0.095
 TransDip   0.194 -0.007  0.028    0.129  0.300  0.044   -0.152  0.081 -0.040

 Mode:                16                     17                     18
 Frequency:      1981.36                3064.81                3300.87
 Force Cnst:     29.8651                 5.9971                 7.0960
 Red. Mass:      12.9118                 1.0836                 1.1054
 IR Active:          YES                    YES                    YES
 IR Intens:      550.950                 16.601                  4.206
 Raman Active:       YES                    YES                    YES
               X      Y      Z        X      Y      Z        X      Y      Z
 O         -0.007  0.003  0.003   -0.000  0.001 -0.000    0.000  0.002  0.000
 O         -0.523 -0.045  0.055   -0.000  0.000  0.000   -0.001 -0.000  0.000
 C         -0.116  0.001 -0.002   -0.006 -0.004  0.001   -0.007  0.006  0.000
 C         -0.032 -0.019  0.007    0.000  0.001  0.000   -0.002 -0.094 -0.005
 C          0.025  0.003  0.004    0.027 -0.065  0.043    0.000 -0.000 -0.000
 C          0.821  0.080 -0.085    0.000 -0.001 -0.000    0.004  0.003 -0.000
 H          0.102 -0.082 -0.027   -0.000  0.001 -0.000    0.063  0.992  0.053
 H          0.006 -0.021  0.003   -0.261  0.808 -0.522    0.002  0.002  0.003
 TransDip   0.749 -0.036 -0.056    0.074 -0.096  0.048    0.014  0.064  0.003

 STANDARD THERMODYNAMIC QUANTITIES AT   298.15 K  AND     1.00 ATM

   This Molecule has  0 Imaginary Frequencies
   Zero point vibrational energy:       28.802 kcal/mol

   Atom    1 Element O  Has Mass   15.99491
   Atom    2 Element O  Has Mass   15.99491
   Atom    3 Element C  Has Mass   12.00000
   Atom    4 Element C  Has Mass   12.00000
   Atom    5 Element C  Has Mass   12.00000
   Atom    6 Element C  Has Mass   12.00000
   Atom    7 Element H  Has Mass    1.00783
   Atom    8 Element H  Has Mass    1.00783
   Molecular Mass:    82.005480 amu
   Principal axes and moments of inertia in amu*Bohr^2:
                             1           2           3
    Eigenvalues --      130.80989   610.82673   731.90459
          X               0.99985    -0.01395     0.01056
          Y               0.01414     0.99973    -0.01819
          Z              -0.01031     0.01834     0.99978
   Rotational Symmetry Number is   1
   The Molecule is an Asymmetric Top
   Translational Enthalpy:        0.889 kcal/mol
   Rotational Enthalpy:           0.889 kcal/mol
   Vibrational Enthalpy:         30.327 kcal/mol
   gas constant (RT):             0.592 kcal/mol
   Translational Entropy:        39.127  cal/mol.K
   Rotational Entropy:           25.572  cal/mol.K
   Vibrational Entropy:           8.265  cal/mol.K

   Total Enthalpy:               32.697 kcal/mol
   Total Entropy:                72.964  cal/mol.K
Archival summary:
1\1\nid02699\FREQ\ProcedureUnspecified\BasisUnspecified\242\sblau\WedJul1118:20:302018WedJul1118:20:302018\0\\#,FREQ,ProcedureUnspecified,BasisUnspecified,\\0,1\O\C,1,1.3905\O,2,1.17722,1,128.742\C,1,1.45485,2,86.9598,3,-177.031,0\C,4,1.35197,1,95.4673,2,-3.06774,0\H,5,1.07847,4,136.074,1,178.588,0\C,4,1.39287,1,131.57,2,161.842,0\H,7,1.10117,4,109.683,1,-22.5085,0\\\@

 Total job time:  408.40s(wall), 1266.39s(cpu) 
 Wed Jul 11 18:20:30 2018

        *************************************************************
        *                                                           *
        *  Thank you very much for using Q-Chem.  Have a nice day.  *
        *                                                           *
        *************************************************************


0 sent ACK to 0 
now end server 0 ... 
cleanup process ... done
