   2    2    1    2
  4.1712680e+01   3.8927900e-10   3.8927908e-10   3.8927894e-10   5.0000000e-16
            1.000000e-04
  CAR
 DOS and projected DOS file by LOBSTER. Energy is shifted such that the Fermi level lies at 0 eV. 
     10.53868358      -9.51144173   401       5.52615225       1.00000000
-15.03759   0.00000   0.00000   0.00000   0.00000
-14.98747   0.00000   0.00000   0.00000   0.00000
-14.93734   0.00000   0.00000   0.00000   0.00000
-14.88722   0.00000   0.00000   0.00000   0.00000
-14.83709   0.00000   0.00000   0.00000   0.00000
-14.78697   0.00000   0.00000   0.00000   0.00000
-14.73684   0.00000   0.00000   0.00000   0.00000
-14.68672   0.00000   0.00000   0.00000   0.00000
-14.63659   0.00000   0.00000   0.00000   0.00000
-14.58647   0.00000   0.00000   0.00000   0.00000
-14.53634   0.00000   0.00000   0.00000   0.00000
-14.48622   0.00000   0.00000   0.00000   0.00000
-14.43609   0.00000   0.00000   0.00000   0.00000
-14.38596   0.00000   0.00000   0.00000   0.00000
-14.33584   0.00000   0.00000   0.00000   0.00000
-14.28571   0.00000   0.00000   0.00000   0.00000
-14.23559   0.00000   0.00000   0.00000   0.00000
-14.18546   0.00000   0.00000   0.00000   0.00000
-14.13534   0.00000   0.00000   0.00000   0.00000
-14.08521   0.00000   0.00000   0.00000   0.00000
-14.03509   0.00000   0.00000   0.00000   0.00000
-13.98496   0.00000   0.00000   0.00000   0.00000
-13.93484   0.00000   0.00000   0.00000   0.00000
-13.88471   0.00000   0.00000   0.00000   0.00000
-13.83459   0.00000   0.00000   0.00000   0.00000
-13.78446   0.00000   0.00000   0.00000   0.00000
-13.73434   0.00000   0.00000   0.00000   0.00000
-13.68421   0.00000   0.00000   0.00000   0.00000
-13.63409   0.00000   0.00000   0.00000   0.00000
-13.58396   0.00000   0.00000   0.00000   0.00000
-13.53383   0.00000   0.00000   0.00000   0.00000
-13.48371   0.00000   0.00000   0.00000   0.00000
-13.43358   0.00000   0.00000   0.00000   0.00000
-13.38346   0.00000   0.00000   0.00000   0.00000
-13.33333   0.00000   0.00000   0.00000   0.00000
-13.28321   0.00000   0.00000   0.00000   0.00000
-13.23308   0.00000   0.00000   0.00000   0.00000
-13.18296   0.00000   0.00000   0.00000   0.00000
-13.13283   0.00000   0.00000   0.00000   0.00000
-13.08271   0.00000   0.00000   0.00000   0.00000
-13.03258   0.00000   0.00000   0.00000   0.00000
-12.98246   0.00000   0.00000   0.00000   0.00000
-12.93233   0.00000   0.00000   0.00000   0.00000
-12.88221   0.00000   0.00000   0.00000   0.00000
-12.83208   0.00000   0.00000   0.00000   0.00000
-12.78195   0.00000   0.00000   0.00000   0.00000
-12.73183   0.00000   0.00000   0.00000   0.00000
-12.68170   0.00000   0.00000   0.00000   0.00000
-12.63158   0.00000   0.00000   0.00000   0.00000
-12.58145   0.00000   0.00000   0.00000   0.00000
-12.53133   0.00000   0.00000   0.00000   0.00000
-12.48120   0.00000   0.00000   0.00000   0.00000
-12.43108   0.00000   0.00000   0.00000   0.00000
-12.38095   0.00000   0.00000   0.00000   0.00000
-12.33083   0.00000   0.00000   0.00000   0.00000
-12.28070   0.00000   0.00000   0.00000   0.00000
-12.23058   0.00000   0.00000   0.00000   0.00000
-12.18045   0.00000   0.00000   0.00000   0.00000
-12.13033   0.00000   0.00000   0.00000   0.00000
-12.08020   0.00000   0.00000   0.00000   0.00000
-12.03008   0.00000   0.00000   0.00000   0.00000
-11.97995   0.00000   0.00000   0.00000   0.00000
-11.92982   0.00000   0.00000   0.00000   0.00000
-11.87970   0.00000   0.00000   0.00000   0.00000
-11.82957   0.00000   0.00000   0.00000   0.00000
-11.77945   0.00000   0.00000   0.00000   0.00000
-11.72932   0.00000   0.00000   0.00000   0.00000
-11.67920   0.00001   0.00001   0.00000   0.00000
-11.62907   0.00027   0.00027   0.00001   0.00001
-11.57895   0.00108   0.00108   0.00007   0.00007
-11.52882   0.00246   0.00246   0.00019   0.00019
-11.47870   0.00440   0.00440   0.00041   0.00041
-11.42857   0.00692   0.00692   0.00076   0.00076
-11.37845   0.01000   0.01000   0.00126   0.00126
-11.32832   0.01365   0.01365   0.00194   0.00194
-11.27820   0.01787   0.01787   0.00284   0.00284
-11.22807   0.02266   0.02266   0.00398   0.00398
-11.17794   0.02802   0.02802   0.00538   0.00538
-11.12782   0.03394   0.03394   0.00708   0.00708
-11.07769   0.04043   0.04043   0.00911   0.00911
-11.02757   0.04749   0.04749   0.01149   0.01149
-10.97744   0.05512   0.05512   0.01425   0.01425
-10.92732   0.06332   0.06332   0.01743   0.01743
-10.87719   0.07208   0.07208   0.02104   0.02104
-10.82707   0.08142   0.08142   0.02512   0.02512
-10.77694   0.09132   0.09132   0.02970   0.02970
-10.72682   0.10179   0.10179   0.03480   0.03480
-10.67669   0.11283   0.11283   0.04045   0.04045
-10.62657   0.12443   0.12443   0.04669   0.04669
-10.57644   0.13661   0.13661   0.05354   0.05354
-10.52632   0.14935   0.14935   0.06103   0.06103
-10.47619   0.16266   0.16266   0.06918   0.06918
-10.42607   0.17654   0.17654   0.07803   0.07803
-10.37594   0.19099   0.19099   0.08760   0.08760
-10.32581   0.29115   0.29115   0.10220   0.10220
-10.27569   0.31577   0.31577   0.11802   0.11802
-10.22556   0.33407   0.33407   0.13477   0.13477
-10.17544   0.35150   0.35150   0.15239   0.15239
-10.12531   0.36807   0.36807   0.17084   0.17084
-10.07519   0.38377   0.38377   0.19008   0.19008
-10.02506   0.39859   0.39859   0.21005   0.21005
 -9.97494   0.41256   0.41256   0.23073   0.23073
 -9.92481   0.42565   0.42565   0.25207   0.25207
 -9.87469   0.43787   0.43787   0.27402   0.27402
 -9.82456   0.45166   0.45166   0.29666   0.29666
 -9.77444   0.47112   0.47112   0.32027   0.32027
 -9.72431   0.48945   0.48945   0.34481   0.34481
 -9.67419   0.50621   0.50621   0.37018   0.37018
 -9.62406   0.52140   0.52140   0.39632   0.39632
 -9.57393   0.53503   0.53503   0.42313   0.42313
 -9.52381   0.54709   0.54709   0.45056   0.45056
 -9.47368   0.55758   0.55758   0.47851   0.47851
 -9.42356   0.56650   0.56650   0.50690   0.50690
 -9.37343   0.57386   0.57386   0.53567   0.53567
 -9.32331   0.57964   0.57964   0.56472   0.56472
 -9.27318   0.58386   0.58386   0.59399   0.59399
 -9.22306   0.58652   0.58652   0.62339   0.62339
 -9.17293   0.58760   0.58760   0.65284   0.65284
 -9.12281   0.58712   0.58712   0.68227   0.68227
 -9.07268   0.58507   0.58507   0.71160   0.71160
 -9.02256   0.58145   0.58145   0.74074   0.74074
 -8.97243   0.57627   0.57627   0.76963   0.76963
 -8.92231   0.56951   0.56951   0.79818   0.79818
 -8.87218   0.56119   0.56119   0.82631   0.82631
 -8.82206   0.55130   0.55130   0.85394   0.85394
 -8.77193   0.53985   0.53985   0.88100   0.88100
 -8.72180   0.52683   0.52683   0.90741   0.90741
 -8.67168   0.51224   0.51224   0.93308   0.93308
 -8.62155   0.49608   0.49608   0.95795   0.95795
 -8.57143   0.47835   0.47835   0.98193   0.98193
 -8.52130   0.36057   0.36057   1.00000   1.00000
 -8.47118   0.00000   0.00000   1.00000   1.00000
 -8.42105   0.00000   0.00000   1.00000   1.00000
 -8.37093   0.00000   0.00000   1.00000   1.00000
 -8.32080   0.00000   0.00000   1.00000   1.00000
 -8.27068   0.00000   0.00000   1.00000   1.00000
 -8.22055   0.00000   0.00000   1.00000   1.00000
 -8.17043   0.00000   0.00000   1.00000   1.00000
 -8.12030   0.00000   0.00000   1.00000   1.00000
 -8.07018   0.00000   0.00000   1.00000   1.00000
 -8.02005   0.00000   0.00000   1.00000   1.00000
 -7.96992   0.00000   0.00000   1.00000   1.00000
 -7.91980   0.00000   0.00000   1.00000   1.00000
 -7.86967   0.00000   0.00000   1.00000   1.00000
 -7.81955   0.00000   0.00000   1.00000   1.00000
 -7.76942   0.00000   0.00000   1.00000   1.00000
 -7.71930   0.00000   0.00000   1.00000   1.00000
 -7.66917   0.00000   0.00000   1.00000   1.00000
 -7.61905   0.00000   0.00000   1.00000   1.00000
 -7.56892   0.00000   0.00000   1.00000   1.00000
 -7.51880   0.00000   0.00000   1.00000   1.00000
 -7.46867   0.00000   0.00000   1.00000   1.00000
 -7.41855   0.00000   0.00000   1.00000   1.00000
 -7.36842   0.00000   0.00000   1.00000   1.00000
 -7.31830   0.00000   0.00000   1.00000   1.00000
 -7.26817   0.00000   0.00000   1.00000   1.00000
 -7.21805   0.00000   0.00000   1.00000   1.00000
 -7.16792   0.00000   0.00000   1.00000   1.00000
 -7.11779   0.00000   0.00000   1.00000   1.00000
 -7.06767   0.00000   0.00000   1.00000   1.00000
 -7.01754   0.00000   0.00000   1.00000   1.00000
 -6.96742   0.00000   0.00000   1.00000   1.00000
 -6.91729   0.00000   0.00000   1.00000   1.00000
 -6.86717   0.00000   0.00000   1.00000   1.00000
 -6.81704   0.00000   0.00000   1.00000   1.00000
 -6.76692   0.00000   0.00000   1.00000   1.00000
 -6.71679   0.00000   0.00000   1.00000   1.00000
 -6.66667   0.31628   0.31628   1.01585   1.01585
 -6.61654   0.43340   0.43340   1.03758   1.03758
 -6.56642   0.45790   0.45790   1.06053   1.06053
 -6.51629   0.48056   0.48055   1.08462   1.08462
 -6.46617   0.50136   0.50135   1.10975   1.10975
 -6.41604   0.52030   0.52030   1.13583   1.13583
 -6.36591   0.53740   0.53739   1.16277   1.16277
 -6.31579   0.55264   0.55263   1.19047   1.19047
 -6.26566   0.56603   0.56602   1.21884   1.21884
 -6.21554   0.57756   0.57755   1.24779   1.24779
 -6.16541   0.58724   0.58723   1.27723   1.27722
 -6.11529   0.59507   0.59506   1.30705   1.30705
 -6.06516   0.60105   0.60103   1.33718   1.33718
 -6.01504   0.60517   0.60516   1.36752   1.36751
 -5.96491   0.60744   0.60743   1.39796   1.39796
 -5.91479   0.60786   0.60784   1.42843   1.42843
 -5.86466   0.60642   0.60641   1.45883   1.45882
 -5.81454   0.60313   0.60312   1.48906   1.48905
 -5.76441   0.59799   0.59797   1.51904   1.51903
 -5.71429   0.59099   0.59098   1.54866   1.54865
 -5.66416   0.58214   0.58213   1.57784   1.57783
 -5.61404   0.57144   0.57143   1.60648   1.60647
 -5.56391   0.55889   0.55888   1.63450   1.63449
 -5.51378   0.54448   0.54447   1.66179   1.66178
 -5.46366   0.52822   0.52821   1.68827   1.68826
 -5.41353   0.51010   0.51010   1.71384   1.71382
 -5.36341   0.49014   0.49013   1.73840   1.73839
 -5.31328   0.46832   0.46831   1.76188   1.76187
 -5.26316   0.44464   0.44464   1.78417   1.78415
 -5.21303   0.51604   0.51575   1.81003   1.81001
 -5.16291   0.53830   0.53856   1.83702   1.83700
 -5.11278   0.35835   0.35850   1.85498   1.85497
 -5.06266   0.22205   0.22213   1.86611   1.86611
 -5.01253   0.12941   0.12943   1.87260   1.87259
 -4.96241   0.08130   0.08130   1.87667   1.87667
 -4.91228   0.07381   0.07381   1.88037   1.88037
 -4.86216   0.07232   0.07232   1.88400   1.88399
 -4.81203   0.07084   0.07085   1.88755   1.88754
 -4.76190   0.06938   0.06938   1.89102   1.89102
 -4.71178   0.06794   0.06794   1.89443   1.89443
 -4.66165   0.06651   0.06651   1.89776   1.89776
 -4.61153   0.06509   0.06509   1.90103   1.90102
 -4.56140   0.06369   0.06369   1.90422   1.90422
 -4.51128   0.06231   0.06231   1.90734   1.90734
 -4.46115   0.06094   0.06094   1.91040   1.91040
 -4.41103   0.05958   0.05959   1.91338   1.91338
 -4.36090   0.05825   0.05825   1.91630   1.91630
 -4.31078   0.05692   0.05692   1.91916   1.91916
 -4.26065   0.05561   0.05561   1.92194   1.92194
 -4.21053   0.54098   0.54098   1.94906   1.94906
 -4.16040   0.36141   0.36141   1.96718   1.96718
 -4.11028   0.36548   0.36548   1.98550   1.98550
 -4.06015   0.36922   0.36922   2.00400   2.00400
 -4.01003   0.37262   0.37262   2.02268   2.02268
 -3.95990   0.37569   0.37569   2.04151   2.04151
 -3.90977   0.37842   0.37842   2.06048   2.06048
 -3.85965   0.38082   0.38082   2.07957   2.07957
 -3.80952   0.38288   0.38288   2.09876   2.09876
 -3.75940   0.38460   0.38460   2.11804   2.11804
 -3.70927   0.38599   0.38599   2.13739   2.13739
 -3.65915   0.38704   0.38704   2.15679   2.15679
 -3.60902   0.38776   0.38776   2.17623   2.17622
 -3.55890   0.38814   0.38814   2.19568   2.19568
 -3.50877   0.38818   0.38818   2.21514   2.21514
 -3.45865   0.38789   0.38789   2.23458   2.23458
 -3.40852   0.38726   0.38726   2.25399   2.25399
 -3.35840   0.38630   0.38630   2.27336   2.27336
 -3.30827   0.38500   0.38500   2.29266   2.29265
 -3.25815   0.38337   0.38337   2.31187   2.31187
 -3.20802   0.38140   0.38140   2.33099   2.33099
 -3.15789   0.37909   0.37909   2.34999   2.34999
 -3.10777   0.37645   0.37645   2.36886   2.36886
 -3.05764   0.37347   0.37347   2.38758   2.38758
 -3.00752   0.37015   0.37016   2.40614   2.40613
 -2.95739   0.36650   0.36651   2.42451   2.42451
 -2.90727   0.36252   0.36252   2.44268   2.44268
 -2.85714   0.35820   0.35820   2.46063   2.46063
 -2.80702   0.35354   0.35354   2.47835   2.47835
 -2.75689   0.34855   0.34855   2.49582   2.49582
 -2.70677   0.34322   0.34322   2.51303   2.51303
 -2.65664   0.33755   0.33755   2.52995   2.52995
 -2.60652   0.33155   0.33155   2.54657   2.54657
 -2.55639   0.32521   0.32522   2.56287   2.56287
 -2.50627   0.31854   0.31854   2.57884   2.57884
 -2.45614   0.31153   0.31153   2.59445   2.59445
 -2.40602   0.30419   0.30419   2.60970   2.60970
 -2.35589   0.29651   0.29651   2.62456   2.62456
 -2.30576   0.37068   0.37068   2.64314   2.64314
 -2.25564   0.66070   0.66070   2.67626   2.67626
 -2.20551   0.98900   0.98900   2.72583   2.72583
 -2.15539   1.34675   1.34676   2.79334   2.79334
 -2.10526   1.73396   1.73396   2.88026   2.88026
 -2.05514   2.15061   2.15061   2.98806   2.98806
 -2.00501   1.49063   1.49063   3.06277   3.06277
 -1.95489   1.09571   1.09571   3.11770   3.11770
 -1.90476   1.08213   1.08213   3.17194   3.17194
 -1.85464   1.06584   1.06584   3.22537   3.22537
 -1.80451   1.04684   1.04684   3.27784   3.27784
 -1.75439   1.02513   1.02513   3.32922   3.32922
 -1.70426   1.00071   1.00071   3.37938   3.37938
 -1.65414   0.97358   0.97358   3.42818   3.42818
 -1.60401   0.94374   0.94374   3.47549   3.47549
 -1.55388   0.91119   0.91120   3.52116   3.52116
 -1.50376   0.87594   0.87594   3.56507   3.56507
 -1.45363   0.83797   0.83797   3.60707   3.60707
 -1.40351   0.79730   0.79730   3.64704   3.64704
 -1.35338   0.75392   0.75392   3.68483   3.68483
 -1.30326   0.70782   0.70782   3.72031   3.72031
 -1.25313   0.65902   0.65902   3.75334   3.75334
 -1.20301   0.60751   0.60751   3.78380   3.78380
 -1.15288   0.55329   0.55329   3.81153   3.81153
 -1.10276   0.49636   0.49636   3.83641   3.83641
 -1.05263   0.43673   0.43673   3.85830   3.85830
 -1.00251   0.37438   0.37438   3.87707   3.87707
 -0.95238   0.33426   0.33426   3.89382   3.89382
 -0.90226   0.31725   0.31725   3.90972   3.90972
 -0.85213   0.28388   0.28388   3.92395   3.92395
 -0.80201   0.25236   0.25236   3.93660   3.93660
 -0.75188   0.22270   0.22270   3.94777   3.94777
 -0.70175   0.19489   0.19489   3.95753   3.95753
 -0.65163   0.16894   0.16894   3.96600   3.96600
 -0.60150   0.14484   0.14484   3.97326   3.97326
 -0.55138   0.12260   0.12260   3.97941   3.97941
 -0.50125   0.10221   0.10221   3.98453   3.98453
 -0.45113   0.08367   0.08367   3.98873   3.98873
 -0.40100   0.06699   0.06699   3.99208   3.99208
 -0.35088   0.05216   0.05216   3.99470   3.99470
 -0.30075   0.03919   0.03919   3.99666   3.99666
 -0.25063   0.02807   0.02807   3.99807   3.99807
 -0.20050   0.01881   0.01881   3.99901   3.99901
 -0.15038   0.01140   0.01140   3.99958   3.99958
 -0.10025   0.00585   0.00585   3.99988   3.99988
 -0.05013   0.00215   0.00215   3.99999   3.99999
  0.00000   0.00030   0.00030   4.00000   4.00000
  0.05013   0.00000   0.00000   4.00000   4.00000
  0.10025   0.00000   0.00000   4.00000   4.00000
  0.15038   0.00000   0.00000   4.00000   4.00000
  0.20050   0.00000   0.00000   4.00000   4.00000
  0.25063   0.00000   0.00000   4.00000   4.00000
  0.30075   0.00000   0.00000   4.00000   4.00000
  0.35088   0.00000   0.00000   4.00000   4.00000
  0.40100   0.00000   0.00000   4.00000   4.00000
  0.45113   0.00000   0.00000   4.00000   4.00000
  0.50125   0.00000   0.00000   4.00000   4.00000
  0.55138   0.00000   0.00000   4.00000   4.00000
  0.60150   0.00000   0.00000   4.00000   4.00000
  0.65163   0.00000   0.00000   4.00000   4.00000
  0.70175   0.00000   0.00000   4.00000   4.00000
  0.75188   0.00004   0.00004   4.00000   4.00000
  0.80201   0.02838   0.02838   4.00143   4.00143
  0.85213   0.08741   0.08741   4.00581   4.00581
  0.90226   0.15611   0.15611   4.01363   4.01363
  0.95238   0.23447   0.23447   4.02538   4.02538
  1.00251   0.32250   0.32251   4.04155   4.04155
  1.05263   0.42019   0.42021   4.06261   4.06261
  1.10276   0.52755   0.52757   4.08906   4.08906
  1.15288   0.64458   0.64461   4.12137   4.12137
  1.20301   0.77128   0.77131   4.16003   4.16003
  1.25313   0.90764   0.90768   4.20552   4.20553
  1.30326   1.05366   1.05371   4.25834   4.25835
  1.35338   1.20936   1.20942   4.31896   4.31897
  1.40351   1.37472   1.37479   4.38786   4.38788
  1.45363   1.54975   1.54983   4.46555   4.46557
  1.50376   1.73444   1.73454   4.55249   4.55251
  1.55388   1.92880   1.92891   4.64917   4.64920
  1.60401   5.35823   5.35767   4.91775   4.91775
  1.65414   0.27621   0.27620   4.93160   4.93160
  1.70426   0.22734   0.22734   4.94299   4.94299
  1.75439   0.20058   0.20057   4.95305   4.95305
  1.80451   0.17549   0.17549   4.96184   4.96184
  1.85464   0.15208   0.15207   4.96946   4.96947
  1.90476   0.13034   0.13034   4.97600   4.97600
  1.95489   0.11028   0.11028   4.98153   4.98153
  2.00501   0.09190   0.09190   4.98613   4.98613
  2.05514   0.08180   0.08179   4.99023   4.99023
  2.10526   0.08012   0.08012   4.99425   4.99425
  2.15539   0.08023   0.08023   4.99827   4.99827
  2.20551   0.08212   0.08212   5.00239   5.00239
  2.25564   0.08580   0.08580   5.00669   5.00669
  2.30576   0.09127   0.09126   5.01126   5.01126
  2.35589   0.09852   0.09852   5.01620   5.01620
  2.40602   0.10755   0.10755   5.02159   5.02159
  2.45614   0.11838   0.11838   5.02752   5.02752
  2.50627   0.13098   0.13098   5.03409   5.03409
  2.55639   0.14517   0.14517   5.04137   5.04137
  2.60652   0.16019   0.16019   5.04940   5.04940
  2.65664   0.17586   0.17586   5.05821   5.05821
  2.70677   0.19219   0.19219   5.06785   5.06785
  2.75689   0.20917   0.20917   5.07833   5.07833
  2.80702   0.22682   0.22682   5.08970   5.08970
  2.85714   0.24512   0.24512   5.10199   5.10199
  2.90727   0.26407   0.26407   5.11522   5.11522
  2.95739   0.28369   0.28369   5.12944   5.12944
  3.00752   0.30398   0.30398   5.14468   5.14468
  3.05764   0.32496   0.32496   5.16097   5.16097
  3.10777   0.34662   0.34661   5.17834   5.17834
  3.15789   0.36895   0.36895   5.19684   5.19684
  3.20802   0.39198   0.39197   5.21648   5.21648
  3.25815   0.41568   0.41568   5.23732   5.23732
  3.30827   0.44007   0.44007   5.25938   5.25938
  3.35840   0.46514   0.46514   5.28269   5.28269
  3.40852   0.49089   0.49089   5.30730   5.30730
  3.45865   0.49721   0.49723   5.33222   5.33222
  3.50877   0.35033   0.35033   5.34978   5.34978
  3.55890   0.36528   0.36528   5.36809   5.36809
  3.60902   0.37976   0.37976   5.38713   5.38713
  3.65915   0.39378   0.39378   5.40687   5.40687
  3.70927   0.40733   0.40733   5.42729   5.42729
  3.75940   0.42042   0.42042   5.44836   5.44836
  3.80952   0.43304   0.43304   5.47007   5.47007
  3.85965   0.44520   0.44520   5.49238   5.49238
  3.90977   0.45690   0.45690   5.51528   5.51528
  3.95990   0.46812   0.46812   5.53875   5.53875
  4.01003   0.47889   0.47889   5.56275   5.56275
  4.06015   0.48918   0.48918   5.58727   5.58727
  4.11028   0.49902   0.49902   5.61229   5.61229
  4.16040   0.50838   0.50838   5.63777   5.63777
  4.21053   0.51729   0.51729   5.66370   5.66370
  4.26065   0.52573   0.52573   5.69005   5.69005
  4.31078   0.53370   0.53370   5.71680   5.71680
  4.36090   0.54121   0.54121   5.74393   5.74393
  4.41103   0.54825   0.54825   5.77141   5.77141
  4.46115   0.55483   0.55483   5.79922   5.79922
  4.51128   0.56094   0.56094   5.82734   5.82734
  4.56140   0.56659   0.56659   5.85574   5.85574
  4.61153   0.57177   0.57177   5.88440   5.88440
  4.66165   0.57649   0.57649   5.91330   5.91330
  4.71178   0.58074   0.58074   5.94241   5.94241
  4.76190   0.58453   0.58453   5.97171   5.97171
  4.81203   0.58785   0.58785   6.00117   6.00117
  4.86216   0.59071   0.59071   6.03078   6.03078
  4.91228   0.59310   0.59310   6.06051   6.06051
  4.96241   0.59503   0.59503   6.09034   6.09034
  5.01253   0.59649   0.59649   6.12024   6.12024
      5.01253133     -15.03759398   401       5.52615225       1.00000000; Z= 14; 3s 3p_y 3p_z 3p_x 
-15.03759   0.00000   0.00000   0.00000   0.00000   0.00000   0.00000   0.00000   0.00000
-14.98747   0.00000   0.00000   0.00000   0.00000   0.00000   0.00000   0.00000   0.00000
-14.93734   0.00000   0.00000   0.00000   0.00000   0.00000   0.00000   0.00000   0.00000
-14.88722   0.00000   0.00000   0.00000   0.00000   0.00000   0.00000   0.00000   0.00000
-14.83709   0.00000   0.00000   0.00000   0.00000   0.00000   0.00000   0.00000   0.00000
-14.78697   0.00000   0.00000   0.00000   0.00000   0.00000   0.00000   0.00000   0.00000
-14.73684   0.00000   0.00000   0.00000   0.00000   0.00000   0.00000   0.00000   0.00000
-14.68672   0.00000   0.00000   0.00000   0.00000   0.00000   0.00000   0.00000   0.00000
-14.63659   0.00000   0.00000   0.00000   0.00000   0.00000   0.00000   0.00000   0.00000
-14.58647   0.00000   0.00000   0.00000   0.00000   0.00000   0.00000   0.00000   0.00000
-14.53634   0.00000   0.00000   0.00000   0.00000   0.00000   0.00000   0.00000   0.00000
-14.48622   0.00000   0.00000   0.00000   0.00000   0.00000   0.00000   0.00000   0.00000
-14.43609   0.00000   0.00000   0.00000   0.00000   0.00000   0.00000   0.00000   0.00000
-14.38596   0.00000   0.00000   0.00000   0.00000   0.00000   0.00000   0.00000   0.00000
-14.33584   0.00000   0.00000   0.00000   0.00000   0.00000   0.00000   0.00000   0.00000
-14.28571   0.00000   0.00000   0.00000   0.00000   0.00000   0.00000   0.00000   0.00000
-14.23559   0.00000   0.00000   0.00000   0.00000   0.00000   0.00000   0.00000   0.00000
-14.18546   0.00000   0.00000   0.00000   0.00000   0.00000   0.00000   0.00000   0.00000
-14.13534   0.00000   0.00000   0.00000   0.00000   0.00000   0.00000   0.00000   0.00000
-14.08521   0.00000   0.00000   0.00000   0.00000   0.00000   0.00000   0.00000   0.00000
-14.03509   0.00000   0.00000   0.00000   0.00000   0.00000   0.00000   0.00000   0.00000
-13.98496   0.00000   0.00000   0.00000   0.00000   0.00000   0.00000   0.00000   0.00000
-13.93484   0.00000   0.00000   0.00000   0.00000   0.00000   0.00000   0.00000   0.00000
-13.88471   0.00000   0.00000   0.00000   0.00000   0.00000   0.00000   0.00000   0.00000
-13.83459   0.00000   0.00000   0.00000   0.00000   0.00000   0.00000   0.00000   0.00000
-13.78446   0.00000   0.00000   0.00000   0.00000   0.00000   0.00000   0.00000   0.00000
-13.73434   0.00000   0.00000   0.00000   0.00000   0.00000   0.00000   0.00000   0.00000
-13.68421   0.00000   0.00000   0.00000   0.00000   0.00000   0.00000   0.00000   0.00000
-13.63409   0.00000   0.00000   0.00000   0.00000   0.00000   0.00000   0.00000   0.00000
-13.58396   0.00000   0.00000   0.00000   0.00000   0.00000   0.00000   0.00000   0.00000
-13.53383   0.00000   0.00000   0.00000   0.00000   0.00000   0.00000   0.00000   0.00000
-13.48371   0.00000   0.00000   0.00000   0.00000   0.00000   0.00000   0.00000   0.00000
-13.43358   0.00000   0.00000   0.00000   0.00000   0.00000   0.00000   0.00000   0.00000
-13.38346   0.00000   0.00000   0.00000   0.00000   0.00000   0.00000   0.00000   0.00000
-13.33333   0.00000   0.00000   0.00000   0.00000   0.00000   0.00000   0.00000   0.00000
-13.28321   0.00000   0.00000   0.00000   0.00000   0.00000   0.00000   0.00000   0.00000
-13.23308   0.00000   0.00000   0.00000   0.00000   0.00000   0.00000   0.00000   0.00000
-13.18296   0.00000   0.00000   0.00000   0.00000   0.00000   0.00000   0.00000   0.00000
-13.13283   0.00000   0.00000   0.00000   0.00000   0.00000   0.00000   0.00000   0.00000
-13.08271   0.00000   0.00000   0.00000   0.00000   0.00000   0.00000   0.00000   0.00000
-13.03258   0.00000   0.00000   0.00000   0.00000   0.00000   0.00000   0.00000   0.00000
-12.98246   0.00000   0.00000   0.00000   0.00000   0.00000   0.00000   0.00000   0.00000
-12.93233   0.00000   0.00000   0.00000   0.00000   0.00000   0.00000   0.00000   0.00000
-12.88221   0.00000   0.00000   0.00000   0.00000   0.00000   0.00000   0.00000   0.00000
-12.83208   0.00000   0.00000   0.00000   0.00000   0.00000   0.00000   0.00000   0.00000
-12.78195   0.00000   0.00000   0.00000   0.00000   0.00000   0.00000   0.00000   0.00000
-12.73183   0.00000   0.00000   0.00000   0.00000   0.00000   0.00000   0.00000   0.00000
-12.68170   0.00000   0.00000   0.00000   0.00000   0.00000   0.00000   0.00000   0.00000
-12.63158   0.00000   0.00000   0.00000   0.00000   0.00000   0.00000   0.00000   0.00000
-12.58145   0.00000   0.00000   0.00000   0.00000   0.00000   0.00000   0.00000   0.00000
-12.53133   0.00000   0.00000   0.00000   0.00000   0.00000   0.00000   0.00000   0.00000
-12.48120   0.00000   0.00000   0.00000   0.00000   0.00000   0.00000   0.00000   0.00000
-12.43108   0.00000   0.00000   0.00000   0.00000   0.00000   0.00000   0.00000   0.00000
-12.38095   0.00000   0.00000   0.00000   0.00000   0.00000   0.00000   0.00000   0.00000
-12.33083   0.00000   0.00000   0.00000   0.00000   0.00000   0.00000   0.00000   0.00000
-12.28070   0.00000   0.00000   0.00000   0.00000   0.00000   0.00000   0.00000   0.00000
-12.23058   0.00000   0.00000   0.00000   0.00000   0.00000   0.00000   0.00000   0.00000
-12.18045   0.00000   0.00000   0.00000   0.00000   0.00000   0.00000   0.00000   0.00000
-12.13033   0.00000   0.00000   0.00000   0.00000   0.00000   0.00000   0.00000   0.00000
-12.08020   0.00000   0.00000   0.00000   0.00000   0.00000   0.00000   0.00000   0.00000
-12.03008   0.00000   0.00000   0.00000   0.00000   0.00000   0.00000   0.00000   0.00000
-11.97995   0.00000   0.00000   0.00000   0.00000   0.00000   0.00000   0.00000   0.00000
-11.92982   0.00000   0.00000   0.00000   0.00000   0.00000   0.00000   0.00000   0.00000
-11.87970   0.00000   0.00000   0.00000   0.00000   0.00000   0.00000   0.00000   0.00000
-11.82957   0.00000   0.00000   0.00000   0.00000   0.00000   0.00000   0.00000   0.00000
-11.77945   0.00000   0.00000   0.00000   0.00000   0.00000   0.00000   0.00000   0.00000
-11.72932   0.00000   0.00000   0.00000   0.00000   0.00000   0.00000   0.00000   0.00000
-11.67920   0.00000   0.00000   0.00000   0.00000   0.00000   0.00000   0.00000   0.00000
-11.62907   0.00012   0.00012   0.00000   0.00000   0.00001   0.00001   0.00000   0.00000
-11.57895   0.00048   0.00048   0.00002   0.00002   0.00002   0.00002   0.00002   0.00002
-11.52882   0.00109   0.00109   0.00004   0.00004   0.00005   0.00005   0.00004   0.00004
-11.47870   0.00196   0.00196   0.00008   0.00008   0.00009   0.00009   0.00007   0.00007
-11.42857   0.00308   0.00308   0.00012   0.00012   0.00014   0.00014   0.00012   0.00012
-11.37845   0.00445   0.00445   0.00017   0.00017   0.00020   0.00020   0.00017   0.00017
-11.32832   0.00608   0.00608   0.00024   0.00024   0.00027   0.00027   0.00023   0.00023
-11.27820   0.00796   0.00796   0.00031   0.00031   0.00036   0.00036   0.00030   0.00030
-11.22807   0.01009   0.01009   0.00040   0.00040   0.00046   0.00046   0.00038   0.00038
-11.17794   0.01248   0.01248   0.00049   0.00049   0.00056   0.00056   0.00047   0.00047
-11.12782   0.01512   0.01512   0.00059   0.00059   0.00068   0.00068   0.00057   0.00057
-11.07769   0.01801   0.01801   0.00071   0.00071   0.00081   0.00081   0.00068   0.00068
-11.02757   0.02115   0.02115   0.00083   0.00083   0.00095   0.00095   0.00080   0.00080
-10.97744   0.02455   0.02455   0.00096   0.00096   0.00111   0.00111   0.00092   0.00092
-10.92732   0.02820   0.02820   0.00111   0.00111   0.00127   0.00127   0.00106   0.00106
-10.87719   0.03210   0.03210   0.00126   0.00126   0.00145   0.00145   0.00121   0.00121
-10.82707   0.03626   0.03626   0.00142   0.00142   0.00164   0.00164   0.00136   0.00136
-10.77694   0.04067   0.04067   0.00159   0.00159   0.00184   0.00184   0.00153   0.00153
-10.72682   0.04533   0.04533   0.00178   0.00178   0.00205   0.00205   0.00171   0.00171
-10.67669   0.05025   0.05025   0.00197   0.00197   0.00227   0.00227   0.00189   0.00189
-10.62657   0.05542   0.05542   0.00217   0.00217   0.00250   0.00250   0.00208   0.00209
-10.57644   0.06084   0.06084   0.00238   0.00238   0.00275   0.00275   0.00229   0.00229
-10.52632   0.06652   0.06652   0.00261   0.00261   0.00300   0.00300   0.00250   0.00250
-10.47619   0.07245   0.07245   0.00284   0.00284   0.00327   0.00327   0.00273   0.00273
-10.42607   0.07863   0.07863   0.00308   0.00308   0.00355   0.00355   0.00296   0.00296
-10.37594   0.08506   0.08506   0.00333   0.00333   0.00384   0.00384   0.00320   0.00320
-10.32581   0.12675   0.12675   0.00535   0.00535   0.00693   0.00693   0.00642   0.00642
-10.27569   0.13608   0.13608   0.00628   0.00628   0.00790   0.00790   0.00738   0.00738
-10.22556   0.14279   0.14279   0.00708   0.00708   0.00867   0.00867   0.00812   0.00812
-10.17544   0.14916   0.14916   0.00787   0.00787   0.00939   0.00939   0.00884   0.00884
-10.12531   0.15519   0.15519   0.00863   0.00863   0.01007   0.01007   0.00953   0.00953
-10.07519   0.16089   0.16089   0.00938   0.00938   0.01071   0.01071   0.01019   0.01019
-10.02506   0.16625   0.16625   0.01010   0.01010   0.01130   0.01130   0.01082   0.01082
 -9.97494   0.17127   0.17127   0.01080   0.01080   0.01186   0.01186   0.01142   0.01142
 -9.92481   0.17595   0.17595   0.01148   0.01148   0.01237   0.01237   0.01199   0.01199
 -9.87469   0.18030   0.18030   0.01214   0.01214   0.01284   0.01284   0.01253   0.01253
 -9.82456   0.18532   0.18532   0.01285   0.01284   0.01334   0.01334   0.01309   0.01309
 -9.77444   0.19272   0.19272   0.01371   0.01371   0.01401   0.01401   0.01378   0.01378