  COHP#       atomMU       atomNU     distance     translation      ICOHP (at) eF   for spin  1
      1          Si1          Si1      5.50524       1  -2  -1           -0.00093 
      1       Si1_3s       Si1_3s      5.50524       1  -2  -1           -0.00092 
      1     Si1_3p_y       Si1_3s      5.50524       1  -2  -1            0.00005 
      1     Si1_3p_z       Si1_3s      5.50524       1  -2  -1            0.00002 
      1     Si1_3p_x       Si1_3s      5.50524       1  -2  -1           -0.00000 
      1       Si1_3s     Si1_3p_y      5.50524       1  -2  -1            0.00005 
      1     Si1_3p_y     Si1_3p_y      5.50524       1  -2  -1           -0.00004 
      1     Si1_3p_z     Si1_3p_y      5.50524       1  -2  -1            0.00001 
      1     Si1_3p_x     Si1_3p_y      5.50524       1  -2  -1            0.00000 
      1       Si1_3s     Si1_3p_z      5.50524       1  -2  -1            0.00002 
      1     Si1_3p_y     Si1_3p_z      5.50524       1  -2  -1            0.00001 
      1     Si1_3p_z     Si1_3p_z      5.50524       1  -2  -1           -0.00006 
      1     Si1_3p_x     Si1_3p_z      5.50524       1  -2  -1            0.00000 
      1       Si1_3s     Si1_3p_x      5.50524       1  -2  -1           -0.00000 
      1     Si1_3p_y     Si1_3p_x      5.50524       1  -2  -1            0.00000 
      1     Si1_3p_z     Si1_3p_x      5.50524       1  -2  -1            0.00000 
      1     Si1_3p_x     Si1_3p_x      5.50524       1  -2  -1           -0.00007 
      2          Si1          Si1      3.89279       0  -1  -1            0.00960 
      2       Si1_3s       Si1_3s      3.89279       0  -1  -1            0.00064 
      2     Si1_3p_y       Si1_3s      3.89279       0  -1  -1            0.00025 
      2     Si1_3p_z       Si1_3s      3.89279       0  -1  -1           -0.00016 
      2     Si1_3p_x       Si1_3s      3.89279       0  -1  -1            0.00078 
      2       Si1_3s     Si1_3p_y      3.89279       0  -1  -1           -0.00001 
      2     Si1_3p_y     Si1_3p_y      3.89279       0  -1  -1            0.00005 
      2     Si1_3p_z     Si1_3p_y      3.89279       0  -1  -1            0.00048 
      2     Si1_3p_x     Si1_3p_y      3.89279       0  -1  -1            0.00013 
      2       Si1_3s     Si1_3p_z      3.89279       0  -1  -1            0.00093 
      2     Si1_3p_y     Si1_3p_z      3.89279       0  -1  -1            0.00108 
      2     Si1_3p_z     Si1_3p_z      3.89279       0  -1  -1            0.00079 
      2     Si1_3p_x     Si1_3p_z      3.89279       0  -1  -1            0.00324 
      2       Si1_3s     Si1_3p_x      3.89279       0  -1  -1           -0.00004 
      2     Si1_3p_y     Si1_3p_x      3.89279       0  -1  -1            0.00013 
      2     Si1_3p_z     Si1_3p_x      3.89279       0  -1  -1            0.00144 
      2     Si1_3p_x     Si1_3p_x      3.89279       0  -1  -1           -0.00011 
      3          Si1          Si1      3.89279       1  -1  -1            0.00964 
      3       Si1_3s       Si1_3s      3.89279       1  -1  -1            0.00064 
      3     Si1_3p_y       Si1_3s      3.89279       1  -1  -1            0.00027 
      3     Si1_3p_z       Si1_3s      3.89279       1  -1  -1           -0.00016 
      3     Si1_3p_x       Si1_3s      3.89279       1  -1  -1            0.00079 
      3       Si1_3s     Si1_3p_y      3.89279       1  -1  -1           -0.00001 
      3     Si1_3p_y     Si1_3p_y      3.89279       1  -1  -1            0.00005 
      3     Si1_3p_z     Si1_3p_y      3.89279       1  -1  -1            0.00048 
      3     Si1_3p_x     Si1_3p_y      3.89279       1  -1  -1            0.00012 
      3       Si1_3s     Si1_3p_z      3.89279       1  -1  -1            0.00093 
      3     Si1_3p_y     Si1_3p_z      3.89279       1  -1  -1            0.00109 
      3     Si1_3p_z     Si1_3p_z      3.89279       1  -1  -1            0.00079 
      3     Si1_3p_x     Si1_3p_z      3.89279       1  -1  -1            0.00324 
      3       Si1_3s     Si1_3p_x      3.89279       1  -1  -1           -0.00004 
      3     Si1_3p_y     Si1_3p_x      3.89279       1  -1  -1            0.00012 
      3     Si1_3p_z     Si1_3p_x      3.89279       1  -1  -1            0.00144 
      3     Si1_3p_x     Si1_3p_x      3.89279       1  -1  -1           -0.00011 
      4          Si1          Si1      5.50524      -1   0  -1           -0.00093 
      4       Si1_3s       Si1_3s      5.50524      -1   0  -1           -0.00092 
      4     Si1_3p_y       Si1_3s      5.50524      -1   0  -1            0.00001 
      4     Si1_3p_z       Si1_3s      5.50524      -1   0  -1            0.00002 
      4     Si1_3p_x       Si1_3s      5.50524      -1   0  -1            0.00003 
      4       Si1_3s     Si1_3p_y      5.50524      -1   0  -1            0.00001 
      4     Si1_3p_y     Si1_3p_y      5.50524      -1   0  -1           -0.00006 
      4     Si1_3p_z     Si1_3p_y      5.50524      -1   0  -1            0.00000 
      4     Si1_3p_x     Si1_3p_y      5.50524      -1   0  -1            0.00000 
      4       Si1_3s     Si1_3p_z      5.50524      -1   0  -1            0.00002 
      4     Si1_3p_y     Si1_3p_z      5.50524      -1   0  -1            0.00000 
      4     Si1_3p_z     Si1_3p_z      5.50524      -1   0  -1           -0.00006 
      4     Si1_3p_x     Si1_3p_z      5.50524      -1   0  -1            0.00001 
      4       Si1_3s     Si1_3p_x      5.50524      -1   0  -1            0.00004 
      4     Si1_3p_y     Si1_3p_x      5.50524      -1   0  -1            0.00000 
      4     Si1_3p_z     Si1_3p_x      5.50524      -1   0  -1            0.00001 
      4     Si1_3p_x     Si1_3p_x      5.50524      -1   0  -1           -0.00005 
      5          Si1          Si1      3.89279       0   0  -1            0.00964 
      5       Si1_3s       Si1_3s      3.89279       0   0  -1            0.00064 
      5     Si1_3p_y       Si1_3s      3.89279       0   0  -1            0.00105 
      5     Si1_3p_z       Si1_3s      3.89279       0   0  -1           -0.00017 
      5     Si1_3p_x       Si1_3s      3.89279       0   0  -1           -0.00000 
      5       Si1_3s     Si1_3p_y      3.89279       0   0  -1           -0.00005 
      5     Si1_3p_y     Si1_3p_y      3.89279       0   0  -1           -0.00007 
      5     Si1_3p_z     Si1_3p_y      3.89279       0   0  -1            0.00193 
      5     Si1_3p_x     Si1_3p_y      3.89279       0   0  -1            0.00000 
      5       Si1_3s     Si1_3p_z      3.89279       0   0  -1            0.00094 
      5     Si1_3p_y     Si1_3p_z      3.89279       0   0  -1            0.00433 
      5     Si1_3p_z     Si1_3p_z      3.89279       0   0  -1            0.00079 
      5     Si1_3p_x     Si1_3p_z      3.89279       0   0  -1            0.00000 
      5       Si1_3s     Si1_3p_x      3.89279       0   0  -1            0.00000 
      5     Si1_3p_y     Si1_3p_x      3.89279       0   0  -1            0.00000 
      5     Si1_3p_z     Si1_3p_x      3.89279       0   0  -1            0.00000 
      5     Si1_3p_x     Si1_3p_x      3.89279       0   0  -1            0.00026 
      6          Si1          Si1      5.50524       1   0  -1           -0.00093 
      6       Si1_3s       Si1_3s      5.50524       1   0  -1           -0.00092 
      6     Si1_3p_y       Si1_3s      5.50524       1   0  -1            0.00001 
      6     Si1_3p_z       Si1_3s      5.50524       1   0  -1            0.00002 
      6     Si1_3p_x       Si1_3s      5.50524       1   0  -1            0.00004 
      6       Si1_3s     Si1_3p_y      5.50524       1   0  -1            0.00001 
      6     Si1_3p_y     Si1_3p_y      5.50524       1   0  -1           -0.00006 
      6     Si1_3p_z     Si1_3p_y      5.50524       1   0  -1            0.00000 
      6     Si1_3p_x     Si1_3p_y      5.50524       1   0  -1            0.00000 
      6       Si1_3s     Si1_3p_z      5.50524       1   0  -1            0.00002 
      6     Si1_3p_y     Si1_3p_z      5.50524       1   0  -1            0.00000 
      6     Si1_3p_z     Si1_3p_z      5.50524       1   0  -1           -0.00006 
      6     Si1_3p_x     Si1_3p_z      5.50524       1   0  -1            0.00001 
      6       Si1_3s     Si1_3p_x      5.50524       1   0  -1            0.00003 
      6     Si1_3p_y     Si1_3p_x      5.50524       1   0  -1            0.00000 
      6     Si1_3p_z     Si1_3p_x      5.50524       1   0  -1            0.00001 
      6     Si1_3p_x     Si1_3p_x      5.50524       1   0  -1           -0.00005 
      7          Si1          Si1      3.89279       0  -1   0            0.00964 
      7       Si1_3s       Si1_3s      3.89279       0  -1   0            0.00064 
      7     Si1_3p_y       Si1_3s      3.89279       0  -1   0           -0.00010 
      7     Si1_3p_z       Si1_3s      3.89279       0  -1   0            0.00021 
      7     Si1_3p_x       Si1_3s      3.89279       0  -1   0            0.00078 
      7       Si1_3s     Si1_3p_y      3.89279       0  -1   0            0.00072 
      7     Si1_3p_y     Si1_3p_y      3.89279       0  -1   0            0.00203 
      7     Si1_3p_z     Si1_3p_y      3.89279       0  -1   0            0.00040 
      7     Si1_3p_x     Si1_3p_y      3.89279       0  -1   0            0.00243 
      7       Si1_3s     Si1_3p_z      3.89279       0  -1   0            0.00021 
      7     Si1_3p_y     Si1_3p_z      3.89279       0  -1   0            0.00001 
      7     Si1_3p_z     Si1_3p_z      3.89279       0  -1   0           -0.00003 
      7     Si1_3p_x     Si1_3p_z      3.89279       0  -1   0            0.00093 
      7       Si1_3s     Si1_3p_x      3.89279       0  -1   0           -0.00005 
      7     Si1_3p_y     Si1_3p_x      3.89279       0  -1   0            0.00102 
      7     Si1_3p_z     Si1_3p_x      3.89279       0  -1   0            0.00054 
      7     Si1_3p_x     Si1_3p_x      3.89279       0  -1   0           -0.00011 
      8          Si1          Si1      3.89279       1  -1   0            0.00967 
      8       Si1_3s       Si1_3s      3.89279       1  -1   0            0.00064 
      8     Si1_3p_y       Si1_3s      3.89279       1  -1   0           -0.00010 
      8     Si1_3p_z       Si1_3s      3.89279       1  -1   0            0.00020 
      8     Si1_3p_x       Si1_3s      3.89279       1  -1   0            0.00079 
      8       Si1_3s     Si1_3p_y      3.89279       1  -1   0            0.00073 
      8     Si1_3p_y     Si1_3p_y      3.89279       1  -1   0            0.00203 
      8     Si1_3p_z     Si1_3p_y      3.89279       1  -1   0            0.00040 
      8     Si1_3p_x     Si1_3p_y      3.89279       1  -1   0            0.00245 
      8       Si1_3s     Si1_3p_z      3.89279       1  -1   0            0.00020 
      8     Si1_3p_y     Si1_3p_z      3.89279       1  -1   0            0.00001 
      8     Si1_3p_z     Si1_3p_z      3.89279       1  -1   0           -0.00003 
      8     Si1_3p_x     Si1_3p_z      3.89279       1  -1   0            0.00092 
      8       Si1_3s     Si1_3p_x      3.89279       1  -1   0           -0.00003 
      8     Si1_3p_y     Si1_3p_x      3.89279       1  -1   0            0.00104 
      8     Si1_3p_z     Si1_3p_x      3.89279       1  -1   0            0.00053 
      8     Si1_3p_x     Si1_3p_x      3.89279       1  -1   0           -0.00011 
      9          Si1          Si1      3.89279      -1   0   0            0.00964 
      9       Si1_3s       Si1_3s      3.89279      -1   0   0            0.00064 
      9     Si1_3p_y       Si1_3s      3.89279      -1   0   0            0.00042 
      9     Si1_3p_z       Si1_3s      3.89279      -1   0   0            0.00020 
      9     Si1_3p_x       Si1_3s      3.89279      -1   0   0            0.00028 
      9       Si1_3s     Si1_3p_y      3.89279      -1   0   0            0.00040 
      9     Si1_3p_y     Si1_3p_y      3.89279      -1   0   0            0.00068 
      9     Si1_3p_z     Si1_3p_y      3.89279      -1   0   0            0.00099 
      9     Si1_3p_x     Si1_3p_y      3.89279      -1   0   0           -0.00011 
      9       Si1_3s     Si1_3p_z      3.89279      -1   0   0            0.00020 
      9     Si1_3p_y     Si1_3p_z      3.89279      -1   0   0            0.00099 
      9     Si1_3p_z     Si1_3p_z      3.89279      -1   0   0           -0.00004 
      9     Si1_3p_x     Si1_3p_z      3.89279      -1   0   0           -0.00006 
      9       Si1_3s     Si1_3p_x      3.89279      -1   0   0            0.00028 
      9     Si1_3p_y     Si1_3p_x      3.89279      -1   0   0           -0.00011 
      9     Si1_3p_z     Si1_3p_x      3.89279      -1   0   0           -0.00006 
      9     Si1_3p_x     Si1_3p_x      3.89279      -1   0   0            0.00494 
     10          Si1          Si1      3.89279       1   0   0            0.00964 
     10       Si1_3s       Si1_3s      3.89279       1   0   0            0.00064 
     10     Si1_3p_y       Si1_3s      3.89279       1   0   0            0.00040 
     10     Si1_3p_z       Si1_3s      3.89279       1   0   0            0.00020 
     10     Si1_3p_x       Si1_3s      3.89279       1   0   0            0.00028 
     10       Si1_3s     Si1_3p_y      3.89279       1   0   0            0.00042 
     10     Si1_3p_y     Si1_3p_y      3.89279       1   0   0            0.00068 
     10     Si1_3p_z     Si1_3p_y      3.89279       1   0   0            0.00099 
     10     Si1_3p_x     Si1_3p_y      3.89279       1   0   0           -0.00011 
     10       Si1_3s     Si1_3p_z      3.89279       1   0   0            0.00020 
     10     Si1_3p_y     Si1_3p_z      3.89279       1   0   0            0.00099 
     10     Si1_3p_z     Si1_3p_z      3.89279       1   0   0           -0.00004 
     10     Si1_3p_x     Si1_3p_z      3.89279       1   0   0           -0.00006 
     10       Si1_3s     Si1_3p_x      3.89279       1   0   0            0.00028 
     10     Si1_3p_y     Si1_3p_x      3.89279       1   0   0           -0.00011 
     10     Si1_3p_z     Si1_3p_x      3.89279       1   0   0           -0.00006 
     10     Si1_3p_x     Si1_3p_x      3.89279       1   0   0            0.00494 
     11          Si1          Si1      3.89279      -1   1   0            0.00967 
     11       Si1_3s       Si1_3s      3.89279      -1   1   0            0.00064 
     11     Si1_3p_y       Si1_3s      3.89279      -1   1   0            0.00073 
     11     Si1_3p_z       Si1_3s      3.89279      -1   1   0            0.00020 
     11     Si1_3p_x       Si1_3s      3.89279      -1   1   0           -0.00003 
     11       Si1_3s     Si1_3p_y      3.89279      -1   1   0           -0.00010 
     11     Si1_3p_y     Si1_3p_y      3.89279      -1   1   0            0.00203 
     11     Si1_3p_z     Si1_3p_y      3.89279      -1   1   0            0.00001 
     11     Si1_3p_x     Si1_3p_y      3.89279      -1   1   0            0.00104 
     11       Si1_3s     Si1_3p_z      3.89279      -1   1   0            0.00020 
     11     Si1_3p_y     Si1_3p_z      3.89279      -1   1   0            0.00040 
     11     Si1_3p_z     Si1_3p_z      3.89279      -1   1   0           -0.00003 
     11     Si1_3p_x     Si1_3p_z      3.89279      -1   1   0            0.00053 
     11       Si1_3s     Si1_3p_x      3.89279      -1   1   0            0.00079 
     11     Si1_3p_y     Si1_3p_x      3.89279      -1   1   0            0.00245 
     11     Si1_3p_z     Si1_3p_x      3.89279      -1   1   0            0.00092 
     11     Si1_3p_x     Si1_3p_x      3.89279      -1   1   0           -0.00011 
     12          Si1          Si1      3.89279       0   1   0            0.00964 
     12       Si1_3s       Si1_3s      3.89279       0   1   0            0.00064 
     12     Si1_3p_y       Si1_3s      3.89279       0   1   0            0.00072 
     12     Si1_3p_z       Si1_3s      3.89279       0   1   0            0.00021 
     12     Si1_3p_x       Si1_3s      3.89279       0   1   0           -0.00005 
     12       Si1_3s     Si1_3p_y      3.89279       0   1   0           -0.00010 
     12     Si1_3p_y     Si1_3p_y      3.89279       0   1   0            0.00203 
     12     Si1_3p_z     Si1_3p_y      3.89279       0   1   0            0.00001 
     12     Si1_3p_x     Si1_3p_y      3.89279       0   1   0            0.00102 
     12       Si1_3s     Si1_3p_z      3.89279       0   1   0            0.00021 
     12     Si1_3p_y     Si1_3p_z      3.89279       0   1   0            0.00040 
     12     Si1_3p_z     Si1_3p_z      3.89279       0   1   0           -0.00003 
     12     Si1_3p_x     Si1_3p_z      3.89279       0   1   0            0.00054 
     12       Si1_3s     Si1_3p_x      3.89279       0   1   0            0.00078 
     12     Si1_3p_y     Si1_3p_x      3.89279       0   1   0            0.00243 
     12     Si1_3p_z     Si1_3p_x      3.89279       0   1   0            0.00093 
     12     Si1_3p_x     Si1_3p_x      3.89279       0   1   0           -0.00011 
     13          Si1          Si1      5.50524      -1   0   1           -0.00093 
     13       Si1_3s       Si1_3s      5.50524      -1   0   1           -0.00092 
     13     Si1_3p_y       Si1_3s      5.50524      -1   0   1            0.00001 
     13     Si1_3p_z       Si1_3s      5.50524      -1   0   1            0.00002 
     13     Si1_3p_x       Si1_3s      5.50524      -1   0   1            0.00003 
     13       Si1_3s     Si1_3p_y      5.50524      -1   0   1            0.00001 
     13     Si1_3p_y     Si1_3p_y      5.50524      -1   0   1           -0.00006 
     13     Si1_3p_z     Si1_3p_y      5.50524      -1   0   1            0.00000 
     13     Si1_3p_x     Si1_3p_y      5.50524      -1   0   1            0.00000 
     13       Si1_3s     Si1_3p_z      5.50524      -1   0   1            0.00002 
     13     Si1_3p_y     Si1_3p_z      5.50524      -1   0   1            0.00000 
     13     Si1_3p_z     Si1_3p_z      5.50524      -1   0   1           -0.00006 
     13     Si1_3p_x     Si1_3p_z      5.50524      -1   0   1            0.00001 
     13       Si1_3s     Si1_3p_x      5.50524      -1   0   1            0.00004 
     13     Si1_3p_y     Si1_3p_x      5.50524      -1   0   1            0.00000 
     13     Si1_3p_z     Si1_3p_x      5.50524      -1   0   1            0.00001 
     13     Si1_3p_x     Si1_3p_x      5.50524      -1   0   1           -0.00005 
     14          Si1          Si1      3.89279       0   0   1            0.00964 
     14       Si1_3s       Si1_3s      3.89279       0   0   1            0.00064 
     14     Si1_3p_y       Si1_3s      3.89279       0   0   1           -0.00005 
     14     Si1_3p_z       Si1_3s      3.89279       0   0   1            0.00094 
     14     Si1_3p_x       Si1_3s      3.89279       0   0   1            0.00000 
     14       Si1_3s     Si1_3p_y      3.89279       0   0   1            0.00105 
     14     Si1_3p_y     Si1_3p_y      3.89279       0   0   1           -0.00007 
     14     Si1_3p_z     Si1_3p_y      3.89279       0   0   1            0.00433 
     14     Si1_3p_x     Si1_3p_y      3.89279       0   0   1            0.00000 
     14       Si1_3s     Si1_3p_z      3.89279       0   0   1           -0.00017 
     14     Si1_3p_y     Si1_3p_z      3.89279       0   0   1            0.00193 
     14     Si1_3p_z     Si1_3p_z      3.89279       0   0   1            0.00079 
     14     Si1_3p_x     Si1_3p_z      3.89279       0   0   1            0.00000 
     14       Si1_3s     Si1_3p_x      3.89279       0   0   1           -0.00000 
     14     Si1_3p_y     Si1_3p_x      3.89279       0   0   1            0.00000 
     14     Si1_3p_z     Si1_3p_x      3.89279       0   0   1            0.00000 
     14     Si1_3p_x     Si1_3p_x      3.89279       0   0   1            0.00026 
     15          Si1          Si1      5.50524       1   0   1           -0.00093 
     15       Si1_3s       Si1_3s      5.50524       1   0   1           -0.00092 
     15     Si1_3p_y       Si1_3s      5.50524       1   0   1            0.00001 
     15     Si1_3p_z       Si1_3s      5.50524       1   0   1            0.00002 
     15     Si1_3p_x       Si1_3s      5.50524       1   0   1            0.00004 
     15       Si1_3s     Si1_3p_y      5.50524       1   0   1            0.00001 
     15     Si1_3p_y     Si1_3p_y      5.50524       1   0   1           -0.00006 
     15     Si1_3p_z     Si1_3p_y      5.50524       1   0   1            0.00000 
     15     Si1_3p_x     Si1_3p_y      5.50524       1   0   1            0.00000 
     15       Si1_3s     Si1_3p_z      5.50524       1   0   1            0.00002 
     15     Si1_3p_y     Si1_3p_z      5.50524       1   0   1            0.00000 
     15     Si1_3p_z     Si1_3p_z      5.50524       1   0   1           -0.00006 
     15     Si1_3p_x     Si1_3p_z      5.50524       1   0   1            0.00001 
     15       Si1_3s     Si1_3p_x      5.50524       1   0   1            0.00003 
     15     Si1_3p_y     Si1_3p_x      5.50524       1   0   1            0.00000 
     15     Si1_3p_z     Si1_3p_x      5.50524       1   0   1            0.00001 
     15     Si1_3p_x     Si1_3p_x      5.50524       1   0   1           -0.00005 
     16          Si1          Si1      3.89279      -1   1   1            0.00964 
     16       Si1_3s       Si1_3s      3.89279      -1   1   1            0.00064 
     16     Si1_3p_y       Si1_3s      3.89279      -1   1   1           -0.00001 
     16     Si1_3p_z       Si1_3s      3.89279      -1   1   1            0.00093 
     16     Si1_3p_x       Si1_3s      3.89279      -1   1   1           -0.00004 
     16       Si1_3s     Si1_3p_y      3.89279      -1   1   1            0.00027 
     16     Si1_3p_y     Si1_3p_y      3.89279      -1   1   1            0.00005 
     16     Si1_3p_z     Si1_3p_y      3.89279      -1   1   1            0.00109 
     16     Si1_3p_x     Si1_3p_y      3.89279      -1   1   1            0.00012 
     16       Si1_3s     Si1_3p_z      3.89279      -1   1   1           -0.00016 
     16     Si1_3p_y     Si1_3p_z      3.89279      -1   1   1            0.00048 
     16     Si1_3p_z     Si1_3p_z      3.89279      -1   1   1            0.00079 
     16     Si1_3p_x     Si1_3p_z      3.89279      -1   1   1            0.00144 
     16       Si1_3s     Si1_3p_x      3.89279      -1   1   1            0.00079 
     16     Si1_3p_y     Si1_3p_x      3.89279      -1   1   1            0.00012 
     16     Si1_3p_z     Si1_3p_x      3.89279      -1   1   1            0.00324 
     16     Si1_3p_x     Si1_3p_x      3.89279      -1   1   1           -0.00011 
     17          Si1          Si1      3.89279       0   1   1            0.00960 
     17       Si1_3s       Si1_3s      3.89279       0   1   1            0.00064 
     17     Si1_3p_y       Si1_3s      3.89279       0   1   1           -0.00001 
     17     Si1_3p_z       Si1_3s      3.89279       0   1   1            0.00093 
     17     Si1_3p_x       Si1_3s      3.89279       0   1   1           -0.00004 
     17       Si1_3s     Si1_3p_y      3.89279       0   1   1            0.00025 
     17     Si1_3p_y     Si1_3p_y      3.89279       0   1   1            0.00005 
     17     Si1_3p_z     Si1_3p_y      3.89279       0   1   1            0.00108 
     17     Si1_3p_x     Si1_3p_y      3.89279       0   1   1            0.00013 
     17       Si1_3s     Si1_3p_z      3.89279       0   1   1           -0.00016 
     17     Si1_3p_y     Si1_3p_z      3.89279       0   1   1            0.00048 
     17     Si1_3p_z     Si1_3p_z      3.89279       0   1   1            0.00079 
     17     Si1_3p_x     Si1_3p_z      3.89279       0   1   1            0.00144 
     17       Si1_3s     Si1_3p_x      3.89279       0   1   1            0.00078 
     17     Si1_3p_y     Si1_3p_x      3.89279       0   1   1            0.00013 
     17     Si1_3p_z     Si1_3p_x      3.89279       0   1   1            0.00324 
     17     Si1_3p_x     Si1_3p_x      3.89279       0   1   1           -0.00011 
     18          Si1          Si1      5.50524      -1   2   1           -0.00093 
     18       Si1_3s       Si1_3s      5.50524      -1   2   1           -0.00092 
     18     Si1_3p_y       Si1_3s      5.50524      -1   2   1            0.00005 
     18     Si1_3p_z       Si1_3s      5.50524      -1   2   1            0.00002 
     18     Si1_3p_x       Si1_3s      5.50524      -1   2   1           -0.00000 
     18       Si1_3s     Si1_3p_y      5.50524      -1   2   1            0.00005 
     18     Si1_3p_y     Si1_3p_y      5.50524      -1   2   1           -0.00004 
     18     Si1_3p_z     Si1_3p_y      5.50524      -1   2   1            0.00001 
     18     Si1_3p_x     Si1_3p_y      5.50524      -1   2   1            0.00000 
     18       Si1_3s     Si1_3p_z      5.50524      -1   2   1            0.00002 
     18     Si1_3p_y     Si1_3p_z      5.50524      -1   2   1            0.00001 
     18     Si1_3p_z     Si1_3p_z      5.50524      -1   2   1           -0.00006 
     18     Si1_3p_x     Si1_3p_z      5.50524      -1   2   1            0.00000 
     18       Si1_3s     Si1_3p_x      5.50524      -1   2   1           -0.00000 
     18     Si1_3p_y     Si1_3p_x      5.50524      -1   2   1            0.00000 
     18     Si1_3p_z     Si1_3p_x      5.50524      -1   2   1            0.00000 
     18     Si1_3p_x     Si1_3p_x      5.50524      -1   2   1           -0.00007 
     19          Si2          Si1      5.99919       1  -1  -1           -0.00309 
     19       Si2_3s       Si1_3s      5.99919       1  -1  -1           -0.00133 
     19     Si2_3p_y       Si1_3s      5.99919       1  -1  -1            0.00046 
     19     Si2_3p_z       Si1_3s      5.99919       1  -1  -1            0.00092 
     19     Si2_3p_x       Si1_3s      5.99919       1  -1  -1            0.00138 
     19       Si2_3s     Si1_3p_y      5.99919       1  -1  -1            0.00065 
     19     Si2_3p_y     Si1_3p_y      5.99919       1  -1  -1            0.00056 
     19     Si2_3p_z     Si1_3p_y      5.99919       1  -1  -1           -0.00048 
     19     Si2_3p_x     Si1_3p_y      5.99919       1  -1  -1            0.00011 
     19       Si2_3s     Si1_3p_z      5.99919       1  -1  -1            0.00130 
     19     Si2_3p_y     Si1_3p_z      5.99919       1  -1  -1           -0.00048 
     19     Si2_3p_z     Si1_3p_z      5.99919       1  -1  -1           -0.00674 
     19     Si2_3p_x     Si1_3p_z      5.99919       1  -1  -1           -0.00140 
     19       Si2_3s     Si1_3p_x      5.99919       1  -1  -1            0.00196 
     19     Si2_3p_y     Si1_3p_x      5.99919       1  -1  -1            0.00011 
     19     Si2_3p_z     Si1_3p_x      5.99919       1  -1  -1           -0.00140 
     19     Si2_3p_x     Si1_3p_x      5.99919       1  -1  -1            0.00128 
     20          Si2          Si1      5.99919       2  -1  -1           -0.00327 
     20       Si2_3s       Si1_3s      5.99919       2  -1  -1           -0.00137 
     20     Si2_3p_y       Si1_3s      5.99919       2  -1  -1            0.00046 
     20     Si2_3p_z       Si1_3s      5.99919       2  -1  -1            0.00092 
     20     Si2_3p_x       Si1_3s      5.99919       2  -1  -1            0.00138 
     20       Si2_3s     Si1_3p_y      5.99919       2  -1  -1            0.00065 
     20     Si2_3p_y     Si1_3p_y      5.99919       2  -1  -1            0.00051 
     20     Si2_3p_z     Si1_3p_y      5.99919       2  -1  -1           -0.00048 
     20     Si2_3p_x     Si1_3p_y      5.99919       2  -1  -1            0.00010 
     20       Si2_3s     Si1_3p_z      5.99919       2  -1  -1            0.00131 
     20     Si2_3p_y     Si1_3p_z      5.99919       2  -1  -1           -0.00048 
     20     Si2_3p_z     Si1_3p_z      5.99919       2  -1  -1           -0.00668 
     20     Si2_3p_x     Si1_3p_z      5.99919       2  -1  -1           -0.00142 
     20       Si2_3s     Si1_3p_x      5.99919       2  -1  -1            0.00195 
     20     Si2_3p_y     Si1_3p_x      5.99919       2  -1  -1            0.00010 
     20     Si2_3p_z     Si1_3p_x      5.99919       2  -1  -1           -0.00142 
     20     Si2_3p_x     Si1_3p_x      5.99919       2  -1  -1            0.00118 
     21          Si2          Si1      5.99919       1   0  -1           -0.00328 
     21       Si2_3s       Si1_3s      5.99919       1   0  -1           -0.00137 
     21     Si2_3p_y       Si1_3s      5.99919       1   0  -1            0.00184 
     21     Si2_3p_z       Si1_3s      5.99919       1   0  -1            0.00092 
     21     Si2_3p_x       Si1_3s      5.99919       1   0  -1           -0.00000 
     21       Si2_3s     Si1_3p_y      5.99919       1   0  -1            0.00260 
     21     Si2_3p_y     Si1_3p_y      5.99919       1   0  -1            0.00166 
     21     Si2_3p_z     Si1_3p_y      5.99919       1   0  -1           -0.00188 
     21     Si2_3p_x     Si1_3p_y      5.99919       1   0  -1           -0.00000 
     21       Si2_3s     Si1_3p_z      5.99919       1   0  -1            0.00131 
     21     Si2_3p_y     Si1_3p_z      5.99919       1   0  -1           -0.00188 
     21     Si2_3p_z     Si1_3p_z      5.99919       1   0  -1           -0.00676 
     21     Si2_3p_x     Si1_3p_z      5.99919       1   0  -1           -0.00000 
     21       Si2_3s     Si1_3p_x      5.99919       1   0  -1           -0.00000 
     21     Si2_3p_y     Si1_3p_x      5.99919       1   0  -1           -0.00000 
     21     Si2_3p_z     Si1_3p_x      5.99919       1   0  -1           -0.00000 
     21     Si2_3p_x     Si1_3p_x      5.99919       1   0  -1            0.00027 
     22          Si2          Si1      4.56470       1  -1   0            0.00102 
     22       Si2_3s       Si1_3s      4.56470       1  -1   0            0.00029 
     22     Si2_3p_y       Si1_3s      4.56470       1  -1   0            0.00019 