<?xml version="1.0" encoding="ISO-8859-1"?>
<modeling>
 <generator>
  <i name="program" type="string">vasp </i>
  <i name="version" type="string">6.2.1  </i>
  <i name="subversion" type="string">16May21 (build Jul  8 2021 12:17:16) complex                          parallel </i>
  <i name="platform" type="string">LinuxGNU </i>
  <i name="date" type="string">2021 09 24 </i>
  <i name="time" type="string">12:56:57 </i>
 </generator>
 <incar>
  <i type="string" name="PREC">Accurate</i>
  <i type="string" name="ALGO">Normal</i>
  <i type="int" name="ISPIN">     2</i>
  <i type="int" name="ICHARG">     0</i>
  <i type="int" name="NELM">   100</i>
  <i type="int" name="IBRION">    -1</i>
  <i name="EDIFF">      0.00000100</i>
  <i type="int" name="NSW">     0</i>
  <i type="int" name="ISIF">     3</i>
  <i type="int" name="ISYM">     0</i>
  <i name="ENCUT">    520.00000000</i>
  <i type="int" name="NBANDS">     8</i>
  <v name="MAGMOM">     -0.00000000     -0.00000000</v>
  <i type="string" name="LREAL">Auto</i>
  <i type="int" name="ISMEAR">    -5</i>
  <i name="SIGMA">      0.05000000</i>
  <i type="logical" name="LWAVE"> T  </i>
  <i type="int" name="LORBIT">    11</i>
  <i type="logical" name="LASPH"> T  </i>
 </incar>
 <primitive_cell>
  <structure name="primitive_cell" >
   <crystal>
    <varray name="basis" >
     <v>       3.89279000       0.00000000      -0.00000000 </v>
     <v>       1.94639500       3.37125600       0.00000000 </v>
     <v>      -0.00000000      -2.24750200       3.17845000 </v>
    </varray>
    <i name="volume">     41.71267986 </i>
    <varray name="rec_basis" >
     <v>       0.25688516      -0.14831268      -0.10487283 </v>
     <v>       0.00000000       0.29662535       0.20974565 </v>
     <v>       0.00000000      -0.00000000       0.31461876 </v>
    </varray>
   </crystal>
   <varray name="positions" >
    <v>       0.00000000       0.00000000       0.00000000 </v>
    <v>       0.75000000       0.50000000       0.75000000 </v>
   </varray>
  </structure>
  <varray name="primitive_index" >
   <v type="int" >        1 </v>
   <v type="int" >        2 </v>
  </varray>
 </primitive_cell>
 <kpoints>
  <generation param="Gamma">
   <v type="int" name="divisions">       3        3        3 </v>
   <v name="usershift">      0.00000000       0.00000000       0.00000000 </v>
   <v name="genvec1">      0.33333333       0.00000000       0.00000000 </v>
   <v name="genvec2">      0.00000000       0.33333333       0.00000000 </v>
   <v name="genvec3">      0.00000000       0.00000000       0.33333333 </v>
   <v name="shift">      0.00000000       0.00000000       0.00000000 </v>
  </generation>
  <varray name="kpointlist" >
   <v>       0.00000000       0.00000000       0.00000000 </v>
   <v>       0.33333333       0.00000000       0.00000000 </v>
   <v>       0.00000000      -0.33333333       0.33333333 </v>
   <v>       0.00000000       0.00000000       0.33333333 </v>
   <v>       0.33333333       0.33333333       0.00000000 </v>
   <v>       0.00000000       0.33333333       0.00000000 </v>
   <v>      -0.33333333       0.00000000      -0.33333333 </v>
   <v>      -0.33333333      -0.33333333       0.33333333 </v>
   <v>      -0.33333333       0.33333333       0.00000000 </v>
   <v>       0.33333333       0.00000000      -0.33333333 </v>
   <v>       0.33333333      -0.33333333       0.33333333 </v>
   <v>      -0.33333333       0.33333333       0.33333333 </v>
   <v>       0.00000000      -0.33333333      -0.33333333 </v>
   <v>       0.33333333       0.33333333       0.33333333 </v>
  </varray>
  <varray name="weights" >
   <v>       0.03703704 </v>
   <v>       0.07407407 </v>
   <v>       0.07407407 </v>
   <v>       0.07407407 </v>
   <v>       0.07407407 </v>
   <v>       0.07407407 </v>
   <v>       0.07407407 </v>
   <v>       0.07407407 </v>
   <v>       0.07407407 </v>
   <v>       0.07407407 </v>
   <v>       0.07407407 </v>
   <v>       0.07407407 </v>
   <v>       0.07407407 </v>
   <v>       0.07407407 </v>
  </varray>
  <varray name="tetrahedronlist"  type="int" >
   <v type="int" >        2        1        2        4        5 </v>
   <v type="int" >        2        1        4        5        6 </v>
   <v type="int" >        2        4        5        6       13 </v>
   <v type="int" >        2        2        4        5        7 </v>
   <v type="int" >        2        4        5        7       14 </v>
   <v type="int" >        2        4        5       13       14 </v>
   <v type="int" >        2        2        2        7        9 </v>
   <v type="int" >        2        2        5        7        9 </v>
   <v type="int" >        2        5        7        9       14 </v>
   <v type="int" >        2        2        7        9       10 </v>
   <v type="int" >        2        7        9       10       12 </v>
   <v type="int" >        2        7        9       12       14 </v>
   <v type="int" >        2        1        2        6       10 </v>
   <v type="int" >        2        2        6        9       10 </v>
   <v type="int" >        2        6        9       10       12 </v>
   <v type="int" >        2        1        4        6       10 </v>
   <v type="int" >        2        4        6       10       13 </v>
   <v type="int" >        2        6       10       12       13 </v>
   <v type="int" >        2        5        6        9       13 </v>
   <v type="int" >        2        6        6        9       13 </v>
   <v type="int" >        2        3        6        9       13 </v>
   <v type="int" >        2        5        9       13       14 </v>
   <v type="int" >        2        9       11       13       14 </v>
   <v type="int" >        2        3        9       11       13 </v>
   <v type="int" >        4        5        5        9       14 </v>
   <v type="int" >        2        5        9       11       14 </v>
   <v type="int" >        2        5        9       12       14 </v>
   <v type="int" >        2        5        8       12       14 </v>
   <v type="int" >        2        5        8       11       14 </v>
   <v type="int" >        2        6        6        9       12 </v>
   <v type="int" >        2        5        6        9       12 </v>
   <v type="int" >        2        5        6        8       12 </v>
   <v type="int" >        2        6        6       12       13 </v>
   <v type="int" >        2        3        6       12       13 </v>
   <v type="int" >        2        3        6        8       12 </v>
   <v type="int" >        2        2        3        6        9 </v>
   <v type="int" >        2        1        2        3        6 </v>
   <v type="int" >        2        1        2        3        4 </v>
   <v type="int" >        2        2        3        9       11 </v>
   <v type="int" >        2        2        3        7       11 </v>
   <v type="int" >        2        2        3        4        7 </v>
   <v type="int" >        2        2        5        9       11 </v>
   <v type="int" >        2        2        2        9       11 </v>
   <v type="int" >        2        2        2        7       11 </v>
   <v type="int" >        2        2        5        8       11 </v>
   <v type="int" >        2        2        8       10       11 </v>
   <v type="int" >        2        2        7       10       11 </v>
   <v type="int" >        2        1        5        6        8 </v>
   <v type="int" >        2        1        2        5        8 </v>
   <v type="int" >        2        1        2        8       10 </v>
   <v type="int" >        2        1        3        6        8 </v>
   <v type="int" >        2        1        3        4        8 </v>
   <v type="int" >        2        1        4        8       10 </v>
   <v type="int" >        2        4        4        7       14 </v>
   <v type="int" >        2        4        4       13       14 </v>
   <v type="int" >        2        3        4       13       14 </v>
   <v type="int" >        2        4        7       10       14 </v>
   <v type="int" >        2        4        8       10       14 </v>
   <v type="int" >        2        3        4        8       14 </v>
   <v type="int" >        4        7       10       10       12 </v>
   <v type="int" >        2        7       10       12       14 </v>
   <v type="int" >        2        8       10       12       14 </v>
   <v type="int" >        2        7       10       11       12 </v>
   <v type="int" >        2        8       10       11       12 </v>
   <v type="int" >        2        4        7       10       13 </v>
   <v type="int" >        2        7       10       12       13 </v>
   <v type="int" >        2        7       11       12       13 </v>
   <v type="int" >        2        4        4        7       13 </v>
   <v type="int" >        2        3        4        7       13 </v>
   <v type="int" >        2        3        7       11       13 </v>
   <v type="int" >        2        3       11       13       14 </v>
   <v type="int" >        4        3        3       11       13 </v>
   <v type="int" >        2        3        8       11       14 </v>
   <v type="int" >        2        3        8       11       12 </v>
   <v type="int" >        2        3       11       12       13 </v>
   <v type="int" >        2        8        8       12       14 </v>
   <v type="int" >        2        8        8       11       14 </v>
   <v type="int" >        2        8        8       11       12 </v>
  </varray>
  <i name="volumeweight">      0.00617284 </i>
 </kpoints>
 <parameters>
  <separator name="general" >
   <i type="string" name="SYSTEM">unknown system</i>
   <i type="logical" name="LCOMPAT"> F  </i>
  </separator>
  <separator name="electronic" >
   <i type="string" name="PREC">accura</i>
   <i name="ENMAX">    520.00000000</i>
   <i name="ENAUG">    322.06900000</i>
   <i name="EDIFF">      0.00000100</i>
   <i type="int" name="IALGO">    38</i>
   <i type="int" name="IWAVPR">    10</i>
   <i type="int" name="NBANDS">     8</i>
   <i type="int" name="NBANDSLOW">    -1</i>
   <i type="int" name="NBANDSHIGH">    -1</i>
   <i name="NELECT">      8.00000000</i>
   <i type="int" name="TURBO">     0</i>
   <i type="int" name="IRESTART">     0</i>
   <i type="int" name="NREBOOT">     0</i>
   <i type="int" name="NMIN">     0</i>
   <i name="EREF">      0.00000000</i>
   <separator name="electronic smearing" >
    <i type="int" name="ISMEAR">    -5</i>
    <i name="SIGMA">      0.05000000</i>
    <i name="KSPACING">      0.50000000</i>
    <i type="logical" name="KGAMMA"> T  </i>
    <i type="logical" name="KBLOWUP"> T  </i>
   </separator>
   <separator name="electronic projectors" >
    <i type="logical" name="LREAL"> T  </i>
    <v name="ROPT">     -0.00025000</v>
    <i type="int" name="LMAXPAW">  -100</i>
    <i type="int" name="LMAXMIX">     2</i>
    <i type="logical" name="NLSPLINE"> F  </i>
   </separator>
   <separator name="electronic startup" >
    <i type="int" name="ISTART">     0</i>
    <i type="int" name="ICHARG">     0</i>
    <i type="int" name="INIWAV">     1</i>
   </separator>
   <separator name="electronic spin" >
    <i type="int" name="ISPIN">     2</i>
    <i type="logical" name="LNONCOLLINEAR"> F  </i>
    <v name="MAGMOM">     -0.00000000     -0.00000000</v>
    <i name="NUPDOWN">     -1.00000000</i>
    <i type="logical" name="LSORBIT"> F  </i>
    <v name="SAXIS">      0.00000000      0.00000000      1.00000000</v>
    <i type="logical" name="LSPIRAL"> F  </i>
    <v name="QSPIRAL">      0.00000000      0.00000000      0.00000000</v>
    <i type="logical" name="LZEROZ"> F  </i>
   </separator>
   <separator name="electronic exchange-correlation" >
    <i type="logical" name="LASPH"> T  </i>
    <i type="logical" name="LMETAGGA"> F  </i>
   </separator>
   <separator name="electronic convergence" >
    <i type="int" name="NELM">   100</i>
    <i type="int" name="NELMDL">    -5</i>
    <i type="int" name="NELMIN">     2</i>
    <i name="ENINI">    520.00000000</i>
    <separator name="electronic convergence detail" >
     <i type="logical" name="LDIAG"> T  </i>
     <i type="logical" name="LSUBROT"> F  </i>
     <i name="WEIMIN">      0.00000000</i>
     <i name="EBREAK">      0.00000003</i>
     <i name="DEPER">      0.30000000</i>
     <i type="int" name="NRMM">     4</i>
     <i name="TIME">      0.40000000</i>
    </separator>
   </separator>
   <separator name="electronic mixer" >
    <i name="AMIX">      0.40000000</i>
    <i name="BMIX">      1.00000000</i>
    <i name="AMIN">      0.10000000</i>
    <i name="AMIX_MAG">      1.60000000</i>
    <i name="BMIX_MAG">      1.00000000</i>
    <separator name="electronic mixer details" >
     <i type="int" name="IMIX">     4</i>
     <i type="logical" name="MIXFIRST"> F  </i>
     <i type="int" name="MAXMIX">   -45</i>
     <i name="WC">    100.00000000</i>
     <i type="int" name="INIMIX">     1</i>
     <i type="int" name="MIXPRE">     1</i>
     <i type="int" name="MREMOVE">     5</i>
    </separator>
   </separator>
   <separator name="electronic dipolcorrection" >
    <i type="logical" name="LDIPOL"> F  </i>
    <i type="logical" name="LMONO"> F  </i>
    <i type="int" name="IDIPOL">     0</i>
    <i name="EPSILON">      1.00000000</i>
    <v name="DIPOL">   -100.00000000   -100.00000000   -100.00000000</v>
    <i name="EFIELD">      0.00000000</i>
   </separator>
  </separator>
  <separator name="grids" >
   <i type="int" name="NGX">    30</i>
   <i type="int" name="NGY">    30</i>
   <i type="int" name="NGZ">    30</i>
   <i type="int" name="NGXF">    60</i>
   <i type="int" name="NGYF">    60</i>
   <i type="int" name="NGZF">    60</i>
   <i type="logical" name="ADDGRID"> F  </i>
  </separator>
  <separator name="ionic" >
   <i type="int" name="NSW">     0</i>
   <i type="int" name="IBRION">    -1</i>
   <i type="int" name="MDALGO">     0</i>
   <i type="int" name="ISIF">     3</i>
   <i name="PSTRESS">      0.00000000</i>
   <i name="EDIFFG">      0.00001000</i>
   <i type="int" name="NFREE">     0</i>
   <i name="POTIM">      0.50000000</i>
   <i name="SMASS">     -3.00000000</i>
   <i name="SCALEE">      1.00000000</i>
  </separator>
  <separator name="ionic md" >
   <i name="TEBEG">      0.00010000</i>
   <i name="TEEND">      0.00010000</i>
   <i type="int" name="NBLOCK">     1</i>
   <i type="int" name="KBLOCK">     1</i>
   <i type="int" name="NPACO">   256</i>
   <i name="APACO">     16.00000000</i>
  </separator>
  <separator name="symmetry" >
   <i type="int" name="ISYM">     0</i>
   <i name="SYMPREC">      0.00001000</i>
  </separator>
  <separator name="dos" >
   <i type="int" name="LORBIT">    11</i>
   <v name="RWIGS">     -1.00000000</v>
   <i type="int" name="NEDOS">   301</i>
   <i name="EMIN">     10.00000000</i>
   <i name="EMAX">    -10.00000000</i>
   <i name="EFERMI">      0.00000000</i>
  </separator>
  <separator name="writing" >
   <i type="int" name="NWRITE">     2</i>
   <i type="logical" name="LWAVE"> T  </i>
   <i type="logical" name="LDOWNSAMPLE"> F  </i>
   <i type="logical" name="LCHARG"> T  </i>
   <i type="logical" name="LPARD"> F  </i>
   <i type="logical" name="LVTOT"> F  </i>
   <i type="logical" name="LVHAR"> F  </i>
   <i type="logical" name="LELF"> F  </i>
   <i type="logical" name="LOPTICS"> F  </i>
   <v name="STM">      0.00000000      0.00000000      0.00000000      0.00000000      0.00000000      0.00000000      0.00000000</v>
  </separator>
  <separator name="performance" >
   <i type="int" name="NPAR">     4</i>
   <i type="int" name="NSIM">     4</i>
   <i type="int" name="NBLK">    -1</i>
   <i type="logical" name="LPLANE"> T  </i>
   <i type="logical" name="LSCALAPACK"> T  </i>
   <i type="logical" name="LSCAAWARE"> F  </i>
   <i type="logical" name="LSCALU"> F  </i>
   <i type="logical" name="LASYNC"> F  </i>
   <i type="logical" name="LORBITALREAL"> F  </i>
  </separator>
  <separator name="miscellaneous" >
   <i type="int" name="IDIOT">     3</i>
   <i type="int" name="PHON_NSTRUCT">    -1</i>
   <i type="logical" name="LMUSIC"> F  </i>
   <v name="POMASS">     28.08500000</v>
   <v name="DARWINR">      0.00000000</v>
   <v name="DARWINV">      1.00000000</v>
   <i type="logical" name="LCORR"> T  </i>
  </separator>
  <i type="logical" name="GGA_COMPAT"> T  </i>
  <i type="logical" name="LBERRY"> F  </i>
  <i type="int" name="ICORELEVEL">     0</i>
  <i type="logical" name="LDAU"> F  </i>
  <i type="int" name="I_CONSTRAINED_M">     0</i>
  <separator name="electronic exchange-correlation" >
   <i type="string" name="GGA">--</i>
   <i type="int" name="VOSKOWN">     0</i>
   <i type="logical" name="LHFCALC"> F  </i>
   <i type="string" name="PRECFOCK"></i>
   <i type="logical" name="LSYMGRAD"> F  </i>
   <i type="logical" name="LHFONE"> F  </i>
   <i type="logical" name="LRHFCALC"> F  </i>
   <i type="logical" name="LTHOMAS"> F  </i>
   <i type="logical" name="LMODELHF"> F  </i>
   <i type="logical" name="LFOCKACE"> F  </i>
   <i name="ENCUT4O">     -1.00000000</i>
   <i type="int" name="EXXOEP">     0</i>
   <i type="int" name="FOURORBIT">     0</i>
   <i name="AEXX">      0.00000000</i>
   <i name="HFALPHA">      0.00000000</i>
   <i name="MCALPHA">      0.00000000</i>
   <i name="ALDAX">      1.00000000</i>
   <i name="AGGAX">      1.00000000</i>
   <i name="ALDAC">      1.00000000</i>
   <i name="AGGAC">      1.00000000</i>
   <i type="int" name="NKREDX">     1</i>
   <i type="int" name="NKREDY">     1</i>
   <i type="int" name="NKREDZ">     1</i>
   <i type="logical" name="SHIFTRED"> F  </i>
   <i type="logical" name="ODDONLY"> F  </i>
   <i type="logical" name="EVENONLY"> F  </i>
   <i type="int" name="LMAXFOCK">     0</i>
   <i type="int" name="NMAXFOCKAE">     0</i>
   <i type="logical" name="LFOCKAEDFT"> F  </i>
   <i name="HFSCREEN">      0.00000000</i>
   <i name="HFSCREENC">      0.00000000</i>
   <i type="int" name="NBANDSGWLOW">     0</i>
  </separator>
  <separator name="vdW DFT" >
   <i type="logical" name="LUSE_VDW"> F  </i>
   <i name="Zab_VDW">     -0.84910000</i>
   <i name="PARAM1">      0.12340000</i>
   <i name="PARAM2">      1.00000000</i>
   <i name="PARAM3">      0.00000000</i>
  </separator>
  <separator name="model GW" >
   <i type="int" name="MODEL_GW">     0</i>
   <i name="MODEL_EPS0">     12.51380396</i>
   <i name="MODEL_ALPHA">      1.00000000</i>
  </separator>
  <separator name="linear response parameters" >
   <i type="logical" name="LEPSILON"> F  </i>
   <i type="logical" name="LRPA"> F  </i>
   <i type="logical" name="LNABLA"> F  </i>
   <i type="logical" name="LVEL"> F  </i>
   <i type="int" name="KINTER">     0</i>
   <i name="CSHIFT">      0.10000000</i>
   <i name="OMEGAMAX">     -1.00000000</i>
   <i name="DEG_THRESHOLD">      0.00200000</i>
   <i name="RTIME">     -0.10000000</i>
   <i name="WPLASMAI">      0.00000000</i>
   <v name="DFIELD">      0.00000000      0.00000000      0.00000000</v>
   <v name="WPLASMA">      0.00000000      0.00000000      0.00000000      0.00000000      0.00000000      0.00000000      0.00000000      0.00000000      0.00000000</v>
  </separator>
  <separator name="orbital magnetization" >
   <i type="logical" name="NUCIND"> F  </i>
   <v name="MAGPOS">      0.00000000      0.00000000      0.00000000</v>
   <i type="logical" name="LNICSALL"> T  </i>
   <i type="logical" name="ORBITALMAG"> F  </i>
   <i type="logical" name="LMAGBLOCH"> F  </i>
   <i type="logical" name="LCHIMAG"> F  </i>
   <i type="logical" name="LGAUGE"> T  </i>
   <i type="int" name="MAGATOM">     0</i>
   <v name="MAGDIPOL">      0.00000000      0.00000000      0.00000000</v>
   <v name="AVECCONST">      0.00000000      0.00000000      0.00000000</v>
  </separator>
  <separator name="response functions" >
   <i type="logical" name="LFINITE_TEMPERATURE"> F  </i>
   <i type="logical" name="LADDER"> F  </i>
   <i type="logical" name="LRPAFORCE"> F  </i>
   <i type="logical" name="LFXC"> F  </i>
   <i type="logical" name="LHARTREE"> T  </i>
   <i type="int" name="IBSE">     0</i>
   <v type="int" name="KPOINT">    -1     0     0     0</v>
   <i type="logical" name="LTCTC"> F  </i>
   <i type="logical" name="LTCTE"> F  </i>
   <i type="logical" name="LTETE"> F  </i>
   <i type="logical" name="LTRIPLET"> F  </i>
   <i type="logical" name="LFXCEPS"> F  </i>
   <i type="logical" name="LFXHEG"> F  </i>
   <i type="int" name="NATURALO">     2</i>
   <i type="logical" name="LHOLEGF"> F  </i>
   <i type="logical" name="L2ORDER"> F  </i>
   <i type="logical" name="LDMP1"> F  </i>
   <i type="logical" name="LMP2LT"> F  </i>
   <i type="logical" name="LSMP2LT"> F  </i>
   <i type="logical" name="LGWLF"> F  </i>
   <i name="ENCUTGW">     -2.00000000</i>
   <i name="ENCUTGWSOFT">     -2.00000000</i>
   <i name="ENCUTLF">     -1.00000000</i>
   <i type="logical" name="LESF_SPLINES"> F  </i>
   <i type="int" name="LMAXMP2">    -1</i>
   <i name="SCISSOR">      0.00000000</i>
   <i type="int" name="NOMEGA">     0</i>
   <i type="int" name="NOMEGAR">     0</i>
   <i type="int" name="NBANDSGW">    -1</i>
   <i type="int" name="NBANDSO">    -1</i>
   <i type="int" name="NBANDSV">    -1</i>
   <i type="int" name="NELM">   100</i>
   <i type="int" name="NELMHF">     1</i>
   <i type="int" name="DIM">     3</i>
   <i type="int" name="IESPILON">     4</i>
   <i type="int" name="ANTIRES">     0</i>
   <i name="OMEGAMAX">    -30.00000000</i>
   <i name="OMEGAMIN">    -30.00000000</i>
   <i name="OMEGATL">   -200.00000000</i>
   <i type="int" name="OMEGAGRID">     0</i>
   <i name="CSHIFT">     -0.10000000</i>
   <i type="logical" name="LSELFENERGY"> F  </i>
   <i type="logical" name="LSPECTRAL"> F  </i>
   <i type="logical" name="LSPECTRALGW"> F  </i>
   <i type="logical" name="LSINGLES"> F  </i>
   <i type="logical" name="LFERMIGW"> F  </i>
   <i type="logical" name="ODDONLYGW"> F  </i>
   <i type="logical" name="EVENONLYGW"> F  </i>
   <i type="int" name="NKREDLFX">     1</i>
   <i type="int" name="NKREDLFY">     1</i>
   <i type="int" name="NKREDLFZ">     1</i>
   <i type="int" name="MAXMEM">  2800</i>
   <i type="int" name="TELESCOPE">     0</i>
   <i type="int" name="NTAUPAR">    -1</i>
   <i type="int" name="NOMEGAPAR">    -1</i>
   <i name="DAMP_NEWTON">      0.80000001</i>
   <i name="LAMBDA">      1.00000000</i>
  </separator>
  <separator name="External order field" >
   <i name="OFIELD_KAPPA">      0.00000000</i>
   <v name="OFIELD_K">      0.00000000      0.00000000      0.00000000</v>
   <i name="OFIELD_Q6_NEAR">      0.00000000</i>
   <i name="OFIELD_Q6_FAR">      0.00000000</i>
   <i name="OFIELD_A">      0.00000000</i>
  </separator>
 </parameters>
 <atominfo>
  <atoms>       2 </atoms>
  <types>       1 </types>
  <array name="atoms" >
   <dimension dim="1">ion</dimension>
   <field type="string">element</field>
   <field type="int">atomtype</field>
   <set>
    <rc><c>Si</c><c>   1</c></rc>
    <rc><c>Si</c><c>   1</c></rc>
   </set>
  </array>
  <array name="atomtypes" >
   <dimension dim="1">type</dimension>
   <field type="int">atomspertype</field>
   <field type="string">element</field>
   <field>mass</field>
   <field>valence</field>
   <field type="string">pseudopotential</field>
   <set>
    <rc><c>   2</c><c>Si</c><c>     28.08500000</c><c>      4.00000000</c><c>  PAW_PBE Si 05Jan2001                  </c></rc>
   </set>
  </array>
 </atominfo>
 <structure name="initialpos" >
  <crystal>
   <varray name="basis" >
    <v>       3.89279000       0.00000000      -0.00000000 </v>
    <v>       1.94639500       3.37125600       0.00000000 </v>
    <v>      -0.00000000      -2.24750200       3.17845000 </v>
   </varray>
   <i name="volume">     41.71267986 </i>
   <varray name="rec_basis" >
    <v>       0.25688516      -0.14831268      -0.10487283 </v>
    <v>       0.00000000       0.29662535       0.20974565 </v>
    <v>       0.00000000      -0.00000000       0.31461876 </v>
   </varray>
  </crystal>
  <varray name="positions" >
   <v>       0.00000000       0.00000000       0.00000000 </v>
   <v>       0.75000000       0.50000000       0.75000000 </v>
  </varray>
 </structure>
 <calculation>
  <scstep>
   <time name="dav">    0.15    0.15</time>
   <time name="total">    0.71    0.71</time>
   <energy>
    <i name="alphaZ">      3.22809572 </i>
    <i name="ewald">   -225.43987080 </i>
    <i name="hartreedc">    -20.11959436 </i>
    <i name="XCdc">    -17.49904891 </i>
    <i name="pawpsdc">**************** </i>
    <i name="pawaedc">**************** </i>
    <i name="eentropy">      0.00000000 </i>
    <i name="bandstr">      6.73625790 </i>
    <i name="atom">    206.13270273 </i>
    <i name="e_fr_energy">     -9.41530903 </i>
    <i name="e_wo_entrp">     -9.41530903 </i>
    <i name="e_0_energy">     -9.41530903 </i>
   </energy>
  </scstep>
  <scstep>
   <time name="dav">    0.21    0.21</time>
   <time name="total">    0.21    0.22</time>
   <energy>
    <i name="e_fr_energy">    -32.44164603 </i>
    <i name="e_wo_entrp">    -32.44164603 </i>
    <i name="e_0_energy">    -32.44164603 </i>
   </energy>
  </scstep>
  <scstep>
   <time name="dav">    0.23    0.23</time>
   <time name="total">    0.23    0.23</time>
   <energy>
    <i name="e_fr_energy">    -32.88612287 </i>
    <i name="e_wo_entrp">    -32.88612287 </i>
    <i name="e_0_energy">    -32.88612287 </i>
   </energy>
  </scstep>
  <scstep>
   <time name="dav">    0.24    0.24</time>
   <time name="total">    0.24    0.24</time>
   <energy>
    <i name="e_fr_energy">    -32.88874606 </i>
    <i name="e_wo_entrp">    -32.88874606 </i>
    <i name="e_0_energy">    -32.88874606 </i>
   </energy>
  </scstep>
  <scstep>
   <time name="dav">    0.21    0.21</time>
   <time name="total">    0.22    0.22</time>
   <energy>
    <i name="e_fr_energy">    -32.88874772 </i>
    <i name="e_wo_entrp">    -32.88874772 </i>
    <i name="e_0_energy">    -32.88874772 </i>
   </energy>
  </scstep>
  <scstep>
   <time name="dav">    0.15    0.15</time>
   <time name="total">    0.71    0.71</time>
   <energy>
    <i name="e_fr_energy">    -15.38846751 </i>
    <i name="e_wo_entrp">    -15.38846751 </i>
    <i name="e_0_energy">    -15.38846751 </i>
   </energy>
  </scstep>
  <scstep>
   <time name="dav">    0.17    0.17</time>
   <time name="total">    0.73    0.73</time>
   <energy>
    <i name="e_fr_energy">    -10.49876538 </i>
    <i name="e_wo_entrp">    -10.49876538 </i>
    <i name="e_0_energy">    -10.49876538 </i>
   </energy>
  </scstep>
  <scstep>
   <time name="dav">    0.30    0.32</time>
   <time name="total">    0.84    0.86</time>
   <energy>
    <i name="e_fr_energy">    -10.38974630 </i>
    <i name="e_wo_entrp">    -10.38974630 </i>
    <i name="e_0_energy">    -10.38974630 </i>
   </energy>
  </scstep>
  <scstep>
   <time name="dav">    0.17    0.17</time>
   <time name="total">    0.71    0.71</time>
   <energy>
    <i name="e_fr_energy">    -10.23252862 </i>
    <i name="e_wo_entrp">    -10.23252862 </i>
    <i name="e_0_energy">    -10.23252862 </i>
   </energy>
  </scstep>
  <scstep>
   <time name="dav">    0.23    0.23</time>
   <time name="total">    0.77    0.77</time>
   <energy>
    <i name="e_fr_energy">    -10.24213579 </i>
    <i name="e_wo_entrp">    -10.24213579 </i>
    <i name="e_0_energy">    -10.24213579 </i>
   </energy>
  </scstep>
  <scstep>
   <time name="dav">    0.18    0.18</time>
   <time name="total">    0.71    0.71</time>
   <energy>
    <i name="e_fr_energy">    -10.24563462 </i>
    <i name="e_wo_entrp">    -10.24563462 </i>
    <i name="e_0_energy">    -10.24563462 </i>
   </energy>
  </scstep>
  <scstep>
   <time name="dav">    0.23    0.23</time>
   <time name="total">    0.76    0.76</time>
   <energy>
    <i name="e_fr_energy">    -10.24711240 </i>
    <i name="e_wo_entrp">    -10.24711240 </i>
    <i name="e_0_energy">    -10.24711240 </i>
   </energy>
  </scstep>
  <scstep>
   <time name="dav">    0.17    0.18</time>
   <time name="total">    0.71    0.71</time>
   <energy>
    <i name="e_fr_energy">    -10.24765587 </i>
    <i name="e_wo_entrp">    -10.24765587 </i>
    <i name="e_0_energy">    -10.24765587 </i>
   </energy>
  </scstep>
  <scstep>
   <time name="dav">    0.23    0.23</time>
   <time name="total">    0.76    0.76</time>
   <energy>
    <i name="e_fr_energy">    -10.24765847 </i>
    <i name="e_wo_entrp">    -10.24765847 </i>
    <i name="e_0_energy">    -10.24765847 </i>
   </energy>
  </scstep>
  <scstep>
   <time name="dav">    0.18    0.18</time>
   <time name="total">    0.71    0.71</time>
   <energy>
    <i name="e_fr_energy">    -10.24767735 </i>
    <i name="e_wo_entrp">    -10.24767735 </i>
    <i name="e_0_energy">    -10.24767735 </i>
   </energy>
  </scstep>
  <scstep>
   <time name="dav">    0.23    0.23</time>
   <time name="total">    0.76    0.76</time>
   <energy>
    <i name="alphaZ">      3.22809572 </i>
    <i name="ewald">   -225.43987080 </i>
    <i name="hartreedc">    -16.21133436 </i>
    <i name="XCdc">    -18.05355522 </i>
    <i name="pawpsdc">    825.38423745 </i>
    <i name="pawaedc">   -790.40576244 </i>
    <i name="eentropy">      0.00000000 </i>
    <i name="bandstr">      5.11780937 </i>
    <i name="atom">    206.13270273 </i>
    <i name="e_fr_energy">    -10.24767755 </i>
    <i name="e_wo_entrp">    -10.24767755 </i>
    <i name="e_0_energy">    -10.24767755 </i>
   </energy>
  </scstep>
  <structure>
   <crystal>
    <varray name="basis" >
     <v>       3.89279000       0.00000000      -0.00000000 </v>
     <v>       1.94639500       3.37125600       0.00000000 </v>
     <v>      -0.00000000      -2.24750200       3.17845000 </v>
    </varray>
    <i name="volume">     41.71267986 </i>
    <varray name="rec_basis" >
     <v>       0.25688516      -0.14831268      -0.10487283 </v>
     <v>       0.00000000       0.29662535       0.20974565 </v>
     <v>       0.00000000      -0.00000000       0.31461876 </v>
    </varray>
   </crystal>
   <varray name="positions" >
    <v>       0.00000000       0.00000000       0.00000000 </v>
    <v>       0.75000000       0.50000000       0.75000000 </v>
   </varray>
  </structure>
  <varray name="forces" >
   <v>      -0.00000113       0.00000132      -0.00000889 </v>
   <v>       0.00000113      -0.00000132       0.00000889 </v>
  </varray>
  <varray name="stress" >
   <v>       0.14950277       0.00039138       0.00024001 </v>
   <v>       0.00039142       0.15019952      -0.00073990 </v>
   <v>       0.00023983      -0.00073973       0.14854002 </v>
  </varray>
  <energy>
   <i name="e_fr_energy">    -10.24767755 </i>
   <i name="e_wo_entrp">    -10.24767755 </i>
   <i name="e_0_energy">    -10.24767755 </i>
  </energy>
  <time name="totalsc">   11.59   11.64</time>
  <eigenvalues>
   <array>
    <dimension dim="1">band</dimension>
    <dimension dim="2">kpoint</dimension>
    <dimension dim="3">spin</dimension>
    <field>eigene</field>
    <field>occ</field>
    <set>
     <set comment="spin 1">
      <set comment="kpoint 1">
       <r>   -6.1744    1.0000 </r>
       <r>    5.5259    1.0000 </r>
       <r>    5.5259    1.0000 </r>
       <r>    5.5259    1.0000 </r>
       <r>    8.0308    0.0000 </r>
       <r>    8.0308    0.0000 </r>
       <r>    8.0308    0.0000 </r>
       <r>    8.4434    0.0000 </r>
      </set>
      <set comment="kpoint 2">
       <r>   -4.8467    1.0000 </r>
       <r>    0.2953    1.0000 </r>
       <r>    4.5492    1.0000 </r>
       <r>    4.5492    1.0000 </r>
       <r>    7.1322    0.0000 </r>
       <r>    8.9794    0.0000 </r>
       <r>    8.9795    0.0000 </r>
       <r>   13.2065    0.0000 </r>
      </set>
      <set comment="kpoint 3">
       <r>   -4.8467    1.0000 </r>
       <r>    0.2954    1.0000 </r>
       <r>    4.5492    1.0000 </r>
       <r>    4.5492    1.0000 </r>
       <r>    7.1322    0.0000 </r>
       <r>    8.9794    0.0000 </r>
       <r>    8.9795    0.0000 </r>
       <r>   13.2065    0.0000 </r>
      </set>
      <set comment="kpoint 4">
       <r>   -4.8467    1.0000 </r>
       <r>    0.2953    1.0000 </r>
       <r>    4.5492    1.0000 </r>
       <r>    4.5492    1.0000 </r>
       <r>    7.1322    0.0000 </r>
       <r>    8.9794    0.0000 </r>
       <r>    8.9794    0.0000 </r>
       <r>   13.2065    0.0000 </r>
      </set>
      <set comment="kpoint 5">
       <r>   -4.8467    1.0000 </r>
       <r>    0.2953    1.0000 </r>
       <r>    4.5492    1.0000 </r>
       <r>    4.5492    1.0000 </r>
       <r>    7.1322    0.0000 </r>
       <r>    8.9794    0.0000 </r>
       <r>    8.9795    0.0000 </r>
       <r>   13.2065    0.0000 </r>
      </set>
      <set comment="kpoint 6">
       <r>   -4.3338    1.0000 </r>
       <r>    0.5460    1.0000 </r>
       <r>    3.1828    1.0000 </r>
       <r>    3.1828    1.0000 </r>
       <r>    6.2759    0.0000 </r>
       <r>    7.5313    0.0000 </r>
       <r>   12.5923    0.0000 </r>
       <r>   12.5924    0.0000 </r>
      </set>
      <set comment="kpoint 7">
       <r>   -4.3338    1.0000 </r>
       <r>    0.5460    1.0000 </r>
       <r>    3.1828    1.0000 </r>
       <r>    3.1828    1.0000 </r>
       <r>    6.2759    0.0000 </r>
       <r>    7.5313    0.0000 </r>
       <r>   12.5923    0.0000 </r>
       <r>   12.5924    0.0000 </r>
      </set>
      <set comment="kpoint 8">
       <r>   -4.3338    1.0000 </r>
       <r>    0.5460    1.0000 </r>
       <r>    3.1828    1.0000 </r>
       <r>    3.1828    1.0000 </r>
       <r>    6.2759    0.0000 </r>
       <r>    7.5313    0.0000 </r>
       <r>   12.5923    0.0000 </r>
       <r>   12.5924    0.0000 </r>
      </set>
      <set comment="kpoint 9">
       <r>   -3.0330    1.0000 </r>
       <r>   -1.1489    1.0000 </r>
       <r>    1.2759    1.0000 </r>
       <r>    3.4764    1.0000 </r>
       <r>    7.0927    0.0000 </r>
       <r>   11.2601    0.0000 </r>
       <r>   11.8279    0.0000 </r>
       <r>   12.3838    0.0000 </r>
      </set>
      <set comment="kpoint 10">
       <r>   -3.0330    1.0000 </r>
       <r>   -1.1489    1.0000 </r>
       <r>    1.2759    1.0000 </r>
       <r>    3.4764    1.0000 </r>
       <r>    7.0928    0.0000 </r>
       <r>   11.2601    0.0000 </r>
       <r>   11.8279    0.0000 </r>
       <r>   12.3838    0.0000 </r>
      </set>
      <set comment="kpoint 11">
       <r>   -3.0330    1.0000 </r>
       <r>   -1.1489    1.0000 </r>
       <r>    1.2759    1.0000 </r>
       <r>    3.4764    1.0000 </r>
       <r>    7.0927    0.0000 </r>
       <r>   11.2601    0.0000 </r>
       <r>   11.8279    0.0000 </r>
       <r>   12.3838    0.0000 </r>
      </set>
      <set comment="kpoint 12">
       <r>   -3.0330    1.0000 </r>
       <r>   -1.1489    1.0000 </r>
       <r>    1.2759    1.0000 </r>
       <r>    3.4764    1.0000 </r>
       <r>    7.0927    0.0000 </r>
       <r>   11.2601    0.0000 </r>
       <r>   11.8279    0.0000 </r>
       <r>   12.3838    0.0000 </r>
      </set>
      <set comment="kpoint 13">
       <r>   -3.0330    1.0000 </r>
       <r>   -1.1489    1.0000 </r>
       <r>    1.2759    1.0000 </r>
       <r>    3.4764    1.0000 </r>
       <r>    7.0927    0.0000 </r>
       <r>   11.2601    0.0000 </r>
       <r>   11.8279    0.0000 </r>
       <r>   12.3838    0.0000 </r>
      </set>
      <set comment="kpoint 14">
       <r>   -3.0330    1.0000 </r>
       <r>   -1.1489    1.0000 </r>
       <r>    1.2759    1.0000 </r>
       <r>    3.4764    1.0000 </r>
       <r>    7.0927    0.0000 </r>
       <r>   11.2601    0.0000 </r>
       <r>   11.8279    0.0000 </r>
       <r>   12.3838    0.0000 </r>
      </set>
     </set>
     <set comment="spin 2">
      <set comment="kpoint 1">
       <r>   -6.1744    1.0000 </r>
       <r>    5.5259    1.0000 </r>
       <r>    5.5259    1.0000 </r>
       <r>    5.5259    1.0000 </r>
       <r>    8.0308    0.0000 </r>
       <r>    8.0308    0.0000 </r>
       <r>    8.0308    0.0000 </r>
       <r>    8.4434    0.0000 </r>
      </set>
      <set comment="kpoint 2">
       <r>   -4.8467    1.0000 </r>
       <r>    0.2954    1.0000 </r>
       <r>    4.5492    1.0000 </r>
       <r>    4.5492    1.0000 </r>
       <r>    7.1322    0.0000 </r>
       <r>    8.9794    0.0000 </r>
       <r>    8.9795    0.0000 </r>
       <r>   13.2065    0.0000 </r>
      </set>
      <set comment="kpoint 3">
       <r>   -4.8467    1.0000 </r>
       <r>    0.2953    1.0000 </r>
       <r>    4.5492    1.0000 </r>
       <r>    4.5492    1.0000 </r>
       <r>    7.1322    0.0000 </r>
       <r>    8.9794    0.0000 </r>
       <r>    8.9794    0.0000 </r>
       <r>   13.2065    0.0000 </r>
      </set>
      <set comment="kpoint 4">
       <r>   -4.8467    1.0000 </r>
       <r>    0.2954    1.0000 </r>
       <r>    4.5492    1.0000 </r>
       <r>    4.5492    1.0000 </r>
       <r>    7.1322    0.0000 </r>
       <r>    8.9794    0.0000 </r>
       <r>    8.9795    0.0000 </r>
       <r>   13.2064    0.0000 </r>
      </set>
      <set comment="kpoint 5">
       <r>   -4.8467    1.0000 </r>
       <r>    0.2954    1.0000 </r>
       <r>    4.5492    1.0000 </r>
       <r>    4.5492    1.0000 </r>
       <r>    7.1322    0.0000 </r>
       <r>    8.9794    0.0000 </r>
       <r>    8.9795    0.0000 </r>
       <r>   13.2065    0.0000 </r>
      </set>
      <set comment="kpoint 6">
       <r>   -4.3338    1.0000 </r>
       <r>    0.5460    1.0000 </r>
       <r>    3.1828    1.0000 </r>
       <r>    3.1828    1.0000 </r>
       <r>    6.2759    0.0000 </r>
       <r>    7.5313    0.0000 </r>
       <r>   12.5923    0.0000 </r>
       <r>   12.5924    0.0000 </r>
      </set>
      <set comment="kpoint 7">
       <r>   -4.3338    1.0000 </r>
       <r>    0.5460    1.0000 </r>
       <r>    3.1828    1.0000 </r>
       <r>    3.1828    1.0000 </r>
       <r>    6.2759    0.0000 </r>
       <r>    7.5313    0.0000 </r>
       <r>   12.5923    0.0000 </r>
       <r>   12.5924    0.0000 </r>
      </set>
      <set comment="kpoint 8">
       <r>   -4.3338    1.0000 </r>
       <r>    0.5460    1.0000 </r>
       <r>    3.1828    1.0000 </r>
       <r>    3.1828    1.0000 </r>
       <r>    6.2759    0.0000 </r>
       <r>    7.5313    0.0000 </r>
       <r>   12.5924    0.0000 </r>
       <r>   12.5924    0.0000 </r>
      </set>
      <set comment="kpoint 9">
       <r>   -3.0330    1.0000 </r>
       <r>   -1.1489    1.0000 </r>
       <r>    1.2759    1.0000 </r>
       <r>    3.4764    1.0000 </r>
       <r>    7.0927    0.0000 </r>
       <r>   11.2601    0.0000 </r>
       <r>   11.8279    0.0000 </r>
       <r>   12.3838    0.0000 </r>
      </set>
      <set comment="kpoint 10">
       <r>   -3.0330    1.0000 </r>
       <r>   -1.1489    1.0000 </r>
       <r>    1.2759    1.0000 </r>
       <r>    3.4764    1.0000 </r>
       <r>    7.0927    0.0000 </r>
       <r>   11.2601    0.0000 </r>
       <r>   11.8279    0.0000 </r>
       <r>   12.3838    0.0000 </r>
      </set>
      <set comment="kpoint 11">
       <r>   -3.0330    1.0000 </r>
       <r>   -1.1489    1.0000 </r>
       <r>    1.2759    1.0000 </r>
       <r>    3.4764    1.0000 </r>
       <r>    7.0927    0.0000 </r>
       <r>   11.2601    0.0000 </r>
       <r>   11.8279    0.0000 </r>
       <r>   12.3838    0.0000 </r>
      </set>
      <set comment="kpoint 12">
       <r>   -3.0330    1.0000 </r>
       <r>   -1.1489    1.0000 </r>
       <r>    1.2759    1.0000 </r>
       <r>    3.4764    1.0000 </r>
       <r>    7.0927    0.0000 </r>
       <r>   11.2601    0.0000 </r>
       <r>   11.8279    0.0000 </r>
       <r>   12.3839    0.0000 </r>
      </set>
      <set comment="kpoint 13">
       <r>   -3.0330    1.0000 </r>
       <r>   -1.1489    1.0000 </r>
       <r>    1.2759    1.0000 </r>
       <r>    3.4764    1.0000 </r>
       <r>    7.0927    0.0000 </r>
       <r>   11.2601    0.0000 </r>
       <r>   11.8279    0.0000 </r>
       <r>   12.3838    0.0000 </r>
      </set>
      <set comment="kpoint 14">
       <r>   -3.0330    1.0000 </r>
       <r>   -1.1489    1.0000 </r>
       <r>    1.2759    1.0000 </r>
       <r>    3.4764    1.0000 </r>
       <r>    7.0927    0.0000 </r>
       <r>   11.2601    0.0000 </r>
       <r>   11.8279    0.0000 </r>
       <r>   12.3838    0.0000 </r>
      </set>
     </set>
    </set>
   </array>
  </eigenvalues>
  <separator name="orbital magnetization" >
   <v name="MAGDIPOLOUT">      0.00000000      0.00000000      0.00000000</v>
  </separator>
  <dos>
   <i name="efermi">      5.52615225 </i>
   <total>
    <array>
     <dimension dim="1">gridpoints</dimension>
     <dimension dim="2">spin</dimension>
     <field>energy</field>
     <field>total</field>
     <field>integrated</field>
     <set>
      <set comment="spin 1">
       <r>    -7.1434     0.0000     0.0000 </r>
       <r>    -7.0724     0.0000     0.0000 </r>
       <r>    -7.0013     0.0000     0.0000 </r>
       <r>    -6.9302     0.0000     0.0000 </r>
       <r>    -6.8592     0.0000     0.0000 </r>
       <r>    -6.7881     0.0000     0.0000 </r>
       <r>    -6.7171     0.0000     0.0000 </r>
       <r>    -6.6460     0.0000     0.0000 </r>
       <r>    -6.5749     0.0000     0.0000 </r>
       <r>    -6.5039     0.0000     0.0000 </r>
       <r>    -6.4328     0.0000     0.0000 </r>
       <r>    -6.3617     0.0000     0.0000 </r>
       <r>    -6.2907     0.0000     0.0000 </r>
       <r>    -6.2196     0.0000     0.0000 </r>
       <r>    -6.1485     0.0001     0.0000 </r>
       <r>    -6.0775     0.0011     0.0000 </r>
       <r>    -6.0064     0.0032     0.0002 </r>
       <r>    -5.9354     0.0065     0.0005 </r>
       <r>    -5.8643     0.0109     0.0011 </r>
       <r>    -5.7932     0.0164     0.0021 </r>
       <r>    -5.7222     0.0231     0.0035 </r>
       <r>    -5.6511     0.0310     0.0054 </r>
       <r>    -5.5800     0.0399     0.0079 </r>
       <r>    -5.5090     0.0501     0.0111 </r>
       <r>    -5.4379     0.0613     0.0151 </r>
       <r>    -5.3668     0.0737     0.0199 </r>
       <r>    -5.2958     0.0873     0.0256 </r>
       <r>    -5.2247     0.1020     0.0323 </r>
       <r>    -5.1537     0.1178     0.0401 </r>
       <r>    -5.0826     0.1348     0.0491 </r>
       <r>    -5.0115     0.1529     0.0593 </r>
       <r>    -4.9405     0.1722     0.0708 </r>
       <r>    -4.8694     0.1926     0.0838 </r>
       <r>    -4.7983     0.3068     0.1026 </r>
       <r>    -4.7273     0.3331     0.1254 </r>
       <r>    -4.6562     0.3576     0.1499 </r>
       <r>    -4.5852     0.3804     0.1761 </r>
       <r>    -4.5141     0.4015     0.2039 </r>
       <r>    -4.4430     0.4208     0.2332 </r>
       <r>    -4.3720     0.4383     0.2637 </r>
       <r>    -4.3009     0.4605     0.2955 </r>
       <r>    -4.2298     0.4872     0.3292 </r>
       <r>    -4.1588     0.5108     0.3647 </r>
       <r>    -4.0877     0.5312     0.4017 </r>
       <r>    -4.0166     0.5485     0.4401 </r>
       <r>    -3.9456     0.5626     0.4796 </r>
       <r>    -3.8745     0.5736     0.5200 </r>
       <r>    -3.8035     0.5815     0.5611 </r>
       <r>    -3.7324     0.5862     0.6026 </r>
       <r>    -3.6613     0.5877     0.6443 </r>
       <r>    -3.5903     0.5861     0.6860 </r>
       <r>    -3.5192     0.5813     0.7275 </r>
       <r>    -3.4481     0.5734     0.7686 </r>
       <r>    -3.3771     0.5623     0.8089 </r>
       <r>    -3.3060     0.5481     0.8484 </r>
       <r>    -3.2349     0.5307     0.8868 </r>
       <r>    -3.1639     0.5102     0.9238 </r>
       <r>    -3.0928     0.4866     0.9592 </r>
       <r>    -3.0218     0.1737     1.0000 </r>
       <r>    -2.9507     0.0000     1.0000 </r>
       <r>    -2.8796     0.0000     1.0000 </r>
       <r>    -2.8086     0.0000     1.0000 </r>
       <r>    -2.7375     0.0000     1.0000 </r>
       <r>    -2.6664     0.0000     1.0000 </r>
       <r>    -2.5954     0.0000     1.0000 </r>
       <r>    -2.5243     0.0000     1.0000 </r>
       <r>    -2.4532     0.0000     1.0000 </r>
       <r>    -2.3822     0.0000     1.0000 </r>
       <r>    -2.3111     0.0000     1.0000 </r>
       <r>    -2.2401     0.0000     1.0000 </r>
       <r>    -2.1690     0.0000     1.0000 </r>
       <r>    -2.0979     0.0000     1.0000 </r>
       <r>    -2.0269     0.0000     1.0000 </r>
       <r>    -1.9558     0.0000     1.0000 </r>
       <r>    -1.8847     0.0000     1.0000 </r>
       <r>    -1.8137     0.0000     1.0000 </r>
       <r>    -1.7426     0.0000     1.0000 </r>
       <r>    -1.6716     0.0000     1.0000 </r>
       <r>    -1.6005     0.0000     1.0000 </r>
       <r>    -1.5294     0.0000     1.0000 </r>
       <r>    -1.4584     0.0000     1.0000 </r>
       <r>    -1.3873     0.0000     1.0000 </r>
       <r>    -1.3162     0.0000     1.0000 </r>
       <r>    -1.2452     0.0000     1.0000 </r>
       <r>    -1.1741     0.0000     1.0000 </r>
       <r>    -1.1030     0.6135     1.0320 </r>
       <r>    -1.0320     0.4733     1.0645 </r>
       <r>    -0.9609     0.5031     1.0992 </r>
       <r>    -0.8899     0.5292     1.1359 </r>
       <r>    -0.8188     0.5515     1.1743 </r>
       <r>    -0.7477     0.5702     1.2142 </r>
       <r>    -0.6767     0.5851     1.2552 </r>
       <r>    -0.6056     0.5963     1.2972 </r>
       <r>    -0.5345     0.6038     1.3399 </r>
       <r>    -0.4635     0.6075     1.3830 </r>
       <r>    -0.3924     0.6075     1.4262 </r>
       <r>    -0.3213     0.6038     1.4692 </r>
       <r>    -0.2503     0.5964     1.5119 </r>
       <r>    -0.1792     0.5853     1.5539 </r>
       <r>    -0.1082     0.5704     1.5950 </r>
       <r>    -0.0371     0.5518     1.6349 </r>
       <r>     0.0340     0.5295     1.6733 </r>
       <r>     0.1050     0.5034     1.7100 </r>
       <r>     0.1761     0.4736     1.7448 </r>
       <r>     0.2472     0.4401     1.7773 </r>
       <r>     0.3182     0.6204     1.8133 </r>
       <r>     0.3893     0.3535     1.8473 </r>
       <r>     0.4604     0.1743     1.8656 </r>
       <r>     0.5314     0.0830     1.8742 </r>
       <r>     0.6025     0.0734     1.8795 </r>
       <r>     0.6735     0.0713     1.8847 </r>
       <r>     0.7446     0.0692     1.8897 </r>
       <r>     0.8157     0.0672     1.8945 </r>
       <r>     0.8867     0.0652     1.8992 </r>
       <r>     0.9578     0.0632     1.9038 </r>
       <r>     1.0289     0.0612     1.9082 </r>
       <r>     1.0999     0.0593     1.9125 </r>
       <r>     1.1710     0.0574     1.9166 </r>
       <r>     1.2420     0.0556     1.9206 </r>
       <r>     1.3131     0.5328     1.9482 </r>
       <r>     1.3842     0.3650     1.9739 </r>
       <r>     1.4552     0.3702     2.0000 </r>
       <r>     1.5263     0.3748     2.0265 </r>
       <r>     1.5974     0.3787     2.0533 </r>
       <r>     1.6684     0.3820     2.0803 </r>
       <r>     1.7395     0.3845     2.1075 </r>
       <r>     1.8106     0.3864     2.1349 </r>
       <r>     1.8816     0.3876     2.1625 </r>
       <r>     1.9527     0.3882     2.1900 </r>
       <r>     2.0237     0.3881     2.2176 </r>
       <r>     2.0948     0.3872     2.2452 </r>
       <r>     2.1659     0.3858     2.2726 </r>
       <r>     2.2369     0.3836     2.3000 </r>
       <r>     2.3080     0.3808     2.3271 </r>
       <r>     2.3791     0.3772     2.3541 </r>
       <r>     2.4501     0.3731     2.3807 </r>
       <r>     2.5212     0.3682     2.4071 </r>
       <r>     2.5923     0.3627     2.4330 </r>
       <r>     2.6633     0.3565     2.4586 </r>
       <r>     2.7344     0.3496     2.4837 </r>
       <r>     2.8054     0.3420     2.5083 </r>
       <r>     2.8765     0.3338     2.5323 </r>
       <r>     2.9476     0.3249     2.5557 </r>
       <r>     3.0186     0.3153     2.5784 </r>
       <r>     3.0897     0.3050     2.6005 </r>
       <r>     3.1608     0.2941     2.6218 </r>
       <r>     3.2318     0.5754     2.6493 </r>
       <r>     3.3029     1.0383     2.7063 </r>
       <r>     3.3740     1.5605     2.7983 </r>
       <r>     3.4450     2.1418     2.9295 </r>
       <r>     3.5161     1.2764     3.0572 </r>
       <r>     3.5871     1.0849     3.1350 </r>
       <r>     3.6582     1.0617     3.2113 </r>
       <r>     3.7293     1.0331     3.2857 </r>
       <r>     3.8003     0.9990     3.3580 </r>
       <r>     3.8714     0.9594     3.4276 </r>
       <r>     3.9425     0.9145     3.4942 </r>
       <r>     4.0135     0.8641     3.5574 </r>
       <r>     4.0846     0.8082     3.6169 </r>
       <r>     4.1556     0.7469     3.6722 </r>
       <r>     4.2267     0.6801     3.7229 </r>
       <r>     4.2978     0.6079     3.7687 </r>
       <r>     4.3688     0.5303     3.8092 </r>
       <r>     4.4399     0.4472     3.8439 </r>
       <r>     4.5110     0.3587     3.8726 </r>
       <r>     4.5820     0.3288     3.8966 </r>
       <r>     4.6531     0.2811     3.9182 </r>
       <r>     4.7242     0.2372     3.9366 </r>
       <r>     4.7952     0.1970     3.9520 </r>
       <r>     4.8663     0.1606     3.9647 </r>
       <r>     4.9373     0.1278     3.9749 </r>
       <r>     5.0084     0.0988     3.9830 </r>
       <r>     5.0795     0.0736     3.9891 </r>
       <r>     5.1505     0.0520     3.9935 </r>
       <r>     5.2216     0.0342     3.9965 </r>
       <r>     5.2927     0.0201     3.9984 </r>
       <r>     5.3637     0.0097     3.9995 </r>
       <r>     5.4348     0.0031     3.9999 </r>
       <r>     5.5059     0.0001     4.0000 </r>
       <r>     5.5769     0.0000     4.0000 </r>
       <r>     5.6480     0.0000     4.0000 </r>
       <r>     5.7190     0.0000     4.0000 </r>
       <r>     5.7901     0.0000     4.0000 </r>
       <r>     5.8612     0.0000     4.0000 </r>
       <r>     5.9322     0.0000     4.0000 </r>
       <r>     6.0033     0.0000     4.0000 </r>
       <r>     6.0744     0.0000     4.0000 </r>
       <r>     6.1454     0.0000     4.0000 </r>
       <r>     6.2165     0.0000     4.0000 </r>
       <r>     6.2876     0.0117     4.0001 </r>
       <r>     6.3586     0.0940     4.0037 </r>
       <r>     6.4297     0.1957     4.0139 </r>
       <r>     6.5007     0.3168     4.0320 </r>
       <r>     6.5718     0.4574     4.0594 </r>
       <r>     6.6429     0.6174     4.0974 </r>
       <r>     6.7139     0.7968     4.1476 </r>
       <r>     6.7850     0.9957     4.2112 </r>
       <r>     6.8561     1.2140     4.2896 </r>
       <r>     6.9271     1.4517     4.3842 </r>
       <r>     6.9982     1.7089     4.4963 </r>
       <r>     7.0692     1.9854     4.6275 </r>
       <r>     7.1403     3.2179     4.9215 </r>
       <r>     7.2114     0.2240     4.9388 </r>
       <r>     7.2824     0.1868     4.9534 </r>
       <r>     7.3535     0.1530     4.9655 </r>
       <r>     7.4246     0.1226     4.9752 </r>
       <r>     7.4956     0.0955     4.9830 </r>
       <r>     7.5667     0.0812     4.9891 </r>
       <r>     7.6378     0.0799     4.9948 </r>
       <r>     7.7088     0.0822     5.0005 </r>
       <r>     7.7799     0.0880     5.0065 </r>
       <r>     7.8509     0.0975     5.0131 </r>
       <r>     7.9220     0.1105     5.0205 </r>
       <r>     7.9931     0.1271     5.0289 </r>
       <r>     8.0641     0.1471     5.0386 </r>
       <r>     8.1352     0.1687     5.0498 </r>
       <r>     8.2063     0.1916     5.0626 </r>
       <r>     8.2773     0.2159     5.0771 </r>
       <r>     8.3484     0.2414     5.0933 </r>
       <r>     8.4195     0.2683     5.1114 </r>
       <r>     8.4905     0.2965     5.1315 </r>
       <r>     8.5616     0.3261     5.1536 </r>
       <r>     8.6326     0.3571     5.1779 </r>
       <r>     8.7037     0.3894     5.2044 </r>
       <r>     8.7748     0.4231     5.2333 </r>
       <r>     8.8458     0.4582     5.2646 </r>
       <r>     8.9169     0.4947     5.2984 </r>
       <r>     8.9880     0.3437     5.3333 </r>
       <r>     9.0590     0.3650     5.3585 </r>
       <r>     9.1301     0.3854     5.3852 </r>
       <r>     9.2012     0.4049     5.4133 </r>
       <r>     9.2722     0.4234     5.4427 </r>
       <r>     9.3433     0.4410     5.4734 </r>
       <r>     9.4143     0.4577     5.5053 </r>
       <r>     9.4854     0.4734     5.5384 </r>
       <r>     9.5565     0.4882     5.5726 </r>
       <r>     9.6275     0.5021     5.6078 </r>
       <r>     9.6986     0.5150     5.6440 </r>
       <r>     9.7697     0.5270     5.6810 </r>
       <r>     9.8407     0.5381     5.7188 </r>
       <r>     9.9118     0.5482     5.7574 </r>
       <r>     9.9828     0.5574     5.7967 </r>
       <r>    10.0539     0.5657     5.8366 </r>
       <r>    10.1250     0.5730     5.8771 </r>
       <r>    10.1960     0.5794     5.9181 </r>
       <r>    10.2671     0.5848     5.9594 </r>
       <r>    10.3382     0.5894     6.0012 </r>
       <r>    10.4092     0.5929     6.0432 </r>
       <r>    10.4803     0.5956     6.0854 </r>
       <r>    10.5514     0.5973     6.1278 </r>
       <r>    10.6224     0.5981     6.1703 </r>
       <r>    10.6935     0.5979     6.2128 </r>
       <r>    10.7645     0.5968     6.2552 </r>
       <r>    10.8356     0.5948     6.2976 </r>
       <r>    10.9067     0.5919     6.3398 </r>
       <r>    10.9777     0.5880     6.3817 </r>
       <r>    11.0488     0.5831     6.4233 </r>
       <r>    11.1199     0.5774     6.4645 </r>
       <r>    11.1909     0.5707     6.5053 </r>
       <r>    11.2620     0.5205     6.5576 </r>
       <r>    11.3331     0.3515     6.5824 </r>
       <r>    11.4041     0.3559     6.6075 </r>
       <r>    11.4752     0.3602     6.6330 </r>
       <r>    11.5462     0.3642     6.6587 </r>
       <r>    11.6173     0.3679     6.6847 </r>
       <r>    11.6884     0.3714     6.7110 </r>
       <r>    11.7594     0.3747     6.7375 </r>
       <r>    11.8305     1.0513     6.7779 </r>
       <r>    11.9016     0.7873     6.8370 </r>
       <r>    11.9726     0.7005     6.8899 </r>
       <r>    12.0437     0.6171     6.9367 </r>
       <r>    12.1148     0.5370     6.9776 </r>
       <r>    12.1858     0.4604     7.0131 </r>
       <r>    12.2569     0.3871     7.0431 </r>
       <r>    12.3279     0.3172     7.0682 </r>
       <r>    12.3990     2.7909     7.1369 </r>
       <r>    12.4701     2.2722     7.3117 </r>
       <r>    12.5411     1.7359     7.4553 </r>
       <r>    12.6122     1.2100     7.5559 </r>
       <r>    12.6833     1.1285     7.6391 </r>
       <r>    12.7543     1.0342     7.7160 </r>
       <r>    12.8254     0.9272     7.7857 </r>
       <r>    12.8964     0.8075     7.8474 </r>
       <r>    12.9675     0.6750     7.9002 </r>
       <r>    13.0386     0.5298     7.9431 </r>
       <r>    13.1096     0.3719     7.9752 </r>
       <r>    13.1807     0.2013     7.9956 </r>
       <r>    13.2518     0.0000     8.0000 </r>
       <r>    13.3228     0.0000     8.0000 </r>
       <r>    13.3939     0.0000     8.0000 </r>
       <r>    13.4650     0.0000     8.0000 </r>
       <r>    13.5360     0.0000     8.0000 </r>
       <r>    13.6071     0.0000     8.0000 </r>
       <r>    13.6781     0.0000     8.0000 </r>
       <r>    13.7492     0.0000     8.0000 </r>
       <r>    13.8203     0.0000     8.0000 </r>
       <r>    13.8913     0.0000     8.0000 </r>
       <r>    13.9624     0.0000     8.0000 </r>
       <r>    14.0335     0.0000     8.0000 </r>
       <r>    14.1045     0.0000     8.0000 </r>
       <r>    14.1756     0.0000     8.0000 </r>
      </set>
      <set comment="spin 2">
       <r>    -7.1434     0.0000     0.0000 </r>
       <r>    -7.0724     0.0000     0.0000 </r>
       <r>    -7.0013     0.0000     0.0000 </r>
       <r>    -6.9302     0.0000     0.0000 </r>
       <r>    -6.8592     0.0000     0.0000 </r>
       <r>    -6.7881     0.0000     0.0000 </r>
       <r>    -6.7171     0.0000     0.0000 </r>
       <r>    -6.6460     0.0000     0.0000 </r>
       <r>    -6.5749     0.0000     0.0000 </r>
       <r>    -6.5039     0.0000     0.0000 </r>
       <r>    -6.4328     0.0000     0.0000 </r>
       <r>    -6.3617     0.0000     0.0000 </r>
       <r>    -6.2907     0.0000     0.0000 </r>
       <r>    -6.2196     0.0000     0.0000 </r>
       <r>    -6.1485     0.0001     0.0000 </r>
       <r>    -6.0775     0.0011     0.0000 </r>
       <r>    -6.0064     0.0032     0.0002 </r>
       <r>    -5.9354     0.0065     0.0005 </r>
       <r>    -5.8643     0.0109     0.0011 </r>
       <r>    -5.7932     0.0164     0.0021 </r>
       <r>    -5.7222     0.0231     0.0035 </r>
       <r>    -5.6511     0.0310     0.0054 </r>
       <r>    -5.5800     0.0399     0.0079 </r>
       <r>    -5.5090     0.0501     0.0111 </r>
       <r>    -5.4379     0.0613     0.0151 </r>
       <r>    -5.3668     0.0737     0.0198 </r>
       <r>    -5.2958     0.0873     0.0256 </r>
       <r>    -5.2247     0.1020     0.0323 </r>
       <r>    -5.1537     0.1178     0.0401 </r>
       <r>    -5.0826     0.1348     0.0491 </r>
       <r>    -5.0115     0.1529     0.0593 </r>
       <r>    -4.9405     0.1722     0.0708 </r>
       <r>    -4.8694     0.1926     0.0838 </r>
       <r>    -4.7983     0.3068     0.1026 </r>
       <r>    -4.7273     0.3331     0.1254 </r>
       <r>    -4.6562     0.3576     0.1499 </r>
       <r>    -4.5852     0.3804     0.1761 </r>
       <r>    -4.5141     0.4015     0.2039 </r>
       <r>    -4.4430     0.4207     0.2332 </r>
       <r>    -4.3720     0.4383     0.2637 </r>
       <r>    -4.3009     0.4605     0.2955 </r>
       <r>    -4.2298     0.4872     0.3292 </r>
       <r>    -4.1588     0.5108     0.3647 </r>
       <r>    -4.0877     0.5312     0.4017 </r>
       <r>    -4.0166     0.5485     0.4401 </r>
       <r>    -3.9456     0.5626     0.4796 </r>
       <r>    -3.8745     0.5736     0.5200 </r>
       <r>    -3.8035     0.5815     0.5611 </r>
       <r>    -3.7324     0.5862     0.6026 </r>
       <r>    -3.6613     0.5877     0.6443 </r>
       <r>    -3.5903     0.5861     0.6860 </r>
       <r>    -3.5192     0.5813     0.7275 </r>
       <r>    -3.4481     0.5734     0.7686 </r>
       <r>    -3.3771     0.5623     0.8089 </r>
       <r>    -3.3060     0.5481     0.8484 </r>
       <r>    -3.2349     0.5307     0.8868 </r>
       <r>    -3.1639     0.5102     0.9238 </r>
       <r>    -3.0928     0.4866     0.9592 </r>
       <r>    -3.0218     0.1737     1.0000 </r>
       <r>    -2.9507     0.0000     1.0000 </r>
       <r>    -2.8796     0.0000     1.0000 </r>
       <r>    -2.8086     0.0000     1.0000 </r>
       <r>    -2.7375     0.0000     1.0000 </r>
       <r>    -2.6664     0.0000     1.0000 </r>
       <r>    -2.5954     0.0000     1.0000 </r>
       <r>    -2.5243     0.0000     1.0000 </r>
       <r>    -2.4532     0.0000     1.0000 </r>
       <r>    -2.3822     0.0000     1.0000 </r>
       <r>    -2.3111     0.0000     1.0000 </r>
       <r>    -2.2401     0.0000     1.0000 </r>
       <r>    -2.1690     0.0000     1.0000 </r>
       <r>    -2.0979     0.0000     1.0000 </r>
       <r>    -2.0269     0.0000     1.0000 </r>
       <r>    -1.9558     0.0000     1.0000 </r>
       <r>    -1.8847     0.0000     1.0000 </r>
       <r>    -1.8137     0.0000     1.0000 </r>
       <r>    -1.7426     0.0000     1.0000 </r>
       <r>    -1.6716     0.0000     1.0000 </r>
       <r>    -1.6005     0.0000     1.0000 </r>
       <r>    -1.5294     0.0000     1.0000 </r>
       <r>    -1.4584     0.0000     1.0000 </r>
       <r>    -1.3873     0.0000     1.0000 </r>
       <r>    -1.3162     0.0000     1.0000 </r>
       <r>    -1.2452     0.0000     1.0000 </r>
       <r>    -1.1741     0.0000     1.0000 </r>
       <r>    -1.1030     0.6134     1.0320 </r>
       <r>    -1.0320     0.4733     1.0644 </r>
       <r>    -0.9609     0.5031     1.0992 </r>
       <r>    -0.8899     0.5292     1.1359 </r>
       <r>    -0.8188     0.5515     1.1743 </r>
       <r>    -0.7477     0.5702     1.2142 </r>
       <r>    -0.6767     0.5851     1.2552 </r>
       <r>    -0.6056     0.5963     1.2972 </r>
       <r>    -0.5345     0.6038     1.3399 </r>
       <r>    -0.4635     0.6075     1.3830 </r>
       <r>    -0.3924     0.6075     1.4261 </r>
       <r>    -0.3213     0.6038     1.4692 </r>
       <r>    -0.2503     0.5964     1.5119 </r>
       <r>    -0.1792     0.5853     1.5539 </r>
       <r>    -0.1082     0.5704     1.5950 </r>
       <r>    -0.0371     0.5518     1.6349 </r>
       <r>     0.0340     0.5295     1.6733 </r>
       <r>     0.1050     0.5034     1.7100 </r>
       <r>     0.1761     0.4736     1.7448 </r>
       <r>     0.2472     0.4401     1.7773 </r>
       <r>     0.3182     0.6204     1.8132 </r>
       <r>     0.3893     0.3535     1.8473 </r>
       <r>     0.4604     0.1744     1.8656 </r>
       <r>     0.5314     0.0830     1.8742 </r>
       <r>     0.6025     0.0734     1.8795 </r>
       <r>     0.6735     0.0713     1.8847 </r>
       <r>     0.7446     0.0692     1.8897 </r>
       <r>     0.8157     0.0672     1.8945 </r>
       <r>     0.8867     0.0652     1.8992 </r>
       <r>     0.9578     0.0632     1.9038 </r>
       <r>     1.0289     0.0612     1.9082 </r>
       <r>     1.0999     0.0593     1.9125 </r>
       <r>     1.1710     0.0574     1.9166 </r>
       <r>     1.2420     0.0556     1.9206 </r>
       <r>     1.3131     0.5328     1.9482 </r>
       <r>     1.3842     0.3650     1.9739 </r>
       <r>     1.4552     0.3702     2.0000 </r>
       <r>     1.5263     0.3748     2.0265 </r>
       <r>     1.5974     0.3787     2.0533 </r>
       <r>     1.6684     0.3820     2.0803 </r>
       <r>     1.7395     0.3845     2.1075 </r>
       <r>     1.8106     0.3864     2.1349 </r>
       <r>     1.8816     0.3876     2.1625 </r>
       <r>     1.9527     0.3882     2.1900 </r>
       <r>     2.0237     0.3881     2.2176 </r>
       <r>     2.0948     0.3872     2.2452 </r>
       <r>     2.1659     0.3858     2.2726 </r>
       <r>     2.2369     0.3836     2.3000 </r>
       <r>     2.3080     0.3808     2.3271 </r>
       <r>     2.3791     0.3772     2.3541 </r>
       <r>     2.4501     0.3731     2.3807 </r>
       <r>     2.5212     0.3682     2.4071 </r>
       <r>     2.5923     0.3627     2.4330 </r>
       <r>     2.6633     0.3565     2.4586 </r>
       <r>     2.7344     0.3496     2.4837 </r>
       <r>     2.8054     0.3420     2.5083 </r>
       <r>     2.8765     0.3338     2.5323 </r>
       <r>     2.9476     0.3249     2.5557 </r>
       <r>     3.0186     0.3153     2.5784 </r>
       <r>     3.0897     0.3050     2.6005 </r>
       <r>     3.1608     0.2941     2.6218 </r>
       <r>     3.2318     0.5753     2.6493 </r>
       <r>     3.3029     1.0383     2.7063 </r>
       <r>     3.3740     1.5604     2.7983 </r>
       <r>     3.4450     2.1417     2.9295 </r>
       <r>     3.5161     1.2764     3.0572 </r>
       <r>     3.5871     1.0849     3.1350 </r>
       <r>     3.6582     1.0617     3.2113 </r>
       <r>     3.7293     1.0331     3.2857 </r>
       <r>     3.8003     0.9990     3.3580 </r>
       <r>     3.8714     0.9594     3.4276 </r>
       <r>     3.9425     0.9145     3.4942 </r>
       <r>     4.0135     0.8641     3.5574 </r>
       <r>     4.0846     0.8082     3.6169 </r>
       <r>     4.1556     0.7469     3.6722 </r>
       <r>     4.2267     0.6801     3.7229 </r>
       <r>     4.2978     0.6080     3.7687 </r>
       <r>     4.3688     0.5303     3.8092 </r>
       <r>     4.4399     0.4472     3.8439 </r>
       <r>     4.5110     0.3587     3.8726 </r>
       <r>     4.5820     0.3288     3.8966 </r>
       <r>     4.6531     0.2812     3.9182 </r>
       <r>     4.7242     0.2372     3.9366 </r>
       <r>     4.7952     0.1970     3.9520 </r>
       <r>     4.8663     0.1606     3.9647 </r>
       <r>     4.9373     0.1278     3.9749 </r>
       <r>     5.0084     0.0988     3.9829 </r>
       <r>     5.0795     0.0736     3.9891 </r>
       <r>     5.1505     0.0520     3.9935 </r>
       <r>     5.2216     0.0342     3.9965 </r>
       <r>     5.2927     0.0201     3.9984 </r>
       <r>     5.3637     0.0097     3.9995 </r>
       <r>     5.4348     0.0031     3.9999 </r>
       <r>     5.5059     0.0001     4.0000 </r>
       <r>     5.5769     0.0000     4.0000 </r>
       <r>     5.6480     0.0000     4.0000 </r>
       <r>     5.7190     0.0000     4.0000 </r>
       <r>     5.7901     0.0000     4.0000 </r>
       <r>     5.8612     0.0000     4.0000 </r>
       <r>     5.9322     0.0000     4.0000 </r>
       <r>     6.0033     0.0000     4.0000 </r>
       <r>     6.0744     0.0000     4.0000 </r>
       <r>     6.1454     0.0000     4.0000 </r>
       <r>     6.2165     0.0000     4.0000 </r>
       <r>     6.2876     0.0117     4.0001 </r>
       <r>     6.3586     0.0940     4.0037 </r>
       <r>     6.4297     0.1957     4.0139 </r>
       <r>     6.5007     0.3168     4.0320 </r>
       <r>     6.5718     0.4574     4.0594 </r>
       <r>     6.6429     0.6174     4.0975 </r>
       <r>     6.7139     0.7969     4.1476 </r>
       <r>     6.7850     0.9957     4.2112 </r>
       <r>     6.8561     1.2140     4.2896 </r>
       <r>     6.9271     1.4517     4.3842 </r>
       <r>     6.9982     1.7089     4.4964 </r>
       <r>     7.0692     1.9854     4.6275 </r>
       <r>     7.1403     3.2179     4.9215 </r>
       <r>     7.2114     0.2240     4.9388 </r>
       <r>     7.2824     0.1868     4.9534 </r>
       <r>     7.3535     0.1530     4.9655 </r>
       <r>     7.4246     0.1226     4.9752 </r>
       <r>     7.4956     0.0955     4.9830 </r>
       <r>     7.5667     0.0812     4.9891 </r>
       <r>     7.6378     0.0799     4.9948 </r>
       <r>     7.7088     0.0822     5.0005 </r>
       <r>     7.7799     0.0880     5.0065 </r>
       <r>     7.8509     0.0975     5.0131 </r>
       <r>     7.9220     0.1105     5.0205 </r>
       <r>     7.9931     0.1271     5.0289 </r>
       <r>     8.0641     0.1471     5.0386 </r>
       <r>     8.1352     0.1687     5.0498 </r>
       <r>     8.2063     0.1916     5.0626 </r>
       <r>     8.2773     0.2159     5.0771 </r>
       <r>     8.3484     0.2414     5.0933 </r>
       <r>     8.4195     0.2683     5.1114 </r>
       <r>     8.4905     0.2965     5.1315 </r>
       <r>     8.5616     0.3261     5.1536 </r>
       <r>     8.6326     0.3571     5.1779 </r>
       <r>     8.7037     0.3894     5.2044 </r>
       <r>     8.7748     0.4231     5.2333 </r>
       <r>     8.8458     0.4582     5.2646 </r>
       <r>     8.9169     0.4946     5.2984 </r>
       <r>     8.9880     0.3437     5.3333 </r>
       <r>     9.0590     0.3650     5.3585 </r>
       <r>     9.1301     0.3854     5.3852 </r>
       <r>     9.2012     0.4049     5.4133 </r>
       <r>     9.2722     0.4234     5.4427 </r>
       <r>     9.3433     0.4410     5.4734 </r>
       <r>     9.4143     0.4577     5.5053 </r>
       <r>     9.4854     0.4734     5.5384 </r>
       <r>     9.5565     0.4882     5.5726 </r>
       <r>     9.6275     0.5021     5.6078 </r>
       <r>     9.6986     0.5150     5.6440 </r>
       <r>     9.7697     0.5270     5.6810 </r>
       <r>     9.8407     0.5381     5.7188 </r>
       <r>     9.9118     0.5482     5.7574 </r>
       <r>     9.9828     0.5574     5.7967 </r>
       <r>    10.0539     0.5657     5.8366 </r>
       <r>    10.1250     0.5730     5.8771 </r>
       <r>    10.1960     0.5794     5.9181 </r>
       <r>    10.2671     0.5848     5.9594 </r>
       <r>    10.3382     0.5894     6.0012 </r>
       <r>    10.4092     0.5929     6.0432 </r>
       <r>    10.4803     0.5956     6.0854 </r>
       <r>    10.5514     0.5973     6.1278 </r>
       <r>    10.6224     0.5981     6.1703 </r>
       <r>    10.6935     0.5979     6.2128 </r>
       <r>    10.7645     0.5968     6.2552 </r>
       <r>    10.8356     0.5948     6.2976 </r>
       <r>    10.9067     0.5919     6.3398 </r>
       <r>    10.9777     0.5880     6.3817 </r>
       <r>    11.0488     0.5831     6.4233 </r>
       <r>    11.1199     0.5774     6.4645 </r>
       <r>    11.1909     0.5707     6.5053 </r>
       <r>    11.2620     0.5205     6.5576 </r>
       <r>    11.3331     0.3515     6.5824 </r>
       <r>    11.4041     0.3559     6.6075 </r>
       <r>    11.4752     0.3602     6.6330 </r>
       <r>    11.5462     0.3642     6.6587 </r>
       <r>    11.6173     0.3679     6.6847 </r>
       <r>    11.6884     0.3714     6.7110 </r>
       <r>    11.7594     0.3747     6.7375 </r>
       <r>    11.8305     1.0513     6.7779 </r>
       <r>    11.9016     0.7873     6.8370 </r>
       <r>    11.9726     0.7005     6.8899 </r>
       <r>    12.0437     0.6170     6.9367 </r>
       <r>    12.1148     0.5370     6.9776 </r>
       <r>    12.1858     0.4604     7.0131 </r>
       <r>    12.2569     0.3871     7.0432 </r>
       <r>    12.3279     0.3172     7.0682 </r>
       <r>    12.3990     2.7911     7.1368 </r>
       <r>    12.4701     2.2725     7.3117 </r>
       <r>    12.5411     1.7361     7.4553 </r>
       <r>    12.6122     1.2101     7.5559 </r>
       <r>    12.6833     1.1285     7.6391 </r>
       <r>    12.7543     1.0342     7.7160 </r>
       <r>    12.8254     0.9272     7.7858 </r>
       <r>    12.8964     0.8075     7.8475 </r>
       <r>    12.9675     0.6750     7.9002 </r>
       <r>    13.0386     0.5298     7.9431 </r>
       <r>    13.1096     0.3718     7.9752 </r>
       <r>    13.1807     0.2012     7.9957 </r>
       <r>    13.2518     0.0000     8.0000 </r>
       <r>    13.3228     0.0000     8.0000 </r>
       <r>    13.3939     0.0000     8.0000 </r>
       <r>    13.4650     0.0000     8.0000 </r>
       <r>    13.5360     0.0000     8.0000 </r>
       <r>    13.6071     0.0000     8.0000 </r>
       <r>    13.6781     0.0000     8.0000 </r>
       <r>    13.7492     0.0000     8.0000 </r>
       <r>    13.8203     0.0000     8.0000 </r>
       <r>    13.8913     0.0000     8.0000 </r>
       <r>    13.9624     0.0000     8.0000 </r>
       <r>    14.0335     0.0000     8.0000 </r>
       <r>    14.1045     0.0000     8.0000 </r>
       <r>    14.1756     0.0000     8.0000 </r>
      </set>
     </set>
    </array>
   </total>
   <partial>
    <array>
     <dimension dim="1">gridpoints</dimension>
     <dimension dim="2">spin</dimension>
     <dimension dim="3">ion</dimension>
     <field>energy</field>
     <field>    s</field>
     <field>   py</field>
     <field>   pz</field>
     <field>   px</field>
     <field>  dxy</field>
     <field>  dyz</field>
     <field>  dz2</field>
     <field>  dxz</field>
     <field>x2-y2</field>
     <set>
      <set comment="ion 1">
       <set comment="spin 1">
        <r>    -7.1434     0.0000     0.0000     0.0000     0.0000     0.0000     0.0000     0.0000     0.0000     0.0000 </r>
        <r>    -7.0724     0.0000     0.0000     0.0000     0.0000     0.0000     0.0000     0.0000     0.0000     0.0000 </r>
        <r>    -7.0013     0.0000     0.0000     0.0000     0.0000     0.0000     0.0000     0.0000     0.0000     0.0000 </r>
        <r>    -6.9302     0.0000     0.0000     0.0000     0.0000     0.0000     0.0000     0.0000     0.0000     0.0000 </r>
        <r>    -6.8592     0.0000     0.0000     0.0000     0.0000     0.0000     0.0000     0.0000     0.0000     0.0000 </r>
        <r>    -6.7881     0.0000     0.0000     0.0000     0.0000     0.0000     0.0000     0.0000     0.0000     0.0000 </r>
        <r>    -6.7171     0.0000     0.0000     0.0000     0.0000     0.0000     0.0000     0.0000     0.0000     0.0000 </r>
        <r>    -6.6460     0.0000     0.0000     0.0000     0.0000     0.0000     0.0000     0.0000     0.0000     0.0000 </r>
        <r>    -6.5749     0.0000     0.0000     0.0000     0.0000     0.0000     0.0000     0.0000     0.0000     0.0000 </r>
        <r>    -6.5039     0.0000     0.0000     0.0000     0.0000     0.0000     0.0000     0.0000     0.0000     0.0000 </r>
        <r>    -6.4328     0.0000     0.0000     0.0000     0.0000     0.0000     0.0000     0.0000     0.0000     0.0000 </r>
        <r>    -6.3617     0.0000     0.0000     0.0000     0.0000     0.0000     0.0000     0.0000     0.0000     0.0000 </r>
        <r>    -6.2907     0.0000     0.0000     0.0000     0.0000     0.0000     0.0000     0.0000     0.0000     0.0000 </r>
        <r>    -6.2196     0.0000     0.0000     0.0000     0.0000     0.0000     0.0000     0.0000     0.0000     0.0000 </r>
        <r>    -6.1485     0.0000     0.0000     0.0000     0.0000     0.0000     0.0000     0.0000     0.0000     0.0000 </r>
        <r>    -6.0775     0.0002     0.0000     0.0000     0.0000     0.0000     0.0000     0.0000     0.0000     0.0000 </r>
        <r>    -6.0064     0.0007     0.0000     0.0000     0.0000     0.0000     0.0000     0.0000     0.0000     0.0000 </r>
        <r>    -5.9354     0.0013     0.0000     0.0000     0.0000     0.0000     0.0000     0.0000     0.0000     0.0000 </r>
        <r>    -5.8643     0.0023     0.0000     0.0000     0.0000     0.0000     0.0000     0.0000     0.0000     0.0000 </r>
        <r>    -5.7932     0.0034     0.0001     0.0001     0.0001     0.0000     0.0000     0.0000     0.0000     0.0000 </r>
        <r>    -5.7222     0.0048     0.0001     0.0001     0.0001     0.0000     0.0000     0.0000     0.0000     0.0000 </r>
        <r>    -5.6511     0.0064     0.0001     0.0001     0.0001     0.0000     0.0000     0.0000     0.0000     0.0000 </r>
        <r>    -5.5800     0.0083     0.0001     0.0002     0.0001     0.0000     0.0000     0.0000     0.0000     0.0000 </r>
        <r>    -5.5090     0.0104     0.0002     0.0002     0.0002     0.0000     0.0000     0.0000     0.0000     0.0000 </r>
        <r>    -5.4379     0.0127     0.0002     0.0003     0.0002     0.0000     0.0000     0.0000     0.0000     0.0000 </r>
        <r>    -5.3668     0.0153     0.0003     0.0003     0.0002     0.0000     0.0000     0.0000     0.0000     0.0000 </r>
        <r>    -5.2958     0.0181     0.0003     0.0004     0.0003     0.0000     0.0000     0.0000     0.0000     0.0000 </r>
        <r>    -5.2247     0.0211     0.0004     0.0004     0.0003     0.0000     0.0000     0.0000     0.0000     0.0000 </r>
        <r>    -5.1537     0.0244     0.0004     0.0005     0.0004     0.0000     0.0000     0.0000     0.0000     0.0000 </r>
        <r>    -5.0826     0.0279     0.0005     0.0006     0.0005     0.0000     0.0000     0.0000     0.0000     0.0000 </r>
        <r>    -5.0115     0.0317     0.0006     0.0006     0.0005     0.0000     0.0000     0.0000     0.0000     0.0000 </r>
        <r>    -4.9405     0.0357     0.0006     0.0007     0.0006     0.0000     0.0000     0.0000     0.0000     0.0000 </r>
        <r>    -4.8694     0.0399     0.0007     0.0008     0.0007     0.0000     0.0000     0.0000     0.0000     0.0000 </r>
        <r>    -4.7983     0.0635     0.0012     0.0015     0.0015     0.0000     0.0000     0.0000     0.0000     0.0000 </r>
        <r>    -4.7273     0.0690     0.0015     0.0018     0.0017     0.0000     0.0000     0.0000     0.0000     0.0000 </r>
        <r>    -4.6562     0.0742     0.0017     0.0020     0.0019     0.0000     0.0000     0.0000     0.0000     0.0000 </r>
        <r>    -4.5852     0.0790     0.0019     0.0022     0.0021     0.0000     0.0000     0.0000     0.0000     0.0000 </r>
        <r>    -4.5141     0.0834     0.0022     0.0024     0.0023     0.0000     0.0000     0.0000     0.0000     0.0000 </r>
        <r>    -4.4430     0.0875     0.0024     0.0026     0.0025     0.0000     0.0000     0.0000     0.0000     0.0000 </r>
        <r>    -4.3720     0.0912     0.0026     0.0027     0.0027     0.0000     0.0000     0.0000     0.0000     0.0000 </r>
        <r>    -4.3009     0.0958     0.0028     0.0029     0.0029     0.0000     0.0000     0.0000     0.0000     0.0000 </r>
        <r>    -4.2298     0.1014     0.0031     0.0031     0.0031     0.0000     0.0000     0.0000     0.0000     0.0000 </r>
        <r>    -4.1588     0.1064     0.0033     0.0033     0.0033     0.0000     0.0000     0.0000     0.0000     0.0000 </r>
        <r>    -4.0877     0.1106     0.0035     0.0035     0.0035     0.0000     0.0000     0.0000     0.0000     0.0000 </r>
        <r>    -4.0166     0.1143     0.0037     0.0036     0.0036     0.0000     0.0000     0.0000     0.0000     0.0000 </r>
        <r>    -3.9456     0.1173     0.0039     0.0038     0.0037     0.0000     0.0000     0.0000     0.0000     0.0000 </r>
        <r>    -3.8745     0.1196     0.0040     0.0039     0.0039     0.0000     0.0000     0.0000     0.0000     0.0000 </r>
        <r>    -3.8035     0.1212     0.0041     0.0039     0.0040     0.0000     0.0000     0.0000     0.0000     0.0000 </r>
        <r>    -3.7324     0.1223     0.0042     0.0040     0.0041     0.0000     0.0000     0.0000     0.0000     0.0000 </r>
        <r>    -3.6613     0.1226     0.0043     0.0041     0.0041     0.0000     0.0000     0.0000     0.0000     0.0000 </r>
        <r>    -3.5903     0.1223     0.0043     0.0041     0.0042     0.0000     0.0000     0.0000     0.0000     0.0000 </r>
        <r>    -3.5192     0.1214     0.0043     0.0041     0.0042     0.0000     0.0000     0.0000     0.0000     0.0000 </r>
        <r>    -3.4481     0.1198     0.0043     0.0041     0.0042     0.0000     0.0000     0.0000     0.0000     0.0000 </r>
        <r>    -3.3771     0.1175     0.0042     0.0040     0.0042     0.0000     0.0000     0.0000     0.0000     0.0000 </r>
        <r>    -3.3060     0.1146     0.0042     0.0040     0.0042     0.0000     0.0000     0.0000     0.0000     0.0000 </r>
        <r>    -3.2349     0.1111     0.0041     0.0039     0.0041     0.0000     0.0000     0.0000     0.0000     0.0000 </r>
        <r>    -3.1639     0.1068     0.0039     0.0038     0.0041     0.0000     0.0000     0.0000     0.0000     0.0000 </r>
        <r>    -3.0928     0.1020     0.0038     0.0037     0.0040     0.0000     0.0000     0.0000     0.0000     0.0000 </r>
        <r>    -3.0218     0.0368     0.0016     0.0015     0.0015     0.0000     0.0000     0.0000     0.0000     0.0000 </r>
        <r>    -2.9507     0.0000     0.0000     0.0000     0.0000     0.0000     0.0000     0.0000     0.0000     0.0000 </r>
        <r>    -2.8796     0.0000     0.0000     0.0000     0.0000     0.0000     0.0000     0.0000     0.0000     0.0000 </r>
        <r>    -2.8086     0.0000     0.0000     0.0000     0.0000     0.0000     0.0000     0.0000     0.0000     0.0000 </r>
        <r>    -2.7375     0.0000     0.0000     0.0000     0.0000     0.0000     0.0000     0.0000     0.0000     0.0000 </r>
        <r>    -2.6664     0.0000     0.0000     0.0000     0.0000     0.0000     0.0000     0.0000     0.0000     0.0000 </r>
        <r>    -2.5954     0.0000     0.0000     0.0000     0.0000     0.0000     0.0000     0.0000     0.0000     0.0000 </r>
        <r>    -2.5243     0.0000     0.0000     0.0000     0.0000     0.0000     0.0000     0.0000     0.0000     0.0000 </r>
        <r>    -2.4532     0.0000     0.0000     0.0000     0.0000     0.0000     0.0000     0.0000     0.0000     0.0000 </r>
        <r>    -2.3822     0.0000     0.0000     0.0000     0.0000     0.0000     0.0000     0.0000     0.0000     0.0000 </r>
        <r>    -2.3111     0.0000     0.0000     0.0000     0.0000     0.0000     0.0000     0.0000     0.0000     0.0000 </r>
        <r>    -2.2401     0.0000     0.0000     0.0000     0.0000     0.0000     0.0000     0.0000     0.0000     0.0000 </r>
        <r>    -2.1690     0.0000     0.0000     0.0000     0.0000     0.0000     0.0000     0.0000     0.0000     0.0000 </r>
        <r>    -2.0979     0.0000     0.0000     0.0000     0.0000     0.0000     0.0000     0.0000     0.0000     0.0000 </r>
[...]
       </set>
       <set comment="band 5">
        <r>  0.1722  0.0000  0.0336  0.0000  0.0000  0.0000  0.0000  0.0000  0.0000 </r>
        <r>  0.1722  0.0000  0.0336  0.0000  0.0000  0.0000  0.0000  0.0000  0.0000 </r>
       </set>
       <set comment="band 6">
        <r>  0.0000  0.0190  0.0000  0.0963  0.0000  0.0000  0.0000  0.0000  0.0000 </r>
        <r>  0.0000  0.0190  0.0000  0.0963  0.0000  0.0000  0.0000  0.0000  0.0000 </r>
       </set>
       <set comment="band 7">
        <r>  0.0000  0.0963  0.0000  0.0190  0.0000  0.0000  0.0000  0.0000  0.0000 </r>
        <r>  0.0000  0.0963  0.0000  0.0190  0.0000  0.0000  0.0000  0.0000  0.0000 </r>
       </set>
       <set comment="band 8">
        <r>  0.0241  0.0000  0.1396  0.0000  0.0000  0.0000  0.0000  0.0000  0.0000 </r>
        <r>  0.0241  0.0000  0.1396  0.0000  0.0000  0.0000  0.0000  0.0000  0.0000 </r>
       </set>
      </set>
      <set comment="kpoint 5">
       <set comment="band 1">
        <r>  0.2081  0.0026  0.0013  0.0079  0.0000  0.0000  0.0000  0.0000  0.0000 </r>
        <r>  0.2081  0.0026  0.0013  0.0079  0.0000  0.0000  0.0000  0.0000  0.0000 </r>
       </set>
       <set comment="band 2">
        <r>  0.1073  0.0220  0.0110  0.0659  0.0000  0.0000  0.0000  0.0000  0.0000 </r>
        <r>  0.1073  0.0220  0.0110  0.0659  0.0000  0.0000  0.0000  0.0000  0.0000 </r>
       </set>
       <set comment="band 3">
        <r>  0.0000  0.0794  0.0611  0.0695  0.0000  0.0000  0.0000  0.0000  0.0000 </r>
        <r>  0.0000  0.0794  0.0611  0.0695  0.0000  0.0000  0.0000  0.0000  0.0000 </r>
       </set>
       <set comment="band 4">
        <r>  0.0000  0.0839  0.1256  0.0005  0.0000  0.0000  0.0000  0.0000  0.0000 </r>
        <r>  0.0000  0.0839  0.1256  0.0005  0.0000  0.0000  0.0000  0.0000  0.0000 </r>
       </set>
       <set comment="band 5">
        <r>  0.1722  0.0075  0.0037  0.0224  0.0000  0.0000  0.0000  0.0000  0.0000 </r>
        <r>  0.1722  0.0075  0.0037  0.0224  0.0000  0.0000  0.0000  0.0000  0.0000 </r>
       </set>
       <set comment="band 6">
        <r>  0.0000  0.0004  0.1007  0.0141  0.0000  0.0000  0.0000  0.0000  0.0000 </r>
        <r>  0.0000  0.0004  0.1007  0.0141  0.0000  0.0000  0.0000  0.0000  0.0000 </r>
       </set>
       <set comment="band 7">
        <r>  0.0000  0.0892  0.0017  0.0243  0.0000  0.0000  0.0000  0.0000  0.0000 </r>
        <r>  0.0000  0.0892  0.0017  0.0243  0.0000  0.0000  0.0000  0.0000  0.0000 </r>
       </set>
       <set comment="band 8">
        <r>  0.0241  0.0310  0.0155  0.0930  0.0000  0.0000  0.0000  0.0000  0.0000 </r>
        <r>  0.0241  0.0310  0.0155  0.0931  0.0000  0.0000  0.0000  0.0000  0.0000 </r>
       </set>
      </set>
      <set comment="kpoint 6">
       <set comment="band 1">
        <r>  0.2017  0.0130  0.0065  0.0000  0.0000  0.0000  0.0000  0.0000  0.0000 </r>
        <r>  0.2017  0.0130  0.0065  0.0000  0.0000  0.0000  0.0000  0.0000  0.0000 </r>
       </set>
       <set comment="band 2">
        <r>  0.1755  0.0492  0.0246  0.0000  0.0000  0.0000  0.0000  0.0000  0.0000 </r>
        <r>  0.1755  0.0492  0.0246  0.0000  0.0000  0.0000  0.0000  0.0000  0.0000 </r>
       </set>
       <set comment="band 3">
        <r>  0.0000  0.0409  0.0817  0.0697  0.0000  0.0000  0.0000  0.0000  0.0000 </r>
        <r>  0.0000  0.0409  0.0817  0.0697  0.0000  0.0000  0.0000  0.0000  0.0000 </r>
       </set>
       <set comment="band 4">
        <r>  0.0000  0.0232  0.0465  0.1226  0.0000  0.0000  0.0000  0.0000  0.0000 </r>
        <r>  0.0000  0.0232  0.0465  0.1226  0.0000  0.0000  0.0000  0.0000  0.0000 </r>
       </set>
       <set comment="band 5">
        <r>  0.0491  0.0392  0.0196  0.0000  0.0000  0.0000  0.0000  0.0000  0.0000 </r>
        <r>  0.0491  0.0392  0.0196  0.0000  0.0000  0.0000  0.0000  0.0000  0.0000 </r>
       </set>
       <set comment="band 6">
        <r>  0.0450  0.0226  0.0113  0.0000  0.0000  0.0000  0.0000  0.0000  0.0000 </r>
        <r>  0.0450  0.0226  0.0113  0.0000  0.0000  0.0000  0.0000  0.0000  0.0000 </r>
       </set>
       <set comment="band 7">
        <r>  0.0000  0.0303  0.0606  0.0758  0.0000  0.0000  0.0000  0.0000  0.0000 </r>
        <r>  0.0000  0.0303  0.0606  0.0758  0.0000  0.0000  0.0000  0.0000  0.0000 </r>
       </set>
       <set comment="band 8">
        <r>  0.0000  0.0253  0.0505  0.0909  0.0000  0.0000  0.0000  0.0000  0.0000 </r>
        <r>  0.0000  0.0253  0.0505  0.0909  0.0000  0.0000  0.0000  0.0000  0.0000 </r>
       </set>
      </set>
      <set comment="kpoint 7">
       <set comment="band 1">
        <r>  0.2017  0.0032  0.0065  0.0097  0.0000  0.0000  0.0000  0.0000  0.0000 </r>
        <r>  0.2017  0.0032  0.0065  0.0097  0.0000  0.0000  0.0000  0.0000  0.0000 </r>
       </set>
       <set comment="band 2">
        <r>  0.1755  0.0123  0.0246  0.0369  0.0000  0.0000  0.0000  0.0000  0.0000 </r>
        <r>  0.1755  0.0123  0.0246  0.0369  0.0000  0.0000  0.0000  0.0000  0.0000 </r>
       </set>
       <set comment="band 3">
        <r>  0.0000  0.0360  0.1229  0.0334  0.0000  0.0000  0.0000  0.0000  0.0000 </r>
        <r>  0.0000  0.0120  0.1229  0.0574  0.0000  0.0000  0.0000  0.0000  0.0000 </r>
       </set>
       <set comment="band 4">
        <r>  0.0000  0.1243  0.0053  0.0627  0.0000  0.0000  0.0000  0.0000  0.0000 </r>
        <r>  0.0000  0.1483  0.0053  0.0387  0.0000  0.0000  0.0000  0.0000  0.0000 </r>
       </set>
       <set comment="band 5">
        <r>  0.0491  0.0098  0.0196  0.0294  0.0000  0.0000  0.0000  0.0000  0.0000 </r>
        <r>  0.0491  0.0098  0.0196  0.0294  0.0000  0.0000  0.0000  0.0000  0.0000 </r>
       </set>
       <set comment="band 6">
        <r>  0.0450  0.0057  0.0113  0.0170  0.0000  0.0000  0.0000  0.0000  0.0000 </r>
        <r>  0.0450  0.0057  0.0113  0.0170  0.0000  0.0000  0.0000  0.0000  0.0000 </r>
       </set>
       <set comment="band 7">
        <r>  0.0000  0.0065  0.0940  0.0662  0.0000  0.0000  0.0000  0.0000  0.0000 </r>
        <r>  0.0000  0.0605  0.0940  0.0121  0.0000  0.0000  0.0000  0.0000  0.0000 </r>
       </set>
       <set comment="band 8">
        <r>  0.0000  0.1324  0.0171  0.0172  0.0000  0.0000  0.0000  0.0000  0.0000 </r>
        <r>  0.0000  0.0784  0.0171  0.0712  0.0000  0.0000  0.0000  0.0000  0.0000 </r>
       </set>
      </set>
      <set comment="kpoint 8">
       <set comment="band 1">
        <r>  0.2017  0.0032  0.0065  0.0097  0.0000  0.0000  0.0000  0.0000  0.0000 </r>
        <r>  0.2017  0.0032  0.0065  0.0097  0.0000  0.0000  0.0000  0.0000  0.0000 </r>
       </set>
       <set comment="band 2">
        <r>  0.1755  0.0123  0.0246  0.0369  0.0000  0.0000  0.0000  0.0000  0.0000 </r>
        <r>  0.1755  0.0123  0.0246  0.0369  0.0000  0.0000  0.0000  0.0000  0.0000 </r>
       </set>
       <set comment="band 3">
        <r>  0.0000  0.0229  0.0924  0.0770  0.0000  0.0000  0.0000  0.0000  0.0000 </r>
        <r>  0.0000  0.0902  0.0924  0.0096  0.0000  0.0000  0.0000  0.0000  0.0000 </r>
       </set>
       <set comment="band 4">
        <r>  0.0000  0.1373  0.0358  0.0192  0.0000  0.0000  0.0000  0.0000  0.0000 </r>
        <r>  0.0000  0.0700  0.0358  0.0865  0.0000  0.0000  0.0000  0.0000  0.0000 </r>
       </set>
       <set comment="band 5">
        <r>  0.0491  0.0098  0.0196  0.0294  0.0000  0.0000  0.0000  0.0000  0.0000 </r>
        <r>  0.0491  0.0098  0.0196  0.0294  0.0000  0.0000  0.0000  0.0000  0.0000 </r>
       </set>
       <set comment="band 6">
        <r>  0.0450  0.0057  0.0113  0.0170  0.0000  0.0000  0.0000  0.0000  0.0000 </r>
        <r>  0.0450  0.0057  0.0113  0.0170  0.0000  0.0000  0.0000  0.0000  0.0000 </r>
       </set>
       <set comment="band 7">
        <r>  0.0000  0.0321  0.0988  0.0358  0.0000  0.0000  0.0000  0.0000  0.0000 </r>
        <r>  0.0000  0.0317  0.0988  0.0362  0.0000  0.0000  0.0000  0.0000  0.0000 </r>
       </set>
       <set comment="band 8">
        <r>  0.0000  0.1068  0.0123  0.0476  0.0000  0.0000  0.0000  0.0000  0.0000 </r>
        <r>  0.0000  0.1073  0.0123  0.0471  0.0000  0.0000  0.0000  0.0000  0.0000 </r>
       </set>
      </set>
      <set comment="kpoint 9">
       <set comment="band 1">
        <r>  0.2118  0.0077  0.0038  0.0146  0.0000  0.0000  0.0000  0.0000  0.0000 </r>
        <r>  0.2118  0.0077  0.0038  0.0146  0.0000  0.0000  0.0000  0.0000  0.0000 </r>
       </set>
       <set comment="band 2">
        <r>  0.1762  0.0267  0.0134  0.0190  0.0000  0.0000  0.0000  0.0000  0.0000 </r>
        <r>  0.1762  0.0267  0.0134  0.0190  0.0000  0.0000  0.0000  0.0000  0.0000 </r>
       </set>
       <set comment="band 3">
        <r>  0.0033  0.0384  0.0192  0.0910  0.0000  0.0000  0.0000  0.0000  0.0000 </r>
        <r>  0.0033  0.0384  0.0192  0.0910  0.0000  0.0000  0.0000  0.0000  0.0000 </r>
       </set>
       <set comment="band 4">
        <r>  0.0000  0.0659  0.1318  0.0000  0.0000  0.0000  0.0000  0.0000  0.0000 </r>
        <r>  0.0000  0.0659  0.1318  0.0000  0.0000  0.0000  0.0000  0.0000  0.0000 </r>
       </set>
       <set comment="band 5">
        <r>  0.0542  0.0304  0.0152  0.0021  0.0000  0.0000  0.0000  0.0000  0.0000 </r>
        <r>  0.0542  0.0304  0.0152  0.0021  0.0000  0.0000  0.0000  0.0000  0.0000 </r>
       </set>
       <set comment="band 6">
        <r>  0.0084  0.0017  0.0009  0.0765  0.0000  0.0000  0.0000  0.0000  0.0000 </r>
        <r>  0.0084  0.0017  0.0009  0.0765  0.0000  0.0000  0.0000  0.0000  0.0000 </r>
       </set>
       <set comment="band 7">
        <r>  0.0000  0.0509  0.1018  0.0000  0.0000  0.0000  0.0000  0.0000  0.0000 </r>
        <r>  0.0000  0.0509  0.1018  0.0000  0.0000  0.0000  0.0000  0.0000  0.0000 </r>
       </set>
       <set comment="band 8">
        <r>  0.0425  0.0823  0.0411  0.0062  0.0000  0.0000  0.0000  0.0000  0.0000 </r>
        <r>  0.0428  0.0821  0.0410  0.0061  0.0000  0.0000  0.0000  0.0000  0.0000 </r>
       </set>
      </set>
      <set comment="kpoint 10">
       <set comment="band 1">
        <r>  0.2118  0.0031  0.0136  0.0094  0.0000  0.0000  0.0000  0.0000  0.0000 </r>
        <r>  0.2118  0.0031  0.0136  0.0094  0.0000  0.0000  0.0000  0.0000  0.0000 </r>
       </set>
       <set comment="band 2">
        <r>  0.1762  0.0083  0.0260  0.0248  0.0000  0.0000  0.0000  0.0000  0.0000 </r>
        <r>  0.1762  0.0083  0.0260  0.0248  0.0000  0.0000  0.0000  0.0000  0.0000 </r>
       </set>
       <set comment="band 3">
        <r>  0.0033  0.0172  0.0798  0.0515  0.0000  0.0000  0.0000  0.0000  0.0000 </r>
        <r>  0.0033  0.0172  0.0798  0.0515  0.0000  0.0000  0.0000  0.0000  0.0000 </r>
       </set>
       <set comment="band 4">
        <r>  0.0000  0.1483  0.0000  0.0494  0.0000  0.0000  0.0000  0.0000  0.0000 </r>
        <r>  0.0000  0.1483  0.0000  0.0494  0.0000  0.0000  0.0000  0.0000  0.0000 </r>
       </set>
       <set comment="band 5">
        <r>  0.0542  0.0078  0.0166  0.0233  0.0000  0.0000  0.0000  0.0000  0.0000 </r>
        <r>  0.0542  0.0078  0.0166  0.0233  0.0000  0.0000  0.0000  0.0000  0.0000 </r>
       </set>
       <set comment="band 6">
        <r>  0.0084  0.0068  0.0518  0.0204  0.0000  0.0000  0.0000  0.0000  0.0000 </r>
        <r>  0.0084  0.0068  0.0518  0.0204  0.0000  0.0000  0.0000  0.0000  0.0000 </r>
       </set>
       <set comment="band 7">
        <r>  0.0000  0.1145  0.0000  0.0382  0.0000  0.0000  0.0000  0.0000  0.0000 </r>
        <r>  0.0000  0.1145  0.0000  0.0382  0.0000  0.0000  0.0000  0.0000  0.0000 </r>
       </set>
       <set comment="band 8">
        <r>  0.0426  0.0211  0.0453  0.0632  0.0000  0.0000  0.0000  0.0000  0.0000 </r>
        <r>  0.0427  0.0211  0.0451  0.0631  0.0000  0.0000  0.0000  0.0000  0.0000 </r>
       </set>
      </set>
      <set comment="kpoint 11">
       <set comment="band 1">
        <r>  0.2118  0.0129  0.0038  0.0094  0.0000  0.0000  0.0000  0.0000  0.0000 </r>
        <r>  0.2118  0.0129  0.0038  0.0094  0.0000  0.0000  0.0000  0.0000  0.0000 </r>
       </set>
       <set comment="band 2">
        <r>  0.1762  0.0209  0.0134  0.0248  0.0000  0.0000  0.0000  0.0000  0.0000 </r>
        <r>  0.1762  0.0209  0.0134  0.0248  0.0000  0.0000  0.0000  0.0000  0.0000 </r>
       </set>
       <set comment="band 3">
        <r>  0.0033  0.0778  0.0192  0.0515  0.0000  0.0000  0.0000  0.0000  0.0000 </r>
        <r>  0.0033  0.0778  0.0192  0.0515  0.0000  0.0000  0.0000  0.0000  0.0000 </r>
       </set>
       <set comment="band 4">
        <r>  0.0000  0.0165  0.1318  0.0494  0.0000  0.0000  0.0000  0.0000  0.0000 </r>
        <r>  0.0000  0.0165  0.1318  0.0494  0.0000  0.0000  0.0000  0.0000  0.0000 </r>
       </set>
       <set comment="band 5">
        <r>  0.0542  0.0092  0.0152  0.0233  0.0000  0.0000  0.0000  0.0000  0.0000 </r>
        <r>  0.0542  0.0092  0.0152  0.0233  0.0000  0.0000  0.0000  0.0000  0.0000 </r>
       </set>
       <set comment="band 6">
        <r>  0.0084  0.0578  0.0009  0.0204  0.0000  0.0000  0.0000  0.0000  0.0000 </r>
        <r>  0.0084  0.0578  0.0009  0.0204  0.0000  0.0000  0.0000  0.0000  0.0000 </r>
       </set>
       <set comment="band 7">
        <r>  0.0000  0.0127  0.1018  0.0382  0.0000  0.0000  0.0000  0.0000  0.0000 </r>
        <r>  0.0000  0.0127  0.1018  0.0382  0.0000  0.0000  0.0000  0.0000  0.0000 </r>
       </set>
       <set comment="band 8">
        <r>  0.0425  0.0253  0.0411  0.0633  0.0000  0.0000  0.0000  0.0000  0.0000 </r>
        <r>  0.0428  0.0250  0.0410  0.0631  0.0000  0.0000  0.0000  0.0000  0.0000 </r>
       </set>
      </set>
      <set comment="kpoint 12">
       <set comment="band 1">
        <r>  0.2118  0.0129  0.0038  0.0094  0.0000  0.0000  0.0000  0.0000  0.0000 </r>
        <r>  0.2118  0.0129  0.0038  0.0094  0.0000  0.0000  0.0000  0.0000  0.0000 </r>
       </set>
       <set comment="band 2">
        <r>  0.1762  0.0209  0.0134  0.0248  0.0000  0.0000  0.0000  0.0000  0.0000 </r>
        <r>  0.1762  0.0209  0.0134  0.0248  0.0000  0.0000  0.0000  0.0000  0.0000 </r>
       </set>
       <set comment="band 3">
        <r>  0.0033  0.0778  0.0192  0.0515  0.0000  0.0000  0.0000  0.0000  0.0000 </r>
        <r>  0.0033  0.0778  0.0192  0.0515  0.0000  0.0000  0.0000  0.0000  0.0000 </r>
       </set>
       <set comment="band 4">
        <r>  0.0000  0.0165  0.1318  0.0494  0.0000  0.0000  0.0000  0.0000  0.0000 </r>
        <r>  0.0000  0.0165  0.1318  0.0494  0.0000  0.0000  0.0000  0.0000  0.0000 </r>
       </set>
       <set comment="band 5">
        <r>  0.0542  0.0092  0.0152  0.0233  0.0000  0.0000  0.0000  0.0000  0.0000 </r>
        <r>  0.0542  0.0092  0.0152  0.0233  0.0000  0.0000  0.0000  0.0000  0.0000 </r>
       </set>
       <set comment="band 6">
        <r>  0.0084  0.0578  0.0009  0.0204  0.0000  0.0000  0.0000  0.0000  0.0000 </r>
        <r>  0.0084  0.0578  0.0009  0.0204  0.0000  0.0000  0.0000  0.0000  0.0000 </r>
       </set>
       <set comment="band 7">
        <r>  0.0000  0.0127  0.1018  0.0382  0.0000  0.0000  0.0000  0.0000  0.0000 </r>
        <r>  0.0000  0.0127  0.1018  0.0382  0.0000  0.0000  0.0000  0.0000  0.0000 </r>
       </set>
       <set comment="band 8">
        <r>  0.0425  0.0252  0.0412  0.0633  0.0000  0.0000  0.0000  0.0000  0.0000 </r>
        <r>  0.0428  0.0251  0.0410  0.0631  0.0000  0.0000  0.0000  0.0000  0.0000 </r>
       </set>
      </set>
      <set comment="kpoint 13">
       <set comment="band 1">
        <r>  0.2118  0.0125  0.0136  0.0000  0.0000  0.0000  0.0000  0.0000  0.0000 </r>
        <r>  0.2118  0.0125  0.0136  0.0000  0.0000  0.0000  0.0000  0.0000  0.0000 </r>
       </set>
       <set comment="band 2">
        <r>  0.1762  0.0330  0.0260  0.0000  0.0000  0.0000  0.0000  0.0000  0.0000 </r>
        <r>  0.1762  0.0330  0.0260  0.0000  0.0000  0.0000  0.0000  0.0000  0.0000 </r>
       </set>
       <set comment="band 3">
        <r>  0.0033  0.0687  0.0798  0.0000  0.0000  0.0000  0.0000  0.0000  0.0000 </r>
        <r>  0.0033  0.0687  0.0798  0.0000  0.0000  0.0000  0.0000  0.0000  0.0000 </r>
       </set>
       <set comment="band 4">
        <r>  0.0000  0.0000  0.0000  0.1977  0.0000  0.0000  0.0000  0.0000  0.0000 </r>
        <r>  0.0000  0.0000  0.0000  0.1977  0.0000  0.0000  0.0000  0.0000  0.0000 </r>
       </set>
       <set comment="band 5">
        <r>  0.0542  0.0311  0.0166  0.0000  0.0000  0.0000  0.0000  0.0000  0.0000 </r>
        <r>  0.0542  0.0311  0.0166  0.0000  0.0000  0.0000  0.0000  0.0000  0.0000 </r>
       </set>
       <set comment="band 6">
        <r>  0.0084  0.0272  0.0518  0.0000  0.0000  0.0000  0.0000  0.0000  0.0000 </r>
        <r>  0.0084  0.0272  0.0518  0.0000  0.0000  0.0000  0.0000  0.0000  0.0000 </r>
       </set>
       <set comment="band 7">
        <r>  0.0000  0.0000  0.0000  0.1527  0.0000  0.0000  0.0000  0.0000  0.0000 </r>
        <r>  0.0000  0.0000  0.0000  0.1527  0.0000  0.0000  0.0000  0.0000  0.0000 </r>
       </set>
       <set comment="band 8">
        <r>  0.0425  0.0843  0.0453  0.0000  0.0000  0.0000  0.0000  0.0000  0.0000 </r>
        <r>  0.0428  0.0841  0.0451  0.0000  0.0000  0.0000  0.0000  0.0000  0.0000 </r>
       </set>
      </set>
      <set comment="kpoint 14">
       <set comment="band 1">
        <r>  0.2118  0.0031  0.0136  0.0094  0.0000  0.0000  0.0000  0.0000  0.0000 </r>
        <r>  0.2118  0.0031  0.0136  0.0094  0.0000  0.0000  0.0000  0.0000  0.0000 </r>
       </set>
       <set comment="band 2">
        <r>  0.1762  0.0083  0.0260  0.0248  0.0000  0.0000  0.0000  0.0000  0.0000 </r>
        <r>  0.1762  0.0083  0.0260  0.0248  0.0000  0.0000  0.0000  0.0000  0.0000 </r>
       </set>
       <set comment="band 3">
        <r>  0.0033  0.0172  0.0798  0.0515  0.0000  0.0000  0.0000  0.0000  0.0000 </r>
        <r>  0.0033  0.0172  0.0798  0.0515  0.0000  0.0000  0.0000  0.0000  0.0000 </r>
       </set>
       <set comment="band 4">
        <r>  0.0000  0.1483  0.0000  0.0494  0.0000  0.0000  0.0000  0.0000  0.0000 </r>
        <r>  0.0000  0.1483  0.0000  0.0494  0.0000  0.0000  0.0000  0.0000  0.0000 </r>
       </set>
       <set comment="band 5">
        <r>  0.0542  0.0078  0.0166  0.0233  0.0000  0.0000  0.0000  0.0000  0.0000 </r>
        <r>  0.0542  0.0078  0.0166  0.0233  0.0000  0.0000  0.0000  0.0000  0.0000 </r>
       </set>
       <set comment="band 6">
        <r>  0.0084  0.0068  0.0518  0.0204  0.0000  0.0000  0.0000  0.0000  0.0000 </r>
        <r>  0.0084  0.0068  0.0518  0.0204  0.0000  0.0000  0.0000  0.0000  0.0000 </r>
       </set>
       <set comment="band 7">
        <r>  0.0000  0.1145  0.0000  0.0382  0.0000  0.0000  0.0000  0.0000  0.0000 </r>
        <r>  0.0000  0.1145  0.0000  0.0382  0.0000  0.0000  0.0000  0.0000  0.0000 </r>
       </set>
       <set comment="band 8">
        <r>  0.0425  0.0211  0.0453  0.0633  0.0000  0.0000  0.0000  0.0000  0.0000 </r>
        <r>  0.0428  0.0210  0.0451  0.0631  0.0000  0.0000  0.0000  0.0000  0.0000 </r>
       </set>
      </set>
     </set>
    </set>
   </array>
  </projected>
 </calculation>
 <structure name="finalpos" >
  <crystal>
   <varray name="basis" >
    <v>       3.89279000       0.00000000      -0.00000000 </v>
    <v>       1.94639500       3.37125600       0.00000000 </v>
    <v>      -0.00000000      -2.24750200       3.17845000 </v>
   </varray>
   <i name="volume">     41.71267986 </i>
   <varray name="rec_basis" >
    <v>       0.25688516      -0.14831268      -0.10487283 </v>
    <v>       0.00000000       0.29662535       0.20974565 </v>
    <v>       0.00000000      -0.00000000       0.31461876 </v>
   </varray>
  </crystal>
  <varray name="positions" >
   <v>       0.00000000       0.00000000       0.00000000 </v>
   <v>       0.75000000       0.50000000       0.75000000 </v>
  </varray>
 </structure>
</modeling>
