unknown system                          
           1
     3.892790    0.000000   -0.000000
     1.946395    3.371256    0.000000
    -0.000000   -2.247502    3.178450
   Si
     2
Direct configuration=     1
   0.00000000  0.00000000  0.00000000
   0.75000000  0.50000000  0.75000000
