srun --cpu_bind=cores --ntasks=16 --nodes=1-1 --cpus-per-task 4 --nodelist nid01830 /global/project/projectdirs/jcesr/qchem/qc5.x/qc5.0.1/dist/exe/qcprog.cori.haswell.exe .pt_trip_wb97mv_90.0.in.48436.qcin.1 /global/cscratch1/sd/bwood/qchem/chain_dp/qchem48436/

Process 1 of 16 is on nid01830 - thread support 0
Process 3 of 16 is on nid01830 - thread support 0
Process 5 of 16 is on nid01830 - thread support 0
Process 2 of 16 is on nid01830 - thread support 0
Process 6 of 16 is on nid01830 - thread support 0
Process 15 of 16 is on nid01830 - thread support 0
Process 0 of 16 is on nid01830 - thread support 0
Process 4 of 16 is on nid01830 - thread support 0
initial socket setup ...start
initial socket setup ...done 
now start server 0 ... 
nid01830 10.128.7
Q-Chem Developer Version! Running on 10.128.7.*
                  Welcome to Q-Chem
     A Quantum Leap Into The Future Of Chemistry


 Q-Chem 5.0, Q-Chem, Inc., Pleasanton, CA (2017)

 Yihan Shao,  Zhengting Gan,  E. Epifanovsky,  A. T. B. Gilbert,  M. Wormit,  
 J. Kussmann,  A. W. Lange,  A. Behn,  Jia Deng,  Xintian Feng,  D. Ghosh,  
 M. Goldey,  P. R. Horn,  L. D. Jacobson,  I. Kaliman,  T. Kus,  A. Landau,  
 Jie Liu,  E. I. Proynov,  R. M. Richard,  R. P. Steele,  E. J. Sundstrom,  
 H. L. Woodcock III,  P. M. Zimmerman,  D. Zuev,  B. Albrecht,  E. Alguire,  
 S. A. Baeppler,  Z. Benda,  Y. A. Bernard,  E. J. Berquist,  K. B. Bravaya,  
 D. Casanova,  Chun-Min Chang,  Yunqing Chen,  A. Chien,  K. D. Closser,  
 M. P. Coons,  S. Dasgupta,  M. Diedenhofen,  Hainam Do,  R. G. Edgar,  
 Po-Tung Fang,  S. Fatehi,  Qingguo Feng,  Qinghui Ge,  A. Ghysels,  
 J. Gomes,  J. Gonthier,  A. Gunina,  M. W. D. Hanson-Heine,  
 P. H. P. Harbach,  A. W. Hauser,  J. E. Herr,  E. G. Hohenstein,  
 Z. C. Holden,  Kerwin Hui,  T.-C. Jagau,  Hyunjun Ji,  B. Kaduk,  
 K. Khistyaev,  Jaehoon Kim,  P. Klunzinger,  K. Koh,  D. Kosenkov,  
 T. Kowalczyk,  C. M. Krauter,  A. Kunitsa,  Ka Un Lao,  A. Laurent,  
 K. V. Lawler,  Joonho Lee,  D. Lefrancois,  S. Lehtola,  D. S. Levine,  
 Yi-Pei Li,  You-Sheng Lin,  Fenglai Liu,  E. Livshits,  A. Luenser,  
 P. Manohar,  E. Mansoor,  S. F. Manzer,  Shan-Ping Mao,  Yuezhi Mao,  
 N. Mardirossian,  A. V. Marenich,  L. A. Martinez-Martinez,  S. A. Maurer,  
 N. J. Mayhall,  S. C. McKenzie,  J.-M. Mewes,  A. F. Morrison,  K. Nanda,  
 T. S. Nguyen-Beck,  R. Olivares-Amaya,  J. A. Parkhill,  T. M. Perrine,  
 F. Plasser,  S. Prager,  A. Prociuk,  D. R. Rehn,  F. Rob,  M. Schneider,  
 N. Sergueev,  S. M. Sharada,  S. Sharma,  D. W. Small,  T. Stauch,  
 T. Stein,  Yu-Chuan Su,  A. J. W. Thom,  T. Tsuchimochi,  L. Vogt,  
 O. Vydrov,  M. A. Watson,  J. Wenzel,  M. de Wergifosse,  T. A. Wesolowski,  
 A. White,  J. Witte,  A. Yamada,  Jun Yang,  K. Yao,  S. Yeganeh,  
 S. R. Yost,  Zhi-Qiang You,  A. Zech,  Igor Ying Zhang,  Xing Zhang,  
 Yan Zhao,  Ying Zhu,  B. R. Brooks,  G. K. L. Chan,  C. J. Cramer,  
 M. S. Gordon,  W. J. Hehre,  A. Klamt,  M. W. Schmidt,  C. D. Sherrill,  
 D. G. Truhlar,  A. Aspuru-Guzik,  R. Baer,  A. T. Bell,  N. A. Besley,  
 Jeng-Da Chai,  A. Dreuw,  B. D. Dunietz,  T. R. Furlani,  Chao-Ping Hsu,  
 Yousung Jung,  Jing Kong,  D. S. Lambrecht,  WanZhen Liang,  C. Ochsenfeld,  
 V. A. Rassolov,  L. V. Slipchenko,  J. E. Subotnik,  T. Van Voorhis,  
 J. M. Herbert,  A. I. Krylov,  P. M. W. Gill,  M. Head-Gordon

 Contributors to earlier versions of Q-Chem not listed above: 
 R. D. Adamson,  B. Austin,  J. Baker,  G. J. O. Beran,  K. Brandhorst,  
 S. T. Brown,  E. F. C. Byrd,  A. K. Chakraborty,  C.-L. Cheng,  
 Siu Hung Chien,  D. M. Chipman,  D. L. Crittenden,  H. Dachsel,  
 R. A. DiStasio Jr.,  R. J. Doerksen,  A. D. Dutoi,  L. Fusti-Molnar,  
 W. A. Goddard III,  A. Golubeva-Zadorozhnaya,  S. R. Gwaltney,  G. Hawkins,  
 A. Heyden,  S. Hirata,  G. Kedziora,  F. J. Keil,  C. Kelley,  Jihan Kim,  
 R. A. King,  R. Z. Khaliullin,  P. P. Korambath,  W. Kurlancheek,  
 A. M. Lee,  M. S. Lee,  S. V. Levchenko,  Ching Yeh Lin,  D. Liotard,  
 R. C. Lochan,  I. Lotan,  P. E. Maslen,  N. Nair,  D. P. O'Neill,  
 D. Neuhauser,  E. Neuscamman,  C. M. Oana,  R. Olson,  B. Peters,  
 R. Peverati,  P. A. Pieniazek,  Y. M. Rhee,  J. Ritchie,  M. A. Rohrdanz,  
 E. Rosta,  N. J. Russ,  H. F. Schaefer III,  N. E. Schultz,  N. Shenvi,  
 A. C. Simmonett,  A. Sodt,  D. Stuck,  K. S. Thanthiriwatte,  V. Vanovschi,  
 Tao Wang,  A. Warshel,  C. F. Williams,  Q. Wu,  X. Xu,  W. Zhang

 Please cite Q-Chem as follows:
 Y. Shao et al., Mol. Phys. 113, 184-215 (2015)
 DOI: 10.1080/00268976.2014.952696

 Q-Chem 5.0.1 for Intel X86 EM64T Linux

 Parts of Q-Chem use Armadillo 5.200.1 (Boston Tea Smuggler).
 http://arma.sourceforge.net/

 Q-Chem begins on Thu Feb 22 00:16:36 2018  

Host: nid01268
0

     Scratch files written to /global/cscratch1/sd/bwood/qchem/chain_dp/qchem48436.0//
 Parallel job on  16  processors
Warning: disabling incdft.
Checking the input file for inconsistencies... 	...done.

--------------------------------------------------------------
User input:
--------------------------------------------------------------
$molecule
 0  3
 S          -0.01806751        0.44661919       -0.04085929
 C           1.69268044        0.21661087       -0.04392406
 H           2.25504587        0.33055482        0.86711357
 C           2.19358481       -0.11156535       -1.30306695
 H           3.24493128       -0.28705096       -1.47749232
 C           1.23419097       -0.18832714       -2.27969081
 H           1.41780922       -0.42884607       -3.31540271
 C          -0.10080114        0.09259041       -1.77631473
 C          -1.26244536        0.10213358       -2.45607151
 C          -2.18460804       -1.00015317       -2.67759822
 H          -2.00022910       -1.98934772       -2.28803081
 C          -3.27876920       -0.63243287       -3.41768489
 H          -4.07679844       -1.30813417       -3.68810275
 C          -3.27778721        0.70867904       -3.79906530
 H          -4.02906928        1.21764213       -4.37851312
 S          -1.88727548        1.56487579       -3.23962378
$end


$rem
              jobtype = opt
               method = wb97m-v
                basis = def2-tzvppd
  geom_opt_max_cycles = 75
       max_scf_cycles = 300
        scf_algorithm = diis
            scf_guess = sad
           sym_ignore = true
             symmetry = false
               thresh = 14
$end


$opt
CONSTRAINT
tors 6 8 9 10 90.0
ENDCONSTRAINT
$end

--------------------------------------------------------------
 ----------------------------------------------------------------
             Standard Nuclear Orientation (Angstroms)
    I     Atom           X                Y                Z
 ----------------------------------------------------------------
    1      S      -0.0180675100     0.4466191900    -0.0408592900
    2      C       1.6926804400     0.2166108700    -0.0439240600
    3      H       2.2550458700     0.3305548200     0.8671135700
    4      C       2.1935848100    -0.1115653500    -1.3030669500
    5      H       3.2449312800    -0.2870509600    -1.4774923200
    6      C       1.2341909700    -0.1883271400    -2.2796908100
    7      H       1.4178092200    -0.4288460700    -3.3154027100
    8      C      -0.1008011400     0.0925904100    -1.7763147300
    9      C      -1.2624453600     0.1021335800    -2.4560715100
   10      C      -2.1846080400    -1.0001531700    -2.6775982200
   11      H      -2.0002291000    -1.9893477200    -2.2880308100
   12      C      -3.2787692000    -0.6324328700    -3.4176848900
   13      H      -4.0767984400    -1.3081341700    -3.6881027500
   14      C      -3.2777872100     0.7086790400    -3.7990653000
   15      H      -4.0290692800     1.2176421300    -4.3785131200
   16      S      -1.8872754800     1.5648757900    -3.2396237800
 ----------------------------------------------------------------
 Nuclear Repulsion Energy =   630.3514826493 hartrees
 There are       44 alpha and       42 beta electrons
 Requested basis set is def2-TZVPPD
 There are 180 shells and 500 basis functions

 Total QAlloc Memory Limit   2000 MB
 Mega-Array Size        61 MB
 MEM_STATIC part        62 MB
 A cutoff of  1.0D-14 yielded  14463 shell pairs
 There are    112291 function pairs (    144818 Cartesian)
 Smallest overlap matrix eigenvalue = 9.73E-07
 Linear dependence detected in AO basis
 Number of orthogonalized atomic orbitals = 499
 Maximum deviation from orthogonality = 1.165E-10

 Scale SEOQF with 1.000000e-01/1.000000e-01/1.000000e-01

 Standard Electronic Orientation quadrupole field applied
 Nucleus-field energy     =    -0.0000000389 hartrees
 Guess from superposition of atomic densities
 Warning:  Energy on first SCF cycle will be non-variational
 Long-range K will be added via erf
 Coulomb attenuation parameter = 0.3 bohr**(-1)
 An unrestricted hybrid HF-DFT SCF calculation will be
 performed using Pulay DIIS extrapolation
 Exchange:     0.1500 Hartree-Fock + 1.0000 wB97M-V + LR-HF
 Correlation:  1.0000 wB97M-V
 Using SG-2 standard quadrature grid
 Nonlocal Correlation:  VV10 with C = 0.0100 and b = 6.00
 Grid used for NLC:  SG-1 standard quadrature
 SCF converges when DIIS error is below 1.0E-08
 Number of grid points used for NLC = 44525
 ---------------------------------------
  Cycle       Energy         DIIS Error
 ---------------------------------------
    1   -1037.3963156512      2.68E-02
 Inaccurate integrated density:
   Number of electrons =    86
   Numerical integral  =    85.778924613213
   Relative error      =    -0.2570644032 %
 Number of grid points used for NLC = 45899
    2   -1100.6127394417      2.42E-02
 Number of grid points used for NLC = 44871
    3   -1104.2946673158      8.08E-03
 Inaccurate integrated density:
   Number of electrons =    86
   Numerical integral  =    85.985485042667
   Relative error      =    -0.0168778574 %
 Number of grid points used for NLC = 45430
    4   -1104.0039899590      4.83E-03
 Number of grid points used for NLC = 44898
    5   -1104.5730195478      1.56E-03
 Number of grid points used for NLC = 44835
    6   -1104.6349515906      4.05E-04
 Number of grid points used for NLC = 44741
    7   -1104.6403754417      9.48E-05
 Number of grid points used for NLC = 44691
    8   -1104.6409701107      3.69E-05
 Number of grid points used for NLC = 44666
    9   -1104.6411612451      1.45E-05
 Number of grid points used for NLC = 44648
   10   -1104.6412771111      1.00E-05
 Number of grid points used for NLC = 44646
   11   -1104.6413194047      5.53E-06
 Number of grid points used for NLC = 44646
   12   -1104.6413551705      3.86E-06
 Number of grid points used for NLC = 44645
   13   -1104.6413754479      2.43E-06
 Number of grid points used for NLC = 44645
   14   -1104.6413859421      1.46E-06
 Number of grid points used for NLC = 44646
   15   -1104.6413897587      1.05E-06
 Number of grid points used for NLC = 44646
   16   -1104.6413919616      6.52E-07
 Number of grid points used for NLC = 44646
   17   -1104.6413927993      3.25E-07
 Number of grid points used for NLC = 44645
   18   -1104.6413930133      1.47E-07
 Number of grid points used for NLC = 44645
   19   -1104.6413930321      6.82E-08
 Number of grid points used for NLC = 44645
   20   -1104.6413930351      2.61E-08
 Number of grid points used for NLC = 44645
   21   -1104.6413930358      1.36E-08
 Number of grid points used for NLC = 44645
   22   -1104.6413930360      6.43E-09 Convergence criterion met
 ---------------------------------------
 <S^2> = 2.0118
 SCF time:  CPU 621.22 s  wall 616.10 s
 SCF   energy in the final basis set = -1104.64139304
 Total energy in the final basis set = -1104.64139304
 
 --------------------------------------------------------------
 
                    Orbital Energies (a.u.)
 --------------------------------------------------------------
 
 Alpha MOs
 -- Occupied --
-89.216 -89.191 -10.388 -10.385 -10.383 -10.378 -10.362 -10.360
-10.360 -10.352  -8.150  -8.127  -6.061  -6.057  -6.055  -6.038
 -6.034  -6.032  -1.025  -0.996  -0.906  -0.866  -0.866  -0.813
 -0.732  -0.680  -0.673  -0.647  -0.635  -0.579  -0.533  -0.524
 -0.511  -0.507  -0.504  -0.482  -0.474  -0.451  -0.445  -0.371
 -0.360  -0.352  -0.314  -0.196
 -- Virtual --
  0.028   0.032   0.035   0.047   0.048   0.056   0.065   0.067
  0.070   0.082   0.087   0.094   0.097   0.105   0.113   0.118
  0.124   0.139   0.142   0.155   0.162   0.172   0.173   0.176
  0.184   0.191   0.195   0.209   0.212   0.221   0.223   0.231
  0.232   0.235   0.239   0.243   0.249   0.258   0.260   0.262
  0.269   0.273   0.275   0.280   0.294   0.297   0.301   0.304
  0.308   0.316   0.317   0.324   0.331   0.331   0.333   0.343
  0.344   0.349   0.351   0.355   0.356   0.358   0.364   0.385
  0.389   0.394   0.394   0.401   0.405   0.407   0.413   0.415
  0.420   0.421   0.433   0.442   0.444   0.450   0.455   0.459
  0.465   0.469   0.477   0.480   0.486   0.490   0.492   0.496
  0.499   0.506   0.506   0.523   0.525   0.537   0.541   0.559
  0.560   0.567   0.575   0.579   0.583   0.587   0.592   0.598
  0.604   0.614   0.618   0.624   0.636   0.642   0.661   0.669
  0.676   0.687   0.691   0.695   0.700   0.709   0.713   0.719
  0.721   0.723   0.729   0.741   0.743   0.753   0.756   0.762
  0.765   0.766   0.769   0.780   0.782   0.786   0.787   0.802
  0.804   0.806   0.817   0.829   0.842   0.848   0.857   0.860
  0.863   0.869   0.879   0.891   0.892   0.902   0.917   0.926
  0.929   0.966   0.974   0.977   0.979   0.990   0.994   1.000
  1.014   1.017   1.049   1.056   1.076   1.085   1.093   1.100
  1.132   1.136   1.148   1.151   1.181   1.194   1.213   1.218
  1.235   1.254   1.266   1.274   1.284   1.297   1.305   1.355
  1.367   1.383   1.398   1.403   1.422   1.431   1.447   1.455
  1.471   1.473   1.478   1.489   1.507   1.520   1.536   1.539
  1.551   1.599   1.602   1.652   1.660   1.665   1.669   1.672
  1.713   1.721   1.727   1.737   1.741   1.752   1.754   1.765
  1.770   1.772   1.787   1.798   1.814   1.817   1.835   1.850
  1.870   1.874   1.888   1.890   1.926   1.954   1.958   1.968
  1.982   1.992   2.006   2.007   2.011   2.036   2.041   2.062
  2.070   2.078   2.092   2.098   2.099   2.127   2.133   2.158
  2.178   2.182   2.195   2.204   2.236   2.239   2.249   2.259
  2.269   2.277   2.280   2.287   2.300   2.345   2.352   2.390
  2.428   2.447   2.486   2.515   2.518   2.590   2.613   2.634
  2.683   2.696   2.701   2.724   2.742   2.749   2.785   2.799
  2.804   2.811   2.829   2.851   2.874   2.883   2.914   2.924
  2.936   3.021   3.041   3.045   3.052   3.064   3.076   3.090
  3.096   3.108   3.116   3.143   3.158   3.182   3.184   3.189
  3.213   3.215   3.226   3.234   3.241   3.248   3.263   3.270
  3.282   3.287   3.308   3.315   3.338   3.357   3.366   3.377
  3.392   3.415   3.429   3.432   3.439   3.449   3.475   3.493
  3.500   3.506   3.525   3.535   3.541   3.547   3.553   3.556
  3.582   3.613   3.623   3.669   3.675   3.682   3.701   3.718
  3.728   3.732   3.765   3.771   3.778   3.782   3.807   3.809
  3.824   3.838   3.879   3.882   3.903   3.905   3.914   3.940
  3.951   3.960   4.000   4.004   4.028   4.034   4.057   4.070
  4.088   4.112   4.121   4.157   4.166   4.174   4.230   4.245
  4.277   4.289   4.300   4.325   4.341   4.367   4.390   4.408
  4.414   4.443   4.450   4.471   4.480   4.555   4.570   4.605
  4.637   4.653   4.685   4.691   4.740   4.745   4.771   4.813
  4.848   4.873   4.890   4.910   4.995   5.020   5.064   5.084
  5.182   5.220   5.226   5.227   5.254   5.260   5.263   5.301
  5.316   5.370   5.402   5.421   5.552   5.609   5.630   5.787
  5.797   5.808   5.856   6.230   6.244   6.941   6.949   6.969
  6.977   7.069   7.091   7.157   7.176   7.500   7.526   9.221
  9.247   9.696   9.731   9.762   9.790  20.740  20.775  23.194
 23.223  23.313  23.429  23.524  23.555  23.941  24.000
 
 Beta MOs
 -- Occupied --
-89.216 -89.190 -10.386 -10.378 -10.376 -10.373 -10.361 -10.359
-10.358 -10.352  -8.150  -8.127  -6.059  -6.056  -6.055  -6.038
 -6.034  -6.028  -1.013  -0.989  -0.891  -0.863  -0.856  -0.800
 -0.721  -0.669  -0.667  -0.640  -0.630  -0.572  -0.517  -0.509
 -0.502  -0.499  -0.495  -0.469  -0.454  -0.440  -0.435  -0.354
 -0.339  -0.314
 -- Virtual --
 -0.074   0.029   0.032   0.034   0.046   0.047   0.054   0.061
  0.067   0.069   0.072   0.086   0.088   0.095   0.106   0.109
  0.116   0.123   0.137   0.141   0.144   0.155   0.163   0.172
  0.173   0.176   0.187   0.192   0.195   0.212   0.214   0.222
  0.224   0.231   0.234   0.238   0.240   0.247   0.250   0.260
  0.262   0.265   0.272   0.275   0.277   0.281   0.295   0.299
  0.303   0.305   0.309   0.317   0.321   0.325   0.331   0.332
  0.335   0.343   0.345   0.350   0.351   0.355   0.357   0.358
  0.368   0.387   0.393   0.395   0.398   0.403   0.406   0.410
  0.415   0.415   0.421   0.423   0.435   0.444   0.446   0.451
  0.456   0.461   0.466   0.472   0.479   0.481   0.488   0.492
  0.494   0.497   0.502   0.507   0.509   0.526   0.527   0.537
  0.542   0.559   0.561   0.569   0.577   0.582   0.586   0.588
  0.593   0.600   0.608   0.616   0.622   0.625   0.639   0.645
  0.661   0.671   0.678   0.688   0.693   0.698   0.703   0.713
  0.714   0.721   0.725   0.725   0.732   0.743   0.744   0.754
  0.758   0.765   0.767   0.769   0.772   0.783   0.785   0.788
  0.790   0.804   0.806   0.809   0.819   0.831   0.844   0.850
  0.860   0.862   0.866   0.873   0.882   0.895   0.896   0.906
  0.920   0.930   0.931   0.973   0.977   0.980   0.982   0.995
  0.997   1.006   1.022   1.023   1.051   1.059   1.080   1.092
  1.097   1.108   1.139   1.140   1.155   1.157   1.184   1.201
  1.220   1.220   1.241   1.258   1.271   1.279   1.289   1.305
  1.312   1.358   1.374   1.388   1.405   1.407   1.425   1.436
  1.454   1.460   1.476   1.477   1.482   1.493   1.512   1.526
  1.540   1.545   1.555   1.605   1.609   1.658   1.668   1.673
  1.677   1.681   1.720   1.726   1.731   1.745   1.747   1.758
  1.763   1.773   1.775   1.776   1.800   1.814   1.821   1.826
  1.844   1.863   1.882   1.882   1.895   1.902   1.935   1.961
  1.967   1.977   1.992   2.002   2.012   2.014   2.020   2.045
  2.047   2.069   2.076   2.088   2.101   2.105   2.113   2.137
  2.140   2.171   2.188   2.190   2.210   2.210   2.244   2.250
  2.256   2.271   2.279   2.288   2.292   2.298   2.312   2.353
  2.364   2.400   2.439   2.458   2.495   2.526   2.529   2.598
  2.622   2.653   2.694   2.711   2.714   2.736   2.754   2.767
  2.796   2.808   2.816   2.821   2.842   2.861   2.888   2.892
  2.927   2.934   2.946   3.035   3.055   3.059   3.065   3.077
  3.092   3.100   3.112   3.118   3.128   3.165   3.171   3.192
  3.193   3.200   3.226   3.237   3.243   3.248   3.258   3.269
  3.282   3.284   3.297   3.302   3.328   3.333   3.349   3.373
  3.381   3.392   3.407   3.427   3.443   3.447   3.449   3.465
  3.489   3.507   3.514   3.518   3.536   3.551   3.555   3.563
  3.565   3.571   3.598   3.622   3.635   3.684   3.689   3.693
  3.714   3.732   3.737   3.741   3.780   3.784   3.792   3.800
  3.818   3.821   3.842   3.850   3.890   3.896   3.914   3.917
  3.926   3.952   3.964   3.971   4.009   4.012   4.033   4.038
  4.068   4.083   4.096   4.120   4.132   4.166   4.180   4.187
  4.240   4.257   4.286   4.296   4.311   4.340   4.351   4.383
  4.400   4.416   4.420   4.449   4.457   4.475   4.486   4.564
  4.579   4.620   4.651   4.671   4.701   4.703   4.753   4.758
  4.786   4.828   4.864   4.886   4.912   4.929   5.013   5.036
  5.081   5.097   5.203   5.229   5.233   5.243   5.265   5.272
  5.274   5.313   5.330   5.388   5.419   5.448   5.577   5.624
  5.655   5.801   5.810   5.816   5.873   6.242   6.255   6.942
  6.950   6.971   6.979   7.070   7.094   7.159   7.176   7.502
  7.530   9.222   9.254   9.698   9.732   9.764   9.791  20.742
 20.777  23.199  23.229  23.317  23.434  23.528  23.558  23.943
 24.003
 --------------------------------------------------------------
 
          Ground-State Mulliken Net Atomic Charges

     Atom                 Charge (a.u.)    Spin (a.u.)
  --------------------------------------------------------
      1 S                    -0.110988       0.088381
      2 C                    -0.186693       0.002320
      3 H                     0.218413       0.003019
      4 C                    -0.221484       0.001364
      5 H                     0.161172       0.001612
      6 C                    -0.204795       0.048071
      7 H                     0.219601      -0.004047
      8 C                     0.122417      -0.013367
      9 C                     0.105307       0.660441
     10 C                    -0.174871       0.342468
     11 H                     0.225673       0.015159
     12 C                    -0.096823       0.070329
     13 H                     0.164785       0.000576
     14 C                    -0.266862       0.616477
     15 H                     0.245707       0.020823
     16 S                    -0.200559       0.146374
  --------------------------------------------------------
  Sum of atomic charges =     0.000000
  Sum of spin   charges =     2.000000

 -----------------------------------------------------------------
                    Cartesian Multipole Moments
 -----------------------------------------------------------------
    Charge (ESU x 10^10)
                -9.6064
    Dipole Moment (Debye)
         X      19.5191      Y      -4.0446      Z      27.7208
       Tot      34.1438
    Quadrupole Moments (Debye-Ang)
        XX    -117.8769     XY       8.7746     YY     -84.5882
        XZ     -58.1224     YZ      13.1869     ZZ    -162.9802
    Octopole Moments (Debye-Ang^2)
       XXX     308.2398    XXY     -48.3777    XYY      66.8376
       YYY     -75.3272    XXZ     290.3486    XYZ     -25.8657
       YYZ     177.1512    XZZ     255.3326    YZZ     -63.0491
       ZZZ     770.2257
    Hexadecapole Moments (Debye-Ang^3)
      XXXX   -2161.6370   XXXY     162.2826   XXYY    -406.2077
      XYYY     109.6086   YYYY    -433.3016   XXXZ   -1143.6172
      XXYZ     138.7522   XYYZ    -284.6561   YYYZ     183.0215
      XXZZ   -1217.0505   XYZZ     110.4859   YYZZ    -614.6799
      XZZZ   -1467.3192   YZZZ     305.5015   ZZZZ   -3978.2464
 -----------------------------------------------------------------
 Calculating analytic gradient of the SCF energy
 Number of grid points used for NLC = 44645
 Gradient of SCF Energy
            1           2           3           4           5           6
    1  -0.0220337   0.0021344  -0.0001255  -0.0111550  -0.0002315   0.0710468
    2   0.0071482   0.0031791  -0.0000873  -0.0072620  -0.0001650  -0.0109628
    3   0.0217526   0.0162833  -0.0004187  -0.0428502  -0.0010142  -0.0071228
            7           8           9          10          11          12
    1   0.0021857  -0.1124677   0.0544975   0.0379184  -0.0002951  -0.0175516
    2  -0.0005010   0.0089286  -0.0113002   0.0115965  -0.0002442   0.0407251
    3   0.0004965  -0.0289320   0.0368521   0.0177109   0.0000469  -0.0219301
           13          14          15          16
    1  -0.0005299   0.0083857   0.0003431  -0.0121216
    2   0.0006772  -0.0217217   0.0005369  -0.0205476
    3  -0.0003601   0.0110088  -0.0001163  -0.0014067
 Max gradient component =       1.125E-01
 RMS gradient           =       2.587E-02
 Gradient time:  CPU 91.66 s  wall 91.27 s
 Geometry Optimization Parameters
   NAtoms,    NIC,     NZ,  NCons,   NDum,   NFix, NCnnct, MaxDiis
       16     111       0       1       0       0       0       0


** CONSTRAINED OPTIMIZATION IN DELOCALIZED INTERNAL COORDINATES **
   Searching for a Minimum

   Optimization Cycle:   1

                       Coordinates (Angstroms)
     ATOM                X               Y               Z
      1  S        -0.0180675100    0.4466191900   -0.0408592900
      2  C         1.6926804400    0.2166108700   -0.0439240600
      3  H         2.2550458700    0.3305548200    0.8671135700
      4  C         2.1935848100   -0.1115653500   -1.3030669500
      5  H         3.2449312800   -0.2870509600   -1.4774923200
      6  C         1.2341909700   -0.1883271400   -2.2796908100
      7  H         1.4178092200   -0.4288460700   -3.3154027100
      8  C        -0.1008011400    0.0925904100   -1.7763147300
      9  C        -1.2624453600    0.1021335800   -2.4560715100
     10  C        -2.1846080400   -1.0001531700   -2.6775982200
     11  H        -2.0002291000   -1.9893477200   -2.2880308100
     12  C        -3.2787692000   -0.6324328700   -3.4176848900
     13  H        -4.0767984400   -1.3081341700   -3.6881027500
     14  C        -3.2777872100    0.7086790400   -3.7990653000
     15  H        -4.0290692800    1.2176421300   -4.3785131200
     16  S        -1.8872754800    1.5648757900   -3.2396237800
   Point Group: c1    Number of degrees of freedom:    42


   Energy is  -1104.641393036

              Constraints and their Current Values
                                        Value     Constraint
   Dihedral:        6   8   9  10       90.000       90.000

 Attempting to Generate Delocalized Internal Coordinates

 41 Hessian modes will be used to form the next step
  Hessian Eigenvalues:
     0.045000    0.045000    0.045000    0.045000    0.045000    0.045000
     0.045000    0.045000    0.045000    0.045000    0.045000    0.045000
     0.160000    0.160000    0.160000    0.160000    0.160000    0.160000
     0.221198    0.221198    0.237567    0.237567    0.250000    0.250000
     0.279404    0.279405    0.320157    0.320157    0.359860    0.359860
     0.361141    0.361141    0.363991    0.363991    0.366347    0.366352
     0.448122    0.448129    0.491782    0.491790    0.558924

 Minimum Search - Taking Simple RFO Step
 Searching for Lamda that Minimizes Along All modes
 Value Taken    Lamda =  -0.03210395
 Step Taken.  Stepsize is  0.265035

                             Maximum     Tolerance    Cnvgd?
         Gradient           0.044651      0.000300      NO
         Displacement       0.120825      0.001200      NO
         Energy change     *********      0.000001      NO


 New Cartesian Coordinates Obtained by Inverse Iteration

 Displacement from previous Coordinates is:  0.360648
 ----------------------------------------------------------------
             Standard Nuclear Orientation (Angstroms)
    I     Atom           X                Y                Z
 ----------------------------------------------------------------
    1      S       0.0556096915     0.4442222238    -0.0697817737
    2      C       1.7410025724     0.2143532873    -0.0243183926
    3      H       2.2943101446     0.3270219200     0.8930747900
    4      C       2.2191369828    -0.1096529889    -1.2604898745
    5      H       3.2680543597    -0.2936161461    -1.4410317597
    6      C       1.2224019396    -0.1754010756    -2.2457378415
    7      H       1.3897649827    -0.4144347917    -3.2845427379
    8      C      -0.0510626369     0.0975547976    -1.7811691370
    9      C      -1.2790656469     0.1150934219    -2.4928708302
   10      C      -2.2251848786    -1.0123046608    -2.7095306341
   11      H      -2.0337504168    -1.9994902537    -2.3189853387
   12      C      -3.3066839381    -0.6586709533    -3.4248008691
   13      H      -4.1042762044    -1.3389967363    -3.6843750831
   14      C      -3.3051271963     0.7169617685    -3.8140136293
   15      H      -4.0663961582     1.2191690276    -4.3860839253
   16      S      -1.8963417671     1.6020395399    -3.2696706433
 ----------------------------------------------------------------
 Nuclear Repulsion Energy =   627.0834754601 hartrees
 There are       44 alpha and       42 beta electrons
 Applying Cartesian multipole field
    Component          Value
    ---------          -----
     (2,0,0)        1.00000E-11
     (0,2,0)        2.00000E-11
     (0,0,2)       -3.00000E-11
 Nucleus-field energy     =    -0.0000000390 hartrees
 Requested basis set is def2-TZVPPD
 There are 180 shells and 500 basis functions
 A cutoff of  1.0D-14 yielded  14421 shell pairs
 There are    112009 function pairs (    144476 Cartesian)
 Smallest overlap matrix eigenvalue = 1.63E-06
 No. of orbitals has changed due to linear dependencies.  Generating new SCF guess.
 Guess from superposition of atomic densities
 Warning:  Energy on first SCF cycle will be non-variational
 Long-range K will be added via erf
 Coulomb attenuation parameter = 0.3 bohr**(-1)
 An unrestricted hybrid HF-DFT SCF calculation will be
 performed using Pulay DIIS extrapolation
 Exchange:     0.1500 Hartree-Fock + 1.0000 wB97M-V + LR-HF
 Correlation:  1.0000 wB97M-V
 Using SG-2 standard quadrature grid
 Nonlocal Correlation:  VV10 with C = 0.0100 and b = 6.00
 Grid used for NLC:  SG-1 standard quadrature
 SCF converges when DIIS error is below 1.0E-08
 Geometry optimization detected.  Setting ReadMinima to 0
 Setting SaveMinima to 0
 Number of grid points used for NLC = 44527
 ---------------------------------------
  Cycle       Energy         DIIS Error
 ---------------------------------------
    1   -1037.3513002492      2.67E-02
 Inaccurate integrated density:
   Number of electrons =    86
   Numerical integral  =    85.780478223902
   Relative error      =    -0.2552578792 %
 Number of grid points used for NLC = 45899
    2   -1100.6183780263      2.42E-02
 Number of grid points used for NLC = 44877
    3   -1104.3284002943      8.06E-03
 Number of grid points used for NLC = 45161
    4   -1104.1509694049      4.48E-03
 Number of grid points used for NLC = 44756
    5   -1104.6089085835      1.37E-03
 Number of grid points used for NLC = 44690
    6   -1104.6545369045      3.80E-04
 Number of grid points used for NLC = 44647
    7   -1104.6591823162      8.23E-05
 Number of grid points used for NLC = 44627
    8   -1104.6595476736      3.13E-05
 Number of grid points used for NLC = 44618
    9   -1104.6596440622      1.05E-05
 Number of grid points used for NLC = 44615
   10   -1104.6596894151      6.60E-06
 Number of grid points used for NLC = 44615
   11   -1104.6597033601      3.24E-06
 Number of grid points used for NLC = 44615
   12   -1104.6597126825      2.04E-06
 Number of grid points used for NLC = 44615
   13   -1104.6597169335      1.23E-06
 Number of grid points used for NLC = 44616
   14   -1104.6597192218      6.31E-07
 Number of grid points used for NLC = 44617
   15   -1104.6597198636      4.20E-07
 Number of grid points used for NLC = 44616
   16   -1104.6597201312      2.83E-07
 Number of grid points used for NLC = 44616
   17   -1104.6597202594      1.61E-07
 Number of grid points used for NLC = 44616
   18   -1104.6597203111      7.12E-08
 Number of grid points used for NLC = 44616
   19   -1104.6597203175      3.65E-08
 Number of grid points used for NLC = 44616
   20   -1104.6597203184      1.21E-08
 Number of grid points used for NLC = 44616
   21   -1104.6597203185      6.21E-09 Convergence criterion met
 ---------------------------------------
 <S^2> = 2.0096
 SCF time:  CPU 590.45 s  wall 585.06 s
 SCF   energy in the final basis set = -1104.65972032
 Total energy in the final basis set = -1104.65972032
 
 --------------------------------------------------------------
 
                    Orbital Energies (a.u.)
 --------------------------------------------------------------
 
 Alpha MOs
 -- Occupied --
-89.209 -89.196 -10.400 -10.387 -10.385 -10.374 -10.363 -10.361
-10.354 -10.350  -8.145  -8.131  -6.055  -6.051  -6.049  -6.041
 -6.038  -6.035  -1.023  -0.998  -0.897  -0.868  -0.861  -0.818
 -0.725  -0.678  -0.675  -0.647  -0.634  -0.583  -0.527  -0.524
 -0.510  -0.506  -0.499  -0.483  -0.477  -0.449  -0.440  -0.374
 -0.359  -0.347  -0.328  -0.204
 -- Virtual --
  0.032   0.034   0.041   0.047   0.048   0.057   0.066   0.067
  0.070   0.084   0.086   0.094   0.098   0.104   0.113   0.120
  0.126   0.138   0.141   0.155   0.162   0.172   0.172   0.176
  0.183   0.191   0.195   0.207   0.212   0.221   0.222   0.229
  0.231   0.232   0.237   0.242   0.250   0.255   0.259   0.261
  0.268   0.270   0.274   0.277   0.294   0.296   0.299   0.306
  0.307   0.314   0.318   0.322   0.328   0.329   0.332   0.342
  0.344   0.347   0.350   0.353   0.356   0.357   0.361   0.377
  0.384   0.393   0.399   0.403   0.405   0.406   0.412   0.415
  0.416   0.420   0.433   0.435   0.441   0.448   0.454   0.456
  0.465   0.466   0.476   0.476   0.482   0.489   0.491   0.496
  0.498   0.503   0.511   0.523   0.528   0.536   0.539   0.551
  0.558   0.564   0.571   0.576   0.582   0.586   0.589   0.595
  0.600   0.608   0.612   0.620   0.634   0.644   0.660   0.667
  0.674   0.676   0.685   0.690   0.695   0.700   0.710   0.711
  0.720   0.723   0.730   0.734   0.742   0.745   0.756   0.759
  0.762   0.763   0.769   0.777   0.782   0.786   0.791   0.800
  0.804   0.805   0.816   0.816   0.827   0.840   0.845   0.857
  0.861   0.866   0.878   0.881   0.891   0.897   0.901   0.913
  0.926   0.932   0.965   0.970   0.975   0.986   0.989   0.995
  1.013   1.023   1.049   1.058   1.062   1.077   1.086   1.093
  1.120   1.131   1.141   1.151   1.176   1.190   1.207   1.216
  1.223   1.240   1.251   1.261   1.271   1.284   1.295   1.300
  1.354   1.367   1.380   1.399   1.408   1.416   1.434   1.440
  1.460   1.467   1.477   1.481   1.489   1.510   1.516   1.531
  1.538   1.550   1.594   1.602   1.645   1.655   1.661   1.668
  1.676   1.715   1.719   1.724   1.736   1.745   1.751   1.758
  1.762   1.768   1.773   1.782   1.800   1.807   1.813   1.837
  1.847   1.869   1.874   1.888   1.907   1.940   1.950   1.952
  1.969   1.976   1.987   2.000   2.006   2.024   2.029   2.057
  2.065   2.073   2.079   2.087   2.100   2.107   2.123   2.137
  2.157   2.163   2.183   2.206   2.210   2.229   2.238   2.250
  2.252   2.257   2.280   2.290   2.302   2.307   2.335   2.355
  2.396   2.427   2.457   2.477   2.524   2.580   2.592   2.611
  2.631   2.668   2.700   2.702   2.718   2.736   2.750   2.777
  2.784   2.802   2.814   2.830   2.847   2.872   2.880   2.905
  2.911   2.956   2.992   3.031   3.044   3.050   3.074   3.078
  3.089   3.103   3.110   3.116   3.130   3.140   3.172   3.182
  3.189   3.197   3.201   3.224   3.239   3.243   3.261   3.271
  3.279   3.287   3.294   3.317   3.326   3.334   3.342   3.366
  3.382   3.389   3.409   3.414   3.418   3.433   3.451   3.469
  3.492   3.499   3.506   3.516   3.526   3.540   3.545   3.552
  3.565   3.578   3.618   3.624   3.649   3.673   3.680   3.699
  3.710   3.725   3.740   3.756   3.766   3.779   3.792   3.804
  3.809   3.826   3.833   3.868   3.879   3.896   3.913   3.916
  3.928   3.940   3.957   3.976   4.002   4.022   4.030   4.048
  4.075   4.078   4.098   4.117   4.150   4.153   4.172   4.218
  4.237   4.270   4.281   4.291   4.324   4.346   4.374   4.377
  4.394   4.427   4.434   4.457   4.461   4.492   4.557   4.579
  4.595   4.608   4.624   4.657   4.698   4.732   4.753   4.770
  4.800   4.841   4.873   4.883   4.916   4.997   5.026   5.061
  5.088   5.184   5.195   5.213   5.245   5.249   5.253   5.266
  5.297   5.310   5.359   5.399   5.410   5.560   5.614   5.649
  5.765   5.786   5.821   5.871   6.213   6.264   6.948   6.953
  6.966   6.970   7.075   7.086   7.152   7.195   7.469   7.568
  9.224   9.240   9.693   9.746   9.760   9.779  20.636  20.892
 23.135  23.214  23.290  23.403  23.453  23.685  23.954  24.022
 
 Beta MOs
 -- Occupied --
-89.209 -89.195 -10.387 -10.386 -10.375 -10.374 -10.361 -10.360
-10.353 -10.350  -8.144  -8.130  -6.053  -6.050  -6.049  -6.041
 -6.038  -6.031  -1.017  -0.986  -0.885  -0.859  -0.858  -0.802
 -0.713  -0.672  -0.665  -0.640  -0.630  -0.576  -0.518  -0.511
 -0.502  -0.497  -0.489  -0.471  -0.448  -0.439  -0.435  -0.350
 -0.342  -0.328
 -- Virtual --
 -0.067   0.032   0.034   0.041   0.047   0.047   0.056   0.060
  0.066   0.070   0.070   0.086   0.088   0.094   0.104   0.111
  0.119   0.123   0.137   0.140   0.143   0.155   0.163   0.172
  0.173   0.176   0.186   0.193   0.195   0.212   0.214   0.221
  0.223   0.231   0.233   0.236   0.239   0.247   0.251   0.256
  0.261   0.265   0.272   0.272   0.277   0.279   0.295   0.297
  0.301   0.306   0.309   0.317   0.320   0.323   0.329   0.331
  0.334   0.343   0.344   0.348   0.350   0.355   0.356   0.358
  0.363   0.385   0.386   0.394   0.400   0.404   0.407   0.407
  0.413   0.416   0.418   0.421   0.435   0.438   0.442   0.450
  0.456   0.457   0.466   0.469   0.476   0.478   0.484   0.492
  0.493   0.496   0.501   0.504   0.512   0.524   0.531   0.536
  0.540   0.552   0.560   0.565   0.574   0.579   0.583   0.588
  0.591   0.597   0.605   0.610   0.614   0.621   0.636   0.647
  0.661   0.671   0.675   0.679   0.686   0.691   0.698   0.702
  0.712   0.716   0.723   0.725   0.733   0.736   0.744   0.747
  0.758   0.762   0.764   0.766   0.771   0.782   0.784   0.788
  0.794   0.802   0.806   0.806   0.817   0.819   0.829   0.843
  0.848   0.859   0.864   0.868   0.881   0.884   0.894   0.901
  0.905   0.916   0.930   0.934   0.970   0.976   0.979   0.991
  0.992   1.004   1.020   1.025   1.050   1.062   1.065   1.081
  1.092   1.097   1.125   1.138   1.150   1.154   1.178   1.198
  1.213   1.221   1.229   1.242   1.254   1.266   1.277   1.290
  1.300   1.307   1.358   1.375   1.387   1.405   1.410   1.418
  1.440   1.450   1.466   1.472   1.478   1.483   1.494   1.515
  1.521   1.537   1.541   1.554   1.600   1.608   1.653   1.665
  1.670   1.674   1.681   1.722   1.724   1.731   1.741   1.752
  1.759   1.762   1.769   1.775   1.778   1.802   1.811   1.817
  1.819   1.846   1.861   1.876   1.881   1.900   1.917   1.947
  1.957   1.971   1.975   1.983   1.992   2.005   2.017   2.028
  2.037   2.065   2.073   2.082   2.085   2.103   2.107   2.114
  2.133   2.143   2.167   2.174   2.200   2.214   2.219   2.241
  2.251   2.255   2.268   2.275   2.288   2.301   2.304   2.312
  2.348   2.365   2.407   2.435   2.465   2.491   2.528   2.592
  2.596   2.624   2.654   2.676   2.712   2.714   2.728   2.750
  2.767   2.787   2.796   2.810   2.825   2.844   2.858   2.884
  2.888   2.918   2.925   2.966   3.012   3.051   3.061   3.064
  3.088   3.091   3.097   3.112   3.122   3.125   3.143   3.161
  3.183   3.194   3.203   3.220   3.232   3.242   3.252   3.264
  3.268   3.284   3.298   3.302   3.308   3.334   3.347   3.352
  3.357   3.380   3.394   3.403   3.416   3.423   3.431   3.448
  3.473   3.493   3.504   3.512   3.514   3.523   3.545   3.547
  3.562   3.566   3.579   3.598   3.625   3.635   3.669   3.689
  3.691   3.711   3.725   3.737   3.754   3.774   3.788   3.789
  3.811   3.815   3.823   3.836   3.847   3.885   3.888   3.907
  3.922   3.927   3.944   3.949   3.964   3.983   4.014   4.028
  4.035   4.059   4.084   4.092   4.112   4.129   4.159   4.166
  4.179   4.229   4.248   4.281   4.291   4.301   4.330   4.357
  4.382   4.387   4.406   4.432   4.439   4.458   4.468   4.503
  4.566   4.587   4.610   4.625   4.638   4.668   4.706   4.744
  4.767   4.781   4.811   4.861   4.880   4.920   4.923   5.019
  5.043   5.077   5.095   5.198   5.211   5.236   5.251   5.261
  5.270   5.274   5.305   5.320   5.384   5.405   5.442   5.582
  5.644   5.660   5.784   5.803   5.824   5.887   6.232   6.267
  6.949   6.953   6.967   6.972   7.079   7.087   7.152   7.196
  7.473   7.570   9.226   9.246   9.694   9.747   9.760   9.780
 20.638  20.893  23.144  23.216  23.294  23.411  23.456  23.686
 23.955  24.025
 --------------------------------------------------------------
 
          Ground-State Mulliken Net Atomic Charges

     Atom                 Charge (a.u.)    Spin (a.u.)
  --------------------------------------------------------
      1 S                    -0.120326       0.058257
      2 C                    -0.187844       0.002317
      3 H                     0.229289       0.002069
      4 C                    -0.216789       0.000771
      5 H                     0.160544       0.001025
      6 C                    -0.340255       0.041635
      7 H                     0.209246      -0.008055
      8 C                     0.358454       0.157892
      9 C                     0.067791       0.538995
     10 C                    -0.251397       0.262862
     11 H                     0.219108       0.014290
     12 C                    -0.051808       0.094561
     13 H                     0.176565       0.001578
     14 C                    -0.337243       0.663292
     15 H                     0.262690       0.020572
     16 S                    -0.178024       0.147939
  --------------------------------------------------------
  Sum of atomic charges =    -0.000000
  Sum of spin   charges =     2.000000

 -----------------------------------------------------------------
                    Cartesian Multipole Moments
 -----------------------------------------------------------------
    Charge (ESU x 10^10)
                -9.6064
    Dipole Moment (Debye)
         X      20.4897      Y      -4.5738      Z      28.7107
       Tot      35.5676
    Quadrupole Moments (Debye-Ang)
        XX    -121.0940     XY      10.4255     YY     -84.2236
        XZ     -61.7243     YZ      14.9047     ZZ    -167.9395
    Octopole Moments (Debye-Ang^2)
       XXX     319.9156    XXY     -53.3478    XYY      66.4290
       YYY     -77.8415    XXZ     306.5467    XYZ     -30.9023
       YYZ     177.7229    XZZ     271.7546    YZZ     -69.3627
       ZZZ     797.1772
    Hexadecapole Moments (Debye-Ang^3)
      XXXX   -2244.2291   XXXY     177.6660   XXYY    -414.5895
      XYYY     112.9962   YYYY    -442.3233   XXXZ   -1209.6191
      XXYZ     155.7013   XYYZ    -291.3591   YYYZ     193.4058
      XXZZ   -1289.6194   XYZZ     128.3143   YYZZ    -621.9362
      XZZZ   -1557.1470   YZZZ     334.3790   ZZZZ   -4116.6219
 -----------------------------------------------------------------
 Calculating analytic gradient of the SCF energy
 Number of grid points used for NLC = 44616
 Gradient of SCF Energy
            1           2           3           4           5           6
    1   0.0068412   0.0033859   0.0005124  -0.0112758   0.0003559   0.0190529
    2  -0.0008160   0.0009259  -0.0001188  -0.0001448   0.0002881  -0.0014303
    3   0.0011652   0.0066761   0.0000455  -0.0084945   0.0015327   0.0054193
            7           8           9          10          11          12
    1  -0.0021151  -0.0317552   0.0183215   0.0040728  -0.0013238  -0.0063216
    2   0.0002161   0.0020632  -0.0013559  -0.0014434  -0.0003031   0.0119440
    3   0.0006770  -0.0154525   0.0114238   0.0019704  -0.0005648  -0.0070466
           13          14          15          16
    1   0.0001593   0.0042372   0.0002129  -0.0043607
    2  -0.0009654  -0.0095557   0.0001734   0.0005229
    3   0.0004834   0.0051163  -0.0001090  -0.0028423
 Max gradient component =       3.176E-02
 RMS gradient           =       7.703E-03
 Gradient time:  CPU 90.94 s  wall 90.61 s
 Geometry Optimization Parameters
   NAtoms,    NIC,     NZ,  NCons,   NDum,   NFix, NCnnct, MaxDiis
       16     111       0       1       0       0       0       0

 Cartesian Hessian Update
 Hessian Updated using BFGS Update


** CONSTRAINED OPTIMIZATION IN DELOCALIZED INTERNAL COORDINATES **
   Searching for a Minimum

   Optimization Cycle:   2

                       Coordinates (Angstroms)
     ATOM                X               Y               Z
      1  S         0.0556096915    0.4442222238   -0.0697817737
      2  C         1.7410025724    0.2143532873   -0.0243183926
      3  H         2.2943101446    0.3270219200    0.8930747900
      4  C         2.2191369828   -0.1096529889   -1.2604898745
      5  H         3.2680543597   -0.2936161461   -1.4410317597
      6  C         1.2224019396   -0.1754010756   -2.2457378415
      7  H         1.3897649827   -0.4144347917   -3.2845427379
      8  C        -0.0510626369    0.0975547976   -1.7811691370
      9  C        -1.2790656469    0.1150934219   -2.4928708302
     10  C        -2.2251848786   -1.0123046608   -2.7095306341
     11  H        -2.0337504168   -1.9994902537   -2.3189853387
     12  C        -3.3066839381   -0.6586709533   -3.4248008691
     13  H        -4.1042762044   -1.3389967363   -3.6843750831
     14  C        -3.3051271963    0.7169617685   -3.8140136293
     15  H        -4.0663961582    1.2191690276   -4.3860839253
     16  S        -1.8963417671    1.6020395399   -3.2696706433
   Point Group: c1    Number of degrees of freedom:    42


   Energy is  -1104.659720319

              Constraints and their Current Values
                                        Value     Constraint
   Dihedral:        6   8   9  10       90.000       90.000
 Hessian Updated using BFGS Update

 40 Hessian modes will be used to form the next step
  Hessian Eigenvalues:
     0.044985    0.045000    0.045000    0.045000    0.045000    0.045000
     0.045000    0.045000    0.045000    0.045000    0.045003    0.159753
     0.160000    0.160000    0.160000    0.160000    0.160549    0.219916
     0.221653    0.236242    0.245346    0.249663    0.250030    0.273810
     0.282212    0.315581    0.323027    0.354182    0.359860    0.359889
     0.361141    0.361326    0.363991    0.363999    0.384102    0.431141
     0.455902    0.478975    0.491834    0.531154

 Minimum Search - Taking Simple RFO Step
 Searching for Lamda that Minimizes Along All modes
 Value Taken    Lamda =  -0.00299014
 Step Taken.  Stepsize is  0.107302

                             Maximum     Tolerance    Cnvgd?
         Gradient           0.014821      0.000300      NO
         Displacement       0.045111      0.001200      NO
         Energy change     -0.018327      0.000001      NO


 New Cartesian Coordinates Obtained by Inverse Iteration

 Displacement from previous Coordinates is:  0.128552
 ----------------------------------------------------------------
             Standard Nuclear Orientation (Angstroms)
    I     Atom           X                Y                Z
 ----------------------------------------------------------------
    1      S       0.0368196807     0.4490819012    -0.0814848971
    2      C       1.7217035082     0.2126185287    -0.0356537379
    3      H       2.2623714110     0.3280989163     0.8883698768
    4      C       2.2250274706    -0.1158375220    -1.2573122768
    5      H       3.2730643742    -0.3040365573    -1.4382405769
    6      C       1.2203753358    -0.1787080564    -2.2499553267
    7      H       1.3969616713    -0.4190933993    -3.2887288184
    8      C      -0.0291480985     0.0977349033    -1.7809007339
    9      C      -1.2776473641     0.1194125851    -2.5040947086
   10      C      -2.2186709119    -1.0121089645    -2.7110730808
   11      H      -2.0100896888    -1.9942334032    -2.3158680759
   12      C      -3.2998153230    -0.6654279763    -3.4146961243
   13      H      -4.0990559708    -1.3439658573    -3.6712022320
   14      C      -3.3104268556     0.7255659870    -3.8097696056
   15      H      -4.0786476434     1.2253649156    -4.3746367524
   16      S      -1.8904297659     1.6093823789    -3.2690806096
 ----------------------------------------------------------------
 Nuclear Repulsion Energy =   627.4283826359 hartrees
 There are       44 alpha and       42 beta electrons
 Applying Cartesian multipole field
    Component          Value
    ---------          -----
     (2,0,0)        1.00000E-11
     (0,2,0)        2.00000E-11
     (0,0,2)       -3.00000E-11
 Nucleus-field energy     =    -0.0000000390 hartrees
 Requested basis set is def2-TZVPPD
 There are 180 shells and 500 basis functions
 A cutoff of  1.0D-14 yielded  14426 shell pairs
 There are    112034 function pairs (    144505 Cartesian)
 Smallest overlap matrix eigenvalue = 1.61E-06
 Guess MOs from SCF MO coefficient file
 Reading MOs from coefficient file
 Reading MOs from coefficient file
 Long-range K will be added via erf
 Coulomb attenuation parameter = 0.3 bohr**(-1)
 An unrestricted hybrid HF-DFT SCF calculation will be
 performed using Pulay DIIS extrapolation
 Exchange:     0.1500 Hartree-Fock + 1.0000 wB97M-V + LR-HF
 Correlation:  1.0000 wB97M-V
 Using SG-2 standard quadrature grid
 Nonlocal Correlation:  VV10 with C = 0.0100 and b = 6.00
 Grid used for NLC:  SG-1 standard quadrature
 SCF converges when DIIS error is below 1.0E-08
 Geometry optimization detected.  Setting ReadMinima to 0
 Setting SaveMinima to 0
 Inaccurate integrated density:
   Number of electrons =    86
   Numerical integral  =    86.025161926867
   Relative error      =     0.0292580545 %
 Number of grid points used for NLC = 44613
 ---------------------------------------
  Cycle       Energy         DIIS Error
 ---------------------------------------
    1   -1104.7152674973      8.31E-04
 Number of grid points used for NLC = 44624
    2   -1104.6608781642      1.05E-04
 Number of grid points used for NLC = 44607
    3   -1104.6610915378      8.75E-05
 Number of grid points used for NLC = 44609
    4   -1104.6613196615      1.75E-05
 Number of grid points used for NLC = 44607
    5   -1104.6613372647      8.13E-06
 Number of grid points used for NLC = 44606
    6   -1104.6613472533      3.56E-06
 Number of grid points used for NLC = 44605
    7   -1104.6613546960      2.22E-06
 Number of grid points used for NLC = 44604
    8   -1104.6613587202      1.54E-06
 Number of grid points used for NLC = 44604
    9   -1104.6613629086      8.84E-07
 Number of grid points used for NLC = 44605
   10   -1104.6613643650      5.94E-07
 Number of grid points used for NLC = 44605
   11   -1104.6613650353      2.70E-07
 Number of grid points used for NLC = 44605
   12   -1104.6613651543      1.76E-07
 Number of grid points used for NLC = 44605
   13   -1104.6613651781      9.09E-08
 Number of grid points used for NLC = 44605
   14   -1104.6613651869      4.68E-08
 Number of grid points used for NLC = 44605
   15   -1104.6613651883      1.71E-08
 Number of grid points used for NLC = 44605
   16   -1104.6613651884      7.80E-09 Convergence criterion met
 ---------------------------------------
 <S^2> = 2.0084
 SCF time:  CPU 459.63 s  wall 459.15 s
 SCF   energy in the final basis set = -1104.66136519
 Total energy in the final basis set = -1104.66136519
 
 --------------------------------------------------------------
 
                    Orbital Energies (a.u.)
 --------------------------------------------------------------
 
 Alpha MOs
 -- Occupied --
-89.209 -89.196 -10.400 -10.388 -10.384 -10.373 -10.362 -10.361
-10.353 -10.351  -8.145  -8.131  -6.055  -6.051  -6.049  -6.041
 -6.038  -6.035  -1.023  -0.997  -0.893  -0.868  -0.862  -0.817
 -0.721  -0.679  -0.676  -0.646  -0.635  -0.582  -0.525  -0.524
 -0.509  -0.505  -0.494  -0.483  -0.477  -0.449  -0.444  -0.374
 -0.359  -0.347  -0.330  -0.205
 -- Virtual --
  0.032   0.034   0.043   0.047   0.048   0.057   0.066   0.068
  0.070   0.084   0.087   0.094   0.099   0.104   0.113   0.119
  0.125   0.139   0.141   0.154   0.162   0.172   0.172   0.176
  0.183   0.191   0.195   0.207   0.212   0.220   0.222   0.230
  0.231   0.233   0.237   0.242   0.250   0.254   0.259   0.261
  0.269   0.269   0.275   0.277   0.294   0.296   0.299   0.306
  0.307   0.314   0.318   0.322   0.328   0.329   0.333   0.342
  0.343   0.347   0.350   0.352   0.356   0.357   0.361   0.376
  0.383   0.393   0.399   0.402   0.405   0.405   0.411   0.414
  0.415   0.420   0.433   0.435   0.441   0.448   0.452   0.457
  0.465   0.466   0.476   0.476   0.482   0.489   0.491   0.497
  0.498   0.504   0.509   0.523   0.528   0.536   0.540   0.550
  0.559   0.563   0.571   0.575   0.582   0.586   0.592   0.596
  0.601   0.607   0.612   0.621   0.633   0.645   0.660   0.667
  0.676   0.676   0.685   0.691   0.696   0.700   0.711   0.711
  0.721   0.723   0.730   0.735   0.742   0.744   0.756   0.758
  0.762   0.763   0.770   0.778   0.781   0.788   0.792   0.798
  0.804   0.807   0.816   0.818   0.828   0.840   0.843   0.856
  0.862   0.866   0.878   0.881   0.891   0.898   0.902   0.913
  0.925   0.934   0.965   0.969   0.974   0.986   0.989   0.994
  1.013   1.020   1.049   1.054   1.063   1.077   1.087   1.091
  1.123   1.130   1.140   1.151   1.175   1.191   1.208   1.214
  1.225   1.240   1.252   1.262   1.269   1.284   1.295   1.302
  1.356   1.367   1.379   1.399   1.409   1.417   1.432   1.440
  1.458   1.465   1.474   1.480   1.494   1.507   1.514   1.529
  1.537   1.551   1.596   1.599   1.646   1.656   1.663   1.670
  1.676   1.712   1.718   1.725   1.736   1.744   1.749   1.758
  1.762   1.768   1.774   1.780   1.800   1.805   1.813   1.837
  1.846   1.872   1.875   1.888   1.908   1.940   1.950   1.952
  1.970   1.975   1.986   1.999   2.008   2.026   2.031   2.056
  2.064   2.074   2.079   2.087   2.100   2.107   2.122   2.135
  2.154   2.162   2.182   2.203   2.212   2.225   2.237   2.249
  2.254   2.257   2.275   2.291   2.300   2.311   2.331   2.354
  2.391   2.431   2.460   2.481   2.519   2.583   2.591   2.610
  2.631   2.665   2.698   2.703   2.720   2.735   2.750   2.773
  2.778   2.800   2.815   2.834   2.846   2.874   2.877   2.902
  2.909   2.960   2.989   3.028   3.043   3.054   3.077   3.078
  3.091   3.101   3.113   3.120   3.125   3.145   3.170   3.180
  3.188   3.196   3.197   3.224   3.239   3.243   3.259   3.268
  3.280   3.288   3.293   3.322   3.323   3.332   3.344   3.363
  3.384   3.389   3.408   3.411   3.420   3.434   3.453   3.468
  3.494   3.501   3.507   3.516   3.528   3.540   3.543   3.549
  3.572   3.578   3.615   3.624   3.651   3.668   3.678   3.696
  3.708   3.724   3.742   3.758   3.768   3.778   3.791   3.801
  3.809   3.829   3.834   3.865   3.878   3.896   3.913   3.916
  3.929   3.941   3.957   3.978   3.998   4.022   4.030   4.045
  4.073   4.080   4.096   4.114   4.147   4.150   4.170   4.210
  4.232   4.261   4.277   4.288   4.323   4.354   4.364   4.371
  4.396   4.425   4.431   4.455   4.462   4.496   4.557   4.576
  4.595   4.609   4.625   4.654   4.696   4.732   4.750   4.772
  4.804   4.831   4.864   4.879   4.921   4.998   5.025   5.059
  5.089   5.183   5.198   5.209   5.238   5.246   5.249   5.265
  5.293   5.306   5.354   5.400   5.412   5.558   5.606   5.658
  5.762   5.782   5.824   5.882   6.213   6.249   6.947   6.952
  6.967   6.972   7.074   7.088   7.151   7.191   7.465   7.582
  9.224   9.240   9.688   9.743   9.760   9.788  20.619  20.931
 23.103  23.184  23.297  23.388  23.450  23.709  23.959  24.032
 
 Beta MOs
 -- Occupied --
-89.209 -89.195 -10.387 -10.384 -10.376 -10.373 -10.361 -10.360
-10.352 -10.351  -8.144  -8.130  -6.054  -6.050  -6.049  -6.041
 -6.038  -6.031  -1.019  -0.985  -0.882  -0.860  -0.858  -0.800
 -0.708  -0.674  -0.665  -0.641  -0.630  -0.575  -0.519  -0.508
 -0.502  -0.498  -0.484  -0.470  -0.448  -0.439  -0.438  -0.351
 -0.342  -0.330
 -- Virtual --
 -0.064   0.032   0.034   0.043   0.047   0.048   0.056   0.061
  0.067   0.070   0.070   0.086   0.088   0.094   0.104   0.111
  0.119   0.121   0.137   0.140   0.143   0.155   0.163   0.172
  0.173   0.176   0.186   0.193   0.195   0.212   0.214   0.221
  0.223   0.231   0.232   0.236   0.239   0.247   0.251   0.255
  0.261   0.265   0.272   0.272   0.277   0.279   0.295   0.297
  0.301   0.306   0.308   0.317   0.320   0.323   0.329   0.331
  0.334   0.343   0.344   0.348   0.350   0.355   0.357   0.358
  0.363   0.384   0.385   0.394   0.399   0.405   0.406   0.408
  0.413   0.416   0.417   0.421   0.434   0.438   0.442   0.449
  0.455   0.457   0.467   0.468   0.476   0.479   0.483   0.491
  0.494   0.497   0.502   0.505   0.510   0.524   0.531   0.536
  0.541   0.551   0.559   0.565   0.574   0.578   0.583   0.588
  0.593   0.597   0.606   0.609   0.615   0.622   0.635   0.648
  0.661   0.671   0.676   0.679   0.687   0.692   0.699   0.702
  0.712   0.717   0.723   0.726   0.732   0.737   0.744   0.746
  0.759   0.761   0.764   0.766   0.771   0.781   0.783   0.789
  0.795   0.800   0.806   0.808   0.818   0.820   0.829   0.843
  0.846   0.859   0.864   0.868   0.882   0.884   0.893   0.903
  0.904   0.916   0.929   0.936   0.969   0.975   0.979   0.991
  0.992   1.003   1.018   1.025   1.050   1.059   1.066   1.081
  1.092   1.098   1.128   1.136   1.148   1.154   1.178   1.199
  1.212   1.219   1.232   1.243   1.256   1.268   1.275   1.290
  1.300   1.308   1.359   1.375   1.387   1.404   1.411   1.419
  1.439   1.450   1.463   1.470   1.477   1.482   1.498   1.512
  1.519   1.536   1.541   1.555   1.602   1.606   1.654   1.664
  1.672   1.675   1.682   1.720   1.723   1.731   1.741   1.751
  1.758   1.762   1.769   1.776   1.777   1.802   1.811   1.815
  1.819   1.845   1.861   1.878   1.883   1.900   1.917   1.946
  1.958   1.973   1.974   1.981   1.991   2.007   2.018   2.031
  2.040   2.062   2.074   2.084   2.084   2.103   2.108   2.112
  2.131   2.141   2.165   2.174   2.199   2.212   2.222   2.238
  2.249   2.257   2.269   2.274   2.283   2.300   2.304   2.317
  2.343   2.365   2.403   2.438   2.472   2.491   2.523   2.593
  2.596   2.623   2.655   2.673   2.711   2.714   2.730   2.747
  2.767   2.780   2.795   2.809   2.825   2.846   2.860   2.880
  2.889   2.918   2.920   2.970   3.010   3.050   3.062   3.066
  3.088   3.092   3.099   3.110   3.126   3.128   3.135   3.167
  3.183   3.192   3.202   3.216   3.231   3.241   3.250   3.262
  3.265   3.284   3.298   3.304   3.309   3.335   3.348   3.352
  3.358   3.377   3.398   3.402   3.414   3.421   3.434   3.449
  3.474   3.493   3.506   3.513   3.517   3.523   3.545   3.549
  3.559   3.564   3.584   3.600   3.623   3.635   3.671   3.684
  3.690   3.710   3.723   3.736   3.757   3.773   3.787   3.789
  3.808   3.815   3.823   3.840   3.848   3.883   3.888   3.908
  3.921   3.928   3.941   3.952   3.963   3.985   4.011   4.029
  4.035   4.056   4.082   4.095   4.109   4.127   4.155   4.163
  4.176   4.221   4.245   4.273   4.285   4.297   4.329   4.368
  4.370   4.379   4.409   4.431   4.435   4.460   4.466   4.508
  4.564   4.584   4.608   4.624   4.639   4.664   4.704   4.745
  4.766   4.782   4.815   4.853   4.869   4.917   4.925   5.020
  5.041   5.075   5.096   5.197   5.215   5.229   5.244   5.261
  5.264   5.272   5.302   5.317   5.379   5.408   5.441   5.579
  5.636   5.670   5.783   5.799   5.827   5.897   6.232   6.252
  6.948   6.953   6.968   6.974   7.078   7.089   7.151   7.192
  7.469   7.584   9.227   9.245   9.689   9.744   9.760   9.789
 20.621  20.932  23.111  23.188  23.301  23.398  23.450  23.709
 23.960  24.034
 --------------------------------------------------------------
 
          Ground-State Mulliken Net Atomic Charges

     Atom                 Charge (a.u.)    Spin (a.u.)
  --------------------------------------------------------
      1 S                    -0.118080       0.048194
      2 C                    -0.206079       0.002413
      3 H                     0.226050       0.001860
      4 C                    -0.216753       0.001261
      5 H                     0.166020       0.000909
      6 C                    -0.337433       0.035414
      7 H                     0.208674      -0.007819
      8 C                     0.392212       0.153501
      9 C                     0.051951       0.551567
     10 C                    -0.246688       0.224646
     11 H                     0.216405       0.013350
     12 C                    -0.049240       0.118815
     13 H                     0.177894       0.002507
     14 C                    -0.354960       0.683382
     15 H                     0.267614       0.019648
     16 S                    -0.177584       0.150352
  --------------------------------------------------------
  Sum of atomic charges =    -0.000000
  Sum of spin   charges =     2.000000

 -----------------------------------------------------------------
                    Cartesian Multipole Moments
 -----------------------------------------------------------------
    Charge (ESU x 10^10)
                -9.6064
    Dipole Moment (Debye)
         X      20.9026      Y      -4.8251      Z      29.1274
       Tot      36.1747
    Quadrupole Moments (Debye-Ang)
        XX    -122.8605     XY      10.9312     YY     -84.2180
        XZ     -63.8013     YZ      15.7438     ZZ    -169.9737
    Octopole Moments (Debye-Ang^2)
       XXX     327.3640    XXY     -54.9178    XYY      66.9617
       YYY     -78.8926    XXZ     313.4223    XYZ     -32.4601
       YYZ     178.3070    XZZ     280.1535    YZZ     -72.1030
       ZZZ     807.5206
    Hexadecapole Moments (Debye-Ang^3)
      XXXX   -2266.4781   XXXY     181.8802   XXYY    -415.7955
      XYYY     115.8239   YYYY    -445.5395   XXXZ   -1235.9058
      XXYZ     159.9397   XYYZ    -292.3107   YYYZ     196.8333
      XXZZ   -1317.2301   XYZZ     133.9307   YYZZ    -624.1474
      XZZZ   -1589.9253   YZZZ     345.2669   ZZZZ   -4159.2555
 -----------------------------------------------------------------
 Calculating analytic gradient of the SCF energy
 Number of grid points used for NLC = 44605
 Gradient of SCF Energy
            1           2           3           4           5           6
    1   0.0020323  -0.0024898  -0.0002545  -0.0028213   0.0005289  -0.0000082
    2  -0.0002134   0.0002926  -0.0000791  -0.0003693  -0.0000194   0.0013512
    3   0.0011355  -0.0004899  -0.0004594  -0.0036033   0.0001524   0.0062898
            7           8           9          10          11          12
    1  -0.0007263   0.0006394   0.0065888  -0.0035388  -0.0004684   0.0004868
    2  -0.0001129  -0.0005538   0.0011450  -0.0033613  -0.0001180   0.0042180
    3  -0.0003626  -0.0050681   0.0047318  -0.0015704  -0.0000903  -0.0010796
           13          14          15          16
    1   0.0004425   0.0008096   0.0000151  -0.0012361
    2  -0.0005175  -0.0041374   0.0002974   0.0021780
    3   0.0004805   0.0016906  -0.0002477  -0.0015094
 Max gradient component =       6.589E-03
 RMS gradient           =       2.259E-03
 Gradient time:  CPU 90.83 s  wall 90.40 s
 Geometry Optimization Parameters
   NAtoms,    NIC,     NZ,  NCons,   NDum,   NFix, NCnnct, MaxDiis
       16     111       0       1       0       0       0       0

 Cartesian Hessian Update
 Hessian Updated using BFGS Update


** CONSTRAINED OPTIMIZATION IN DELOCALIZED INTERNAL COORDINATES **
   Searching for a Minimum

   Optimization Cycle:   3

                       Coordinates (Angstroms)
     ATOM                X               Y               Z
      1  S         0.0368196807    0.4490819012   -0.0814848971
      2  C         1.7217035082    0.2126185287   -0.0356537379
      3  H         2.2623714110    0.3280989163    0.8883698768
      4  C         2.2250274706   -0.1158375220   -1.2573122768
      5  H         3.2730643742   -0.3040365573   -1.4382405769
      6  C         1.2203753358   -0.1787080564   -2.2499553267
      7  H         1.3969616713   -0.4190933993   -3.2887288184
      8  C        -0.0291480985    0.0977349033   -1.7809007339
      9  C        -1.2776473641    0.1194125851   -2.5040947086
     10  C        -2.2186709119   -1.0121089645   -2.7110730808
     11  H        -2.0100896888   -1.9942334032   -2.3158680759
     12  C        -3.2998153230   -0.6654279763   -3.4146961243
     13  H        -4.0990559708   -1.3439658573   -3.6712022320
     14  C        -3.3104268556    0.7255659870   -3.8097696056
     15  H        -4.0786476434    1.2253649156   -4.3746367524
     16  S        -1.8904297659    1.6093823789   -3.2690806096
   Point Group: c1    Number of degrees of freedom:    42


   Energy is  -1104.661365188

              Constraints and their Current Values
                                        Value     Constraint
   Dihedral:        6   8   9  10       90.000       90.000
 Hessian Updated using BFGS Update

 39 Hessian modes will be used to form the next step
  Hessian Eigenvalues:
     0.044562    0.045000    0.045000    0.045000    0.045000    0.045000
     0.045000    0.045000    0.045000    0.045002    0.045004    0.150904
     0.160000    0.160000    0.160070    0.160372    0.220540    0.223587
     0.229596    0.238092    0.249994    0.251482    0.273067    0.282133
     0.310669    0.323605    0.350946    0.359881    0.360006    0.361142
     0.361371    0.363992    0.364270    0.409203    0.414560    0.455967
     0.476200    0.504111    0.529217

 Minimum Search - Taking Simple RFO Step
 Searching for Lamda that Minimizes Along All modes
 Value Taken    Lamda =  -0.00036138
 Step Taken.  Stepsize is  0.041149

                             Maximum     Tolerance    Cnvgd?
         Gradient           0.003303      0.000300      NO
         Displacement       0.016481      0.001200      NO
         Energy change     -0.001645      0.000001      NO


 New Cartesian Coordinates Obtained by Inverse Iteration

 Displacement from previous Coordinates is:  0.080461
 ----------------------------------------------------------------
             Standard Nuclear Orientation (Angstroms)
    I     Atom           X                Y                Z
 ----------------------------------------------------------------
    1      S       0.0321468742     0.4527173007    -0.0911053283
    2      C       1.7200854600     0.2136174416    -0.0336072334
    3      H       2.2554037825     0.3315756591     0.8941540636
    4      C       2.2295669087    -0.1187880113    -1.2510764258
    5      H       3.2770657742    -0.3091168691    -1.4280533209
    6      C       1.2265527641    -0.1835421494    -2.2551041833
    7      H       1.4141941887    -0.4261848125    -3.2911823996
    8      C      -0.0263204326     0.0972067186    -1.7871283099
    9      C      -1.2807065274     0.1198336938    -2.5150217472
   10      C      -2.2154339212    -1.0096468483    -2.7152845263
   11      H      -1.9965252948    -1.9891572905    -2.3190410604
   12      C      -3.3030078432    -0.6681573262    -3.4121037456
   13      H      -4.1049742406    -1.3442542564    -3.6670381229
   14      C      -3.3195827736     0.7297257258    -3.8073358609
   15      H      -4.0926292102     1.2292605481    -4.3650194562
   16      S      -1.8934436790     1.6087588559    -3.2703800229
 ----------------------------------------------------------------
 Nuclear Repulsion Energy =   627.1313106403 hartrees
 There are       44 alpha and       42 beta electrons
 Applying Cartesian multipole field
    Component          Value
    ---------          -----
     (2,0,0)        1.00000E-11
     (0,2,0)        2.00000E-11
     (0,0,2)       -3.00000E-11
 Nucleus-field energy     =    -0.0000000390 hartrees
 Requested basis set is def2-TZVPPD
 There are 180 shells and 500 basis functions
 A cutoff of  1.0D-14 yielded  14427 shell pairs
 There are    112057 function pairs (    144534 Cartesian)
 Smallest overlap matrix eigenvalue = 1.63E-06
 Guess MOs from SCF MO coefficient file
 Reading MOs from coefficient file
 Reading MOs from coefficient file
 Long-range K will be added via erf
 Coulomb attenuation parameter = 0.3 bohr**(-1)
 An unrestricted hybrid HF-DFT SCF calculation will be
 performed using Pulay DIIS extrapolation
 Exchange:     0.1500 Hartree-Fock + 1.0000 wB97M-V + LR-HF
 Correlation:  1.0000 wB97M-V
 Using SG-2 standard quadrature grid
 Nonlocal Correlation:  VV10 with C = 0.0100 and b = 6.00
 Grid used for NLC:  SG-1 standard quadrature
 SCF converges when DIIS error is below 1.0E-08
 Geometry optimization detected.  Setting ReadMinima to 0
 Setting SaveMinima to 0
 Number of grid points used for NLC = 44604
 ---------------------------------------
  Cycle       Energy         DIIS Error
 ---------------------------------------
    1   -1104.6806022345      3.11E-04
 Number of grid points used for NLC = 44612
    2   -1104.6614955140      4.25E-05
 Number of grid points used for NLC = 44602
    3   -1104.6615224918      3.96E-05
 Number of grid points used for NLC = 44601
    4   -1104.6615725582      5.35E-06
 Number of grid points used for NLC = 44600
    5   -1104.6615759089      3.08E-06
 Number of grid points used for NLC = 44599
    6   -1104.6615780016      1.79E-06
 Number of grid points used for NLC = 44600
    7   -1104.6615794773      1.08E-06
 Number of grid points used for NLC = 44600
    8   -1104.6615806201      7.48E-07
 Number of grid points used for NLC = 44600
    9   -1104.6615816887      4.05E-07
 Number of grid points used for NLC = 44600
   10   -1104.6615820136      2.71E-07
 Number of grid points used for NLC = 44600
   11   -1104.6615821422      1.31E-07
 Number of grid points used for NLC = 44600
   12   -1104.6615821675      8.32E-08
 Number of grid points used for NLC = 44600
   13   -1104.6615821746      4.84E-08
 Number of grid points used for NLC = 44600
   14   -1104.6615821761      2.07E-08
 Number of grid points used for NLC = 44600
   15   -1104.6615821763      8.43E-09 Convergence criterion met
 ---------------------------------------
 <S^2> = 2.0079
 SCF time:  CPU 424.76 s  wall 420.44 s
 SCF   energy in the final basis set = -1104.66158218
 Total energy in the final basis set = -1104.66158218
 
 --------------------------------------------------------------
 
                    Orbital Energies (a.u.)
 --------------------------------------------------------------
 
 Alpha MOs
 -- Occupied --
-89.209 -89.196 -10.400 -10.388 -10.385 -10.373 -10.362 -10.362
-10.354 -10.351  -8.145  -8.131  -6.055  -6.051  -6.050  -6.041
 -6.038  -6.035  -1.023  -0.997  -0.892  -0.868  -0.861  -0.818
 -0.720  -0.679  -0.676  -0.646  -0.634  -0.582  -0.525  -0.524
 -0.509  -0.504  -0.493  -0.483  -0.477  -0.449  -0.444  -0.374
 -0.359  -0.346  -0.331  -0.205
 -- Virtual --
  0.032   0.034   0.043   0.047   0.048   0.057   0.066   0.068
  0.070   0.084   0.087   0.094   0.098   0.104   0.113   0.119
  0.124   0.139   0.142   0.154   0.161   0.171   0.172   0.176
  0.183   0.191   0.195   0.207   0.212   0.220   0.222   0.230
  0.230   0.233   0.237   0.242   0.250   0.254   0.259   0.261
  0.269   0.269   0.275   0.276   0.294   0.296   0.299   0.306
  0.307   0.314   0.318   0.322   0.328   0.329   0.333   0.342
  0.343   0.346   0.350   0.352   0.356   0.357   0.361   0.376
  0.382   0.393   0.399   0.401   0.405   0.405   0.411   0.414
  0.415   0.420   0.433   0.436   0.441   0.448   0.451   0.456
  0.464   0.466   0.476   0.476   0.482   0.489   0.491   0.497
  0.498   0.504   0.509   0.523   0.528   0.536   0.541   0.551
  0.558   0.563   0.571   0.575   0.581   0.585   0.592   0.596
  0.601   0.606   0.611   0.620   0.632   0.646   0.660   0.666
  0.676   0.676   0.685   0.690   0.696   0.700   0.710   0.712
  0.721   0.723   0.730   0.734   0.742   0.743   0.755   0.758
  0.761   0.763   0.770   0.778   0.780   0.788   0.793   0.797
  0.804   0.807   0.816   0.817   0.828   0.839   0.843   0.855
  0.862   0.866   0.878   0.881   0.890   0.897   0.902   0.912
  0.925   0.933   0.964   0.968   0.974   0.985   0.989   0.993
  1.014   1.020   1.049   1.052   1.063   1.076   1.088   1.091
  1.122   1.128   1.140   1.150   1.175   1.191   1.206   1.213
  1.225   1.240   1.252   1.262   1.267   1.283   1.294   1.301
  1.356   1.366   1.379   1.398   1.408   1.416   1.432   1.439
  1.457   1.464   1.473   1.479   1.494   1.506   1.512   1.528
  1.536   1.550   1.596   1.597   1.645   1.655   1.663   1.670
  1.676   1.711   1.717   1.725   1.736   1.743   1.749   1.757
  1.761   1.768   1.773   1.779   1.799   1.804   1.813   1.837
  1.846   1.872   1.875   1.888   1.908   1.939   1.949   1.950
  1.969   1.973   1.985   1.999   2.009   2.026   2.031   2.056
  2.065   2.074   2.079   2.086   2.099   2.107   2.121   2.134
  2.152   2.161   2.185   2.201   2.211   2.224   2.236   2.248
  2.254   2.257   2.274   2.291   2.298   2.309   2.331   2.354
  2.389   2.431   2.460   2.480   2.515   2.582   2.591   2.610
  2.630   2.663   2.696   2.701   2.719   2.733   2.749   2.772
  2.777   2.799   2.812   2.832   2.847   2.872   2.876   2.899
  2.908   2.957   2.990   3.027   3.044   3.053   3.077   3.078
  3.089   3.100   3.113   3.119   3.124   3.144   3.169   3.179
  3.187   3.195   3.197   3.224   3.239   3.242   3.258   3.267
  3.280   3.288   3.293   3.320   3.323   3.332   3.344   3.360
  3.382   3.389   3.404   3.409   3.419   3.432   3.452   3.467
  3.492   3.501   3.508   3.515   3.527   3.539   3.543   3.548
  3.571   3.576   3.612   3.623   3.652   3.665   3.675   3.693
  3.705   3.722   3.741   3.758   3.767   3.776   3.792   3.799
  3.806   3.827   3.833   3.863   3.875   3.895   3.911   3.913
  3.927   3.940   3.955   3.977   3.992   4.021   4.029   4.042
  4.071   4.080   4.095   4.111   4.144   4.149   4.166   4.205
  4.225   4.258   4.274   4.284   4.318   4.350   4.358   4.364
  4.393   4.422   4.429   4.452   4.461   4.496   4.553   4.569
  4.591   4.607   4.620   4.650   4.694   4.732   4.748   4.769
  4.803   4.825   4.861   4.877   4.919   4.999   5.024   5.058
  5.083   5.184   5.195   5.207   5.234   5.242   5.248   5.263
  5.291   5.302   5.351   5.399   5.410   5.560   5.603   5.652
  5.759   5.779   5.818   5.878   6.210   6.240   6.946   6.952
  6.967   6.973   7.075   7.088   7.152   7.189   7.469   7.580
  9.224   9.240   9.688   9.742   9.761   9.785  20.625  20.925
 23.096  23.180  23.297  23.379  23.441  23.698  23.947  24.019
 
 Beta MOs
 -- Occupied --
-89.209 -89.195 -10.387 -10.386 -10.376 -10.373 -10.361 -10.360
-10.353 -10.351  -8.144  -8.130  -6.054  -6.051  -6.049  -6.041
 -6.038  -6.031  -1.018  -0.985  -0.881  -0.859  -0.858  -0.800
 -0.707  -0.674  -0.666  -0.640  -0.629  -0.575  -0.519  -0.508
 -0.501  -0.498  -0.484  -0.470  -0.448  -0.439  -0.438  -0.351
 -0.342  -0.331
 -- Virtual --
 -0.064   0.032   0.034   0.043   0.047   0.048   0.056   0.062
  0.067   0.070   0.070   0.086   0.088   0.094   0.104   0.110
  0.119   0.121   0.137   0.140   0.143   0.155   0.163   0.172
  0.172   0.176   0.186   0.193   0.195   0.211   0.214   0.221
  0.223   0.231   0.232   0.236   0.239   0.247   0.251   0.255
  0.261   0.265   0.271   0.273   0.278   0.279   0.295   0.297
  0.300   0.306   0.308   0.317   0.320   0.323   0.329   0.331
  0.334   0.343   0.344   0.347   0.350   0.355   0.357   0.358
  0.363   0.384   0.384   0.394   0.399   0.405   0.405   0.408
  0.412   0.416   0.417   0.421   0.434   0.438   0.442   0.449
  0.454   0.457   0.467   0.468   0.476   0.478   0.483   0.490
  0.495   0.497   0.501   0.505   0.511   0.524   0.531   0.536
  0.541   0.551   0.559   0.565   0.574   0.577   0.582   0.588
  0.592   0.597   0.605   0.608   0.614   0.622   0.634   0.649
  0.662   0.670   0.676   0.679   0.687   0.691   0.699   0.702
  0.711   0.717   0.723   0.726   0.732   0.736   0.744   0.745
  0.759   0.761   0.763   0.765   0.771   0.781   0.783   0.789
  0.795   0.799   0.805   0.808   0.817   0.820   0.829   0.842
  0.845   0.858   0.864   0.867   0.882   0.884   0.892   0.902
  0.903   0.915   0.928   0.935   0.969   0.974   0.979   0.990
  0.992   1.003   1.018   1.026   1.050   1.057   1.066   1.080
  1.092   1.097   1.127   1.135   1.148   1.153   1.177   1.199
  1.212   1.218   1.232   1.242   1.256   1.267   1.274   1.289
  1.300   1.307   1.359   1.374   1.386   1.404   1.409   1.419
  1.439   1.449   1.462   1.469   1.476   1.481   1.498   1.511
  1.517   1.534   1.540   1.554   1.602   1.605   1.653   1.663
  1.671   1.675   1.681   1.719   1.722   1.730   1.741   1.750
  1.758   1.761   1.769   1.776   1.777   1.801   1.810   1.815
  1.820   1.845   1.860   1.877   1.883   1.900   1.918   1.944
  1.957   1.971   1.974   1.980   1.990   2.007   2.018   2.030
  2.040   2.061   2.075   2.083   2.084   2.103   2.108   2.112
  2.130   2.140   2.163   2.174   2.201   2.210   2.221   2.237
  2.247   2.255   2.271   2.273   2.282   2.299   2.303   2.316
  2.342   2.366   2.401   2.438   2.472   2.490   2.520   2.592
  2.596   2.623   2.654   2.671   2.709   2.712   2.729   2.746
  2.765   2.778   2.795   2.808   2.822   2.844   2.861   2.880
  2.888   2.916   2.918   2.967   3.012   3.049   3.063   3.065
  3.087   3.092   3.097   3.109   3.126   3.128   3.133   3.166
  3.182   3.192   3.202   3.216   3.231   3.240   3.248   3.260
  3.263   3.283   3.298   3.304   3.309   3.336   3.346   3.352
  3.359   3.374   3.397   3.400   3.411   3.419   3.433   3.447
  3.473   3.491   3.505   3.514   3.517   3.522   3.544   3.549
  3.557   3.563   3.582   3.598   3.620   3.634   3.671   3.683
  3.686   3.708   3.720   3.735   3.756   3.772   3.784   3.787
  3.806   3.814   3.821   3.837   3.847   3.881   3.884   3.906
  3.919   3.924   3.939   3.952   3.961   3.984   4.006   4.028
  4.035   4.053   4.081   4.094   4.108   4.124   4.153   4.161
  4.172   4.216   4.239   4.270   4.282   4.293   4.324   4.361
  4.365   4.373   4.407   4.428   4.433   4.457   4.464   4.508
  4.560   4.577   4.603   4.621   4.635   4.661   4.702   4.745
  4.764   4.780   4.814   4.848   4.866   4.916   4.923   5.021
  5.040   5.074   5.091   5.198   5.212   5.226   5.240   5.259
  5.261   5.270   5.299   5.314   5.375   5.406   5.439   5.580
  5.634   5.663   5.780   5.795   5.821   5.893   6.228   6.243
  6.948   6.953   6.968   6.975   7.079   7.089   7.152   7.190
  7.472   7.581   9.227   9.245   9.689   9.743   9.761   9.786
 20.627  20.926  23.104  23.184  23.301  23.390  23.442  23.699
 23.949  24.022
 --------------------------------------------------------------
 
          Ground-State Mulliken Net Atomic Charges

     Atom                 Charge (a.u.)    Spin (a.u.)
  --------------------------------------------------------
      1 S                    -0.115605       0.045946
      2 C                    -0.214306       0.002529
      3 H                     0.225216       0.001793
      4 C                    -0.209029       0.001266
      5 H                     0.168017       0.000910
      6 C                    -0.345794       0.034978
      7 H                     0.211453      -0.007770
      8 C                     0.388168       0.148547
      9 C                     0.064455       0.552040
     10 C                    -0.246324       0.209119
     11 H                     0.215102       0.012997
     12 C                    -0.054037       0.132173
     13 H                     0.179150       0.003216
     14 C                    -0.359189       0.690988
     15 H                     0.270430       0.019411
     16 S                    -0.177707       0.151857
  --------------------------------------------------------
  Sum of atomic charges =    -0.000000
  Sum of spin   charges =     2.000000

 -----------------------------------------------------------------
                    Cartesian Multipole Moments
 -----------------------------------------------------------------
    Charge (ESU x 10^10)
                -9.6064
    Dipole Moment (Debye)
         X      21.1245      Y      -4.9122      Z      29.3204
       Tot      36.4700
    Quadrupole Moments (Debye-Ang)
        XX    -123.8638     XY      11.1069     YY     -84.2650
        XZ     -64.8321     YZ      16.0436     ZZ    -171.0152
    Octopole Moments (Debye-Ang^2)
       XXX     331.7623    XXY     -55.4430    XYY      67.2582
       YYY     -79.1416    XXZ     317.6393    XYZ     -32.9933
       YYZ     178.7503    XZZ     284.7706    YZZ     -73.1064
       ZZZ     813.2141
    Hexadecapole Moments (Debye-Ang^3)
      XXXX   -2286.7597   XXXY     183.7951   XXYY    -417.6064
      XYYY     116.9842   YYYY    -446.0965   XXXZ   -1252.3251
      XXYZ     161.4771   XYYZ    -293.6460   YYYZ     197.4980
      XXZZ   -1334.8852   XYZZ     136.2190   YYZZ    -625.8616
      XZZZ   -1610.6786   YZZZ     349.1316   ZZZZ   -4185.3992
 -----------------------------------------------------------------
 Calculating analytic gradient of the SCF energy
 Number of grid points used for NLC = 44600
 Gradient of SCF Energy
            1           2           3           4           5           6
[...]
 --------------------------------------------------------------
 
          Ground-State Mulliken Net Atomic Charges

     Atom                 Charge (a.u.)    Spin (a.u.)
  --------------------------------------------------------
      1 S                    -0.090834       0.051813
      2 C                    -0.172727       0.046354
      3 H                     0.224867       0.003240
      4 C                    -0.249326      -0.013336
      5 H                     0.169501       0.000284
      6 C                    -0.364988       0.095801
      7 H                     0.212478      -0.008901
      8 C                     0.570596       0.032415
      9 C                    -0.235732       0.657781
     10 C                    -0.127166       0.324666
     11 H                     0.197061       0.017736
     12 C                    -0.175053       0.003077
     13 H                     0.160703       0.005112
     14 C                    -0.243125       0.637070
     15 H                     0.303785       0.020492
     16 S                    -0.180041       0.126395
  --------------------------------------------------------
  Sum of atomic charges =    -0.000000
  Sum of spin   charges =     2.000000

 -----------------------------------------------------------------
                    Cartesian Multipole Moments
 -----------------------------------------------------------------
    Charge (ESU x 10^10)
                -9.6064
    Dipole Moment (Debye)
         X      17.2960      Y      -3.9405      Z      31.0703
       Tot      35.7777
    Quadrupole Moments (Debye-Ang)
        XX    -113.6878     XY       8.4648     YY     -82.2969
        XZ     -56.7207     YZ      14.8379     ZZ    -182.5245
    Octopole Moments (Debye-Ang^2)
       XXX     285.1623    XXY     -57.0962    XYY      64.7145
       YYY     -87.0346    XXZ     304.6079    XYZ     -28.9252
       YYZ     186.8600    XZZ     267.2905    YZZ     -75.3543
       ZZZ     901.8325
    Hexadecapole Moments (Debye-Ang^3)
      XXXX   -2033.2993   XXXY     179.6797   XXYY    -389.8087
      XYYY     118.9811   YYYY    -499.9837   XXXZ   -1139.0844
      XXYZ     160.0633   XYYZ    -285.9992   YYYZ     188.8148
      XXZZ   -1314.3674   XYZZ     149.0986   YYZZ    -662.1672
      XZZZ   -1568.5829   YZZZ     350.2594   ZZZZ   -4602.0627
 -----------------------------------------------------------------
 Calculating analytic gradient of the SCF energy
 Number of grid points used for NLC = 44572
 Gradient of SCF Energy
            1           2           3           4           5           6
    1  -0.0000264  -0.0000112   0.0000134   0.0000485  -0.0000054   0.0020230
    2  -0.0000344  -0.0000443  -0.0000130   0.0000204  -0.0000026   0.0057235
    3   0.0000046   0.0000008   0.0000065   0.0001232  -0.0000093  -0.0021699
            7           8           9          10          11          12
    1   0.0000115  -0.0050161   0.0063794  -0.0034420   0.0000319  -0.0000042
    2   0.0000191  -0.0076093  -0.0006884   0.0025090   0.0000200   0.0000224
    3   0.0000012   0.0052181  -0.0067049   0.0036080  -0.0000360   0.0000034
           13          14          15          16
    1  -0.0000010   0.0000561  -0.0000005  -0.0000569
    2   0.0000000   0.0000310  -0.0000036   0.0000501
    3  -0.0000304  -0.0000494   0.0000551  -0.0000210
 Max gradient component =       7.609E-03
 RMS gradient           =       2.368E-03
 Gradient time:  CPU 92.60 s  wall 92.16 s
 Geometry Optimization Parameters
   NAtoms,    NIC,     NZ,  NCons,   NDum,   NFix, NCnnct, MaxDiis
       16     111       0       1       0       0       0       0

 Cartesian Hessian Update
 Hessian Updated using BFGS Update


** CONSTRAINED OPTIMIZATION IN DELOCALIZED INTERNAL COORDINATES **
   Searching for a Minimum

   Optimization Cycle:  21

                       Coordinates (Angstroms)
     ATOM                X               Y               Z
      1  S        -0.1246286845    0.8747193561   -0.5641420977
      2  C         1.4704171426    0.4799087562   -0.0994776531
      3  H         1.8488673582    0.7904862171    0.8603092891
      4  C         2.1224835469   -0.2275573493   -1.0620236795
      5  H         3.1454721848   -0.5593828784   -0.9694084954
      6  C         1.3110611790   -0.4619818723   -2.2018563395
      7  H         1.6438040965   -0.9771530734   -3.0906293531
      8  C         0.0440248423    0.0457517249   -2.0787350230
      9  C        -1.0017504571    0.0683167225   -3.0869232699
     10  C        -1.9820724861   -1.0526045439   -3.2273499704
     11  H        -1.6633146867   -2.0835037228   -3.2020355755
     12  C        -3.2565827568   -0.6274264157   -3.2971604170
     13  H        -4.1151718201   -1.2829664517   -3.3129126498
     14  C        -3.3885180502    0.7938708107   -3.3415259663
     15  H        -4.2966115089    1.3555632645   -3.1965743710
     16  S        -1.8350880699    1.5978078353   -3.4438821080
   Point Group: c1    Number of degrees of freedom:    42


   Energy is  -1104.664625319

              Constraints and their Current Values
                                        Value     Constraint
   Dihedral:        6   8   9  10       90.000       90.000
 Hessian Updated using BFGS Update

 41 Hessian modes will be used to form the next step
  Hessian Eigenvalues:
     0.004541    0.007272    0.011795    0.039638    0.044892    0.045001
     0.045003    0.045011    0.045020    0.045068    0.046003    0.047073
     0.141614    0.146495    0.159991    0.160096    0.160286    0.160545
     0.191658    0.204038    0.227890    0.234012    0.245672    0.249097
     0.259815    0.269593    0.280534    0.312500    0.325433    0.359941
     0.360761    0.361345    0.361950    0.363984    0.365296    0.406115
     0.420007    0.460982    0.486499    0.523375    0.526006

 Minimum Search - Taking Simple RFO Step
 Searching for Lamda that Minimizes Along All modes
 Value Taken    Lamda =   0.00000000
 Step Taken.  Stepsize is  0.006030

                             Maximum     Tolerance    Cnvgd?
         Gradient           0.000071      0.000300     YES
         Displacement       0.003271      0.001200      NO
         Energy change     -0.000001      0.000001     YES

 Final energy is   -1104.66462531896     


 ******************************
 **  OPTIMIZATION CONVERGED  **
 ******************************

                       Coordinates (Angstroms)
     ATOM                X               Y               Z
      1  S        -0.1246286845    0.8747193561   -0.5641420977
      2  C         1.4704171426    0.4799087562   -0.0994776531
      3  H         1.8488673582    0.7904862171    0.8603092891
      4  C         2.1224835469   -0.2275573493   -1.0620236795
      5  H         3.1454721848   -0.5593828784   -0.9694084954
      6  C         1.3110611790   -0.4619818723   -2.2018563395
      7  H         1.6438040965   -0.9771530734   -3.0906293531
      8  C         0.0440248423    0.0457517249   -2.0787350230
      9  C        -1.0017504571    0.0683167225   -3.0869232699
     10  C        -1.9820724861   -1.0526045439   -3.2273499704
     11  H        -1.6633146867   -2.0835037228   -3.2020355755
     12  C        -3.2565827568   -0.6274264157   -3.2971604170
     13  H        -4.1151718201   -1.2829664517   -3.3129126498
     14  C        -3.3885180502    0.7938708107   -3.3415259663
     15  H        -4.2966115089    1.3555632645   -3.1965743710
     16  S        -1.8350880699    1.5978078353   -3.4438821080

Z-matrix Print:
$molecule
0 3
S 
C  1 1.707618
H  2 1.077439 1 120.254854
C  2 1.360953 1 112.041184 3 -179.908818 0
H  4 1.079440 2 123.585753 1 178.982759 0
C  4 1.418654 2 112.340522 1 -0.268615 0
H  6 1.079832 4 124.325188 2 178.055489 0
C  6 1.370523 4 113.289743 2 -1.310162 0
C  8 1.452790 6 127.509753 4 175.132829 0
C  9 1.495732 8 121.688766 6 89.999999 0
H  10 1.079352 9 121.332978 8 -44.673151 0
C  10 1.345372 9 112.887695 8 131.411886 0
H  12 1.080350 10 124.185038 9 -174.394227 0
C  12 1.428097 10 113.806978 9 5.229585 0
H  14 1.077564 12 126.331521 10 -166.585917 0
S  14 1.752123 12 112.120592 10 5.358357 0
$end

 
 --------------------------------------------------------------
 
                    Orbital Energies (a.u.)
 --------------------------------------------------------------
 
 Alpha MOs
 -- Occupied --
-89.208 -89.196 -10.403 -10.388 -10.384 -10.374 -10.363 -10.361
-10.354 -10.351  -8.144  -8.131  -6.054  -6.050  -6.048  -6.041
 -6.038  -6.036  -1.024  -0.998  -0.892  -0.868  -0.860  -0.819
 -0.721  -0.680  -0.671  -0.645  -0.633  -0.587  -0.530  -0.520
 -0.512  -0.505  -0.494  -0.477  -0.475  -0.448  -0.442  -0.370
 -0.361  -0.344  -0.323  -0.223
 -- Virtual --
  0.031   0.036   0.043   0.047   0.051   0.060   0.065   0.069
  0.072   0.076   0.088   0.094   0.099   0.111   0.114   0.119
  0.124   0.131   0.145   0.155   0.156   0.169   0.173   0.178
  0.182   0.187   0.198   0.208   0.210   0.212   0.222   0.226
  0.231   0.234   0.242   0.244   0.250   0.251   0.257   0.259
  0.266   0.274   0.279   0.280   0.282   0.298   0.304   0.307
  0.309   0.312   0.321   0.322   0.325   0.328   0.330   0.334
  0.345   0.348   0.355   0.360   0.363   0.368   0.370   0.376
  0.386   0.388   0.393   0.395   0.404   0.408   0.409   0.416
  0.421   0.431   0.433   0.435   0.441   0.451   0.453   0.458
  0.461   0.469   0.477   0.478   0.484   0.491   0.496   0.500
  0.504   0.507   0.512   0.520   0.527   0.534   0.537   0.546
  0.551   0.554   0.557   0.566   0.579   0.584   0.590   0.600
  0.608   0.611   0.615   0.620   0.629   0.645   0.646   0.653
  0.671   0.671   0.683   0.692   0.698   0.702   0.715   0.722
  0.725   0.728   0.732   0.736   0.743   0.749   0.752   0.757
  0.759   0.770   0.772   0.777   0.779   0.783   0.791   0.795
  0.799   0.802   0.811   0.817   0.823   0.830   0.839   0.843
  0.850   0.859   0.874   0.876   0.889   0.891   0.894   0.911
  0.915   0.936   0.941   0.965   0.970   0.977   0.994   1.012
  1.019   1.022   1.030   1.047   1.061   1.069   1.072   1.109
  1.131   1.134   1.151   1.168   1.181   1.199   1.211   1.224
  1.231   1.250   1.266   1.276   1.289   1.301   1.306   1.348
  1.361   1.376   1.382   1.391   1.406   1.420   1.424   1.447
  1.449   1.461   1.467   1.481   1.490   1.498   1.517   1.528
  1.542   1.546   1.563   1.597   1.627   1.638   1.659   1.674
  1.692   1.695   1.706   1.719   1.729   1.736   1.749   1.759
  1.766   1.775   1.778   1.783   1.805   1.807   1.828   1.839
  1.845   1.858   1.876   1.878   1.890   1.903   1.927   1.944
  1.953   1.974   1.985   1.989   1.999   2.010   2.033   2.051
  2.061   2.075   2.080   2.085   2.099   2.108   2.128   2.131
  2.135   2.185   2.186   2.194   2.215   2.221   2.240   2.254
  2.269   2.278   2.281   2.298   2.308   2.338   2.352   2.367
  2.402   2.418   2.455   2.500   2.516   2.535   2.585   2.603
  2.629   2.650   2.684   2.703   2.722   2.725   2.755   2.768
  2.789   2.809   2.827   2.838   2.853   2.857   2.866   2.897
  2.909   2.950   2.964   2.993   3.029   3.056   3.057   3.077
  3.082   3.096   3.101   3.114   3.133   3.141   3.159   3.171
  3.182   3.200   3.219   3.228   3.252   3.253   3.262   3.271
  3.285   3.305   3.308   3.320   3.323   3.334   3.339   3.353
  3.374   3.382   3.400   3.415   3.419   3.448   3.458   3.465
  3.479   3.489   3.506   3.525   3.534   3.542   3.545   3.565
  3.568   3.593   3.603   3.625   3.628   3.651   3.666   3.688
  3.710   3.722   3.735   3.748   3.756   3.764   3.767   3.798
  3.807   3.823   3.825   3.846   3.883   3.896   3.906   3.911
  3.923   3.930   3.952   3.962   4.010   4.042   4.046   4.051
  4.062   4.095   4.102   4.131   4.141   4.172   4.191   4.212
  4.228   4.253   4.289   4.301   4.308   4.353   4.366   4.380
  4.398   4.425   4.435   4.457   4.462   4.487   4.525   4.548
  4.563   4.600   4.647   4.666   4.690   4.719   4.746   4.758
  4.787   4.836   4.864   4.887   4.932   4.974   5.017   5.047
  5.071   5.147   5.166   5.197   5.219   5.243   5.262   5.266
  5.288   5.304   5.327   5.385   5.395   5.481   5.498   5.650
  5.726   5.758   5.813   5.834   6.170   6.238   6.950   6.963
  6.977   6.994   7.063   7.094   7.129   7.190   7.462   7.580
  9.218   9.296   9.672   9.729   9.761   9.787  20.592  20.930
 22.999  23.155  23.257  23.362  23.416  23.675  23.936  23.977
 
 Beta MOs
 -- Occupied --
-89.208 -89.195 -10.391 -10.385 -10.377 -10.373 -10.362 -10.359
-10.352 -10.351  -8.143  -8.130  -6.053  -6.050  -6.048  -6.041
 -6.038  -6.032  -1.018  -0.987  -0.881  -0.861  -0.854  -0.802
 -0.707  -0.675  -0.661  -0.640  -0.628  -0.577  -0.519  -0.508
 -0.507  -0.496  -0.487  -0.468  -0.445  -0.439  -0.434  -0.351
 -0.338  -0.329
 -- Virtual --
 -0.059   0.031   0.035   0.036   0.043   0.047   0.057   0.061
  0.065   0.070   0.072   0.076   0.088   0.097   0.111   0.113
  0.120   0.122   0.132   0.137   0.147   0.155   0.160   0.169
  0.173   0.180   0.182   0.189   0.199   0.208   0.212   0.214
  0.224   0.228   0.232   0.237   0.243   0.247   0.251   0.253
  0.260   0.263   0.267   0.276   0.280   0.282   0.291   0.298
  0.305   0.309   0.310   0.313   0.321   0.322   0.324   0.329
  0.333   0.335   0.347   0.349   0.355   0.362   0.365   0.369
  0.372   0.380   0.387   0.390   0.394   0.396   0.407   0.409
  0.410   0.418   0.422   0.432   0.434   0.437   0.441   0.452
  0.455   0.461   0.463   0.472   0.477   0.481   0.485   0.492
  0.496   0.502   0.505   0.508   0.513   0.521   0.529   0.535
  0.540   0.549   0.552   0.557   0.559   0.568   0.581   0.586
  0.591   0.601   0.612   0.613   0.617   0.622   0.630   0.646
  0.648   0.655   0.672   0.674   0.685   0.694   0.701   0.703
  0.717   0.725   0.727   0.730   0.734   0.738   0.745   0.751
  0.753   0.760   0.762   0.772   0.776   0.779   0.781   0.785
  0.793   0.797   0.801   0.803   0.813   0.818   0.825   0.833
  0.843   0.847   0.851   0.862   0.876   0.880   0.893   0.894
  0.898   0.915   0.918   0.941   0.943   0.968   0.974   0.981
  0.998   1.016   1.021   1.031   1.034   1.050   1.068   1.073
  1.077   1.113   1.136   1.140   1.159   1.171   1.185   1.203
  1.212   1.228   1.234   1.253   1.274   1.281   1.294   1.307
  1.314   1.355   1.366   1.383   1.393   1.397   1.413   1.422
  1.429   1.455   1.458   1.465   1.472   1.484   1.493   1.503
  1.521   1.534   1.546   1.550   1.569   1.604   1.635   1.645
  1.667   1.682   1.697   1.703   1.708   1.725   1.739   1.740
  1.753   1.761   1.773   1.782   1.785   1.793   1.811   1.823
  1.838   1.847   1.860   1.868   1.886   1.890   1.901   1.915
  1.937   1.951   1.962   1.985   1.987   1.994   2.008   2.026
  2.041   2.059   2.066   2.084   2.088   2.097   2.103   2.115
  2.135   2.141   2.145   2.193   2.197   2.206   2.225   2.233
  2.248   2.260   2.278   2.289   2.295   2.305   2.319   2.342
  2.369   2.377   2.420   2.426   2.468   2.505   2.529   2.545
  2.589   2.614   2.643   2.666   2.697   2.716   2.732   2.736
  2.764   2.778   2.794   2.824   2.838   2.854   2.861   2.868
  2.879   2.912   2.923   2.965   2.981   3.010   3.044   3.067
  3.074   3.087   3.099   3.103   3.106   3.123   3.138   3.159
  3.170   3.191   3.209   3.216   3.230   3.251   3.269   3.270
  3.274   3.280   3.300   3.320   3.328   3.332   3.336   3.346
  3.356   3.368   3.393   3.396   3.418   3.426   3.433   3.468
  3.471   3.488   3.492   3.503   3.518   3.537   3.543   3.554
  3.556   3.579   3.592   3.610   3.620   3.637   3.647   3.661
  3.687   3.701   3.731   3.738   3.752   3.758   3.770   3.774
  3.780   3.807   3.822   3.832   3.840   3.864   3.891   3.908
  3.914   3.928   3.931   3.942   3.967   3.974   4.020   4.045
  4.058   4.069   4.071   4.107   4.112   4.137   4.155   4.181
  4.200   4.224   4.241   4.264   4.300   4.311   4.317   4.361
  4.371   4.393   4.416   4.435   4.441   4.463   4.468   4.496
  4.539   4.559   4.569   4.610   4.662   4.681   4.699   4.735
  4.760   4.767   4.798   4.859   4.868   4.925   4.940   4.996
  5.043   5.057   5.081   5.169   5.189   5.210   5.233   5.253
  5.265   5.274   5.296   5.323   5.357   5.396   5.433   5.504
  5.518   5.657   5.746   5.777   5.817   5.840   6.190   6.241
  6.950   6.963   6.979   6.996   7.067   7.095   7.129   7.191
  7.466   7.581   9.219   9.303   9.672   9.730   9.762   9.788
 20.594  20.931  23.011  23.157  23.263  23.364  23.423  23.676
 23.938  23.978
 --------------------------------------------------------------
 
          Ground-State Mulliken Net Atomic Charges

     Atom                 Charge (a.u.)    Spin (a.u.)
  --------------------------------------------------------
      1 S                    -0.090834       0.051813
      2 C                    -0.172727       0.046354
      3 H                     0.224867       0.003240
      4 C                    -0.249326      -0.013336
      5 H                     0.169501       0.000284
      6 C                    -0.364988       0.095801
      7 H                     0.212478      -0.008901
      8 C                     0.570596       0.032415
      9 C                    -0.235732       0.657781
     10 C                    -0.127166       0.324666
     11 H                     0.197061       0.017736
     12 C                    -0.175053       0.003077
     13 H                     0.160703       0.005112
     14 C                    -0.243125       0.637070
     15 H                     0.303785       0.020492
     16 S                    -0.180041       0.126395
  --------------------------------------------------------
  Sum of atomic charges =    -0.000000
  Sum of spin   charges =     2.000000

 -----------------------------------------------------------------
                    Cartesian Multipole Moments
 -----------------------------------------------------------------
    Charge (ESU x 10^10)
                -9.6064
    Dipole Moment (Debye)
         X      17.2960      Y      -3.9405      Z      31.0703
       Tot      35.7777
    Quadrupole Moments (Debye-Ang)
        XX    -113.6878     XY       8.4648     YY     -82.2969
        XZ     -56.7207     YZ      14.8379     ZZ    -182.5245
    Octopole Moments (Debye-Ang^2)
       XXX     285.1623    XXY     -57.0962    XYY      64.7145
       YYY     -87.0346    XXZ     304.6079    XYZ     -28.9252
       YYZ     186.8600    XZZ     267.2905    YZZ     -75.3543
       ZZZ     901.8325
    Hexadecapole Moments (Debye-Ang^3)
      XXXX   -2033.2993   XXXY     179.6797   XXYY    -389.8087
      XYYY     118.9811   YYYY    -499.9837   XXXZ   -1139.0844
      XXYZ     160.0633   XYYZ    -285.9992   YYYZ     188.8148
      XXZZ   -1314.3674   XYZZ     149.0986   YYZZ    -662.1672
      XZZZ   -1568.5829   YZZZ     350.2594   ZZZZ   -4602.0627
 -----------------------------------------------------------------
Archival summary:
1\1\nid01830\OPT\ProcedureUnspecified\BasisUnspecified\286(3)\bwood\ThuFeb2203:26:422018ThuFeb2203:26:422018\0\\#,OPT,ProcedureUnspecified,BasisUnspecified,\\0,3\S\C,1,1.70762\H,2,1.07744,1,120.255\C,2,1.36095,1,112.041,3,-179.909,0\H,4,1.07944,2,123.586,1,178.983,0\C,4,1.41865,2,112.341,1,-0.268615,0\H,6,1.07983,4,124.325,2,178.055,0\C,6,1.37052,4,113.29,2,-1.31016,0\C,8,1.45279,6,127.51,4,175.133,0\C,9,1.49573,8,121.689,6,90,0\H,10,1.07935,9,121.333,8,-44.6732,0\C,10,1.34537,9,112.888,8,131.412,0\H,12,1.08035,10,124.185,9,-174.394,0\C,12,1.4281,10,113.807,9,5.22958,0\H,14,1.07756,12,126.332,10,-166.586,0\S,14,1.75212,12,112.121,10,5.35836,0\\\@

 Total job time:  11408.83s(wall), 11485.45s(cpu) 
 Thu Feb 22 03:26:45 2018

        *************************************************************
        *                                                           *
        *  Thank you very much for using Q-Chem.  Have a nice day.  *
        *                                                           *
        *************************************************************


0 sent ACK to 0 
now end server 0 ... 
