unknown system                          
   1.00000000000000     
     0.000000    2.019465    2.019465
     2.019465    0.000000    2.019465
     2.019465    2.019465    0.000000
   Al
     1
Direct
  0.000000  0.000000  0.000000
 
   48   48   48
 -.16060389389E+00 -.12332375331E+00 -.12978609285E-01 0.16583775759E+00 0.40527099659E+00
 0.69434540808E+00 0.10196627921E+01 0.13665948423E+01 0.17205888650E+01 0.20681324017E+01
 0.23971445976E+01 0.26969320603E+01 0.29581234836E+01 0.31730041400E+01 0.33363945115E+01
 0.34468108104E+01 0.35073474460E+01 0.35257225811E+01 0.35131792898E+01 0.34812810474E+01
 0.34403749455E+01 0.33995794295E+01 0.33659028340E+01 0.33440058040E+01 0.33364407564E+01
 0.33440058040E+01 0.33659028340E+01 0.33995794295E+01 0.34403749455E+01 0.34812810474E+01
 0.35131792898E+01 0.35257225811E+01 0.35073474460E+01 0.34468108104E+01 0.33363945115E+01
 0.31730041400E+01 0.29581234836E+01 0.26969320603E+01 0.23971445976E+01 0.20681324017E+01
 0.17205888650E+01 0.13665948423E+01 0.10196627921E+01 0.69434540808E+00 0.40527099659E+00
 0.16583775759E+00 -.12978609285E-01 -.12332375331E+00 -.12332375331E+00 -.49508939481E-01
 0.95083943055E-01 0.30422528431E+00 0.56845905850E+00 0.87552198287E+00 0.12113179649E+01
 0.15612078791E+01 0.19111689616E+01 0.22484616206E+01 0.25617606284E+01 0.28410519927E+01
 0.30777441170E+01 0.32652947536E+01 0.34002890502E+01 0.34835280180E+01 0.35205299656E+01
 0.35210224073E+01 0.34968736143E+01 0.34588615280E+01 0.34168000517E+01 0.33787634610E+01
 0.33505218053E+01 0.33355933710E+01 0.33355933710E+01 0.33505218053E+01 0.33787634610E+01
 0.34168000517E+01 0.34588615280E+01 0.34968736143E+01 0.35210224073E+01 0.35205299656E+01
 0.34835280180E+01 0.34002890502E+01 0.32652947536E+01 0.30777441170E+01 0.28410519927E+01
 0.25617606284E+01 0.22484616206E+01 0.19111689616E+01 0.15612078791E+01 0.12113179649E+01
 0.87552198287E+00 0.56845905850E+00 0.30422528431E+00 0.95083943055E-01 -.49508939481E-01
 -.12332375331E+00 -.12978609285E-01 0.95083943055E-01 0.27002073130E+00 0.50396544712E+00
 0.78606111591E+00 0.11031828080E+01 0.14410837752E+01 0.17856102912E+01 0.21235797041E+01
 0.24431318453E+01 0.27337052901E+01 0.29860337257E+01 0.31925450356E+01 0.33482699258E+01
 0.34519805008E+01 0.35070086217E+01 0.35212163058E+01 0.35058063450E+01 0.34720425938E+01
 0.34300793952E+01 0.33888056668E+01 0.33549919464E+01 0.33330996562E+01 0.33255511677E+01
 0.33330996562E+01 0.33549919464E+01 0.33888056668E+01 0.34300793952E+01 0.34720425938E+01
 0.35058063450E+01 0.35212163058E+01 0.35070086217E+01 0.34519805008E+01 0.33482699258E+01
 0.31925450356E+01 0.29860337257E+01 0.27337052901E+01 0.24431318453E+01 0.21235797041E+01
 0.17856102912E+01 0.14410837752E+01 0.11031828080E+01 0.78606111591E+00 0.50396544712E+00
 0.27002073130E+00 0.95083943055E-01 -.12978609285E-01 -.49508939481E-01 0.16583775759E+00
 0.30422528431E+00 0.50396544712E+00 0.75573783725E+00 0.10476954539E+01 0.13664085440E+01
 0.16980127191E+01 0.20291924936E+01 0.23477290706E+01 0.26426223570E+01 0.29040789833E+01
 0.31237539529E+01 0.32954699791E+01 0.34162960635E+01 0.34875403574E+01 0.35151050211E+01
 0.35088454689E+01 0.34801783200E+01 0.34394143771E+01 0.33959585055E+01 0.33574100930E+01
 0.33291018879E+01 0.33142262220E+01 0.33142262220E+01 0.33291018879E+01 0.33574100930E+01
 0.33959585055E+01 0.34394143771E+01 0.34801783200E+01 0.35088454689E+01 0.35151050211E+01
 0.34875403574E+01 0.34162960635E+01 0.32954699791E+01 0.31237539529E+01 0.29040789833E+01
 0.26426223570E+01 0.23477290706E+01 0.20291924936E+01 0.16980127191E+01 0.13664085440E+01
 0.10476954539E+01 0.75573783725E+00 0.50396544712E+00 0.30422528431E+00 0.16583775759E+00
 0.95083943055E-01 0.95083943055E-01 0.40527099659E+00 0.56845905850E+00 0.78606111591E+00
 0.10476954539E+01 0.13410745257E+01 0.16530134729E+01 0.19704151598E+01 0.22809477970E+01
 0.25733244129E+01 0.28373586714E+01 0.30641333637E+01 0.32465591464E+01 0.33803362765E+01
 0.34650031278E+01 0.35045598873E+01 0.35072308472E+01 0.34839527668E+01 0.34451353149E+01
 0.34003875385E+01 0.33579218715E+01 0.33238284843E+01 0.33020095319E+01 0.32945267708E+01
 0.33020095319E+01 0.33238284843E+01 0.33579218715E+01 0.34003875385E+01 0.34451353149E+01
 0.34839527668E+01 0.35072308472E+01 0.35045598873E+01 0.34650031278E+01 0.33803362765E+01
 0.32465591464E+01 0.30641333637E+01 0.28373586714E+01 0.25733244129E+01 0.22809477970E+01
 0.19704151598E+01 0.16530134729E+01 0.13410745257E+01 0.10476954539E+01 0.78606111591E+00
 0.56845905850E+00 0.40527099659E+00 0.30422528431E+00 0.27002073130E+00 0.30422528431E+00
 0.69434540808E+00 0.87552198287E+00 0.11031828080E+01 0.13664085440E+01 0.16530134729E+01
 0.19504579431E+01 0.22465790470E+01 0.25299993364E+01 0.27902872246E+01 0.30181248013E+01
 0.32057592206E+01 0.33478358698E+01 0.34424202155E+01 0.34917779621E+01 0.35024566851E+01
 0.34843587695E+01 0.34478441194E+01 0.34024676767E+01 0.33568145120E+01 0.33175848256E+01
 0.32893116482E+01 0.32746050306E+01 0.32746050306E+01 0.32893116482E+01 0.33175848256E+01
 0.33568145120E+01 0.34024676767E+01 0.34478441194E+01 0.34843587695E+01 0.35024566851E+01
 0.34917779621E+01 0.34424202155E+01 0.33478358698E+01 0.32057592206E+01 0.30181248013E+01
 0.27902872246E+01 0.25299993364E+01 0.22465790470E+01 0.19504579431E+01 0.16530134729E+01
 0.13664085440E+01 0.11031828080E+01 0.87552198287E+00 0.69434540808E+00 0.56845905850E+00
 0.50396544712E+00 0.50396544712E+00 0.56845905850E+00 0.10196627921E+01 0.12113179649E+01
 0.14410837752E+01 0.16980127191E+01 0.19704151598E+01 0.22465790470E+01 0.25152613831E+01
 0.27659559972E+01 0.29891088938E+01 0.31765187061E+01 0.33220593688E+01 0.34226299863E+01
 0.34789982280E+01 0.34961090649E+01 0.34825501758E+01 0.34483179238E+01 0.34027280914E+01
 0.33544911672E+01 0.33107446727E+01 0.32765564871E+01 0.32550199898E+01 0.32476887737E+01
 0.32550199898E+01 0.32765564871E+01 0.33107446727E+01 0.33544911672E+01 0.34027280914E+01
 0.34483179238E+01 0.34825501758E+01 0.34961090649E+01 0.34789982280E+01 0.34226299863E+01
 0.33220593688E+01 0.31765187061E+01 0.29891088938E+01 0.27659559972E+01 0.25152613831E+01
 0.22465790470E+01 0.19704151598E+01 0.16980127191E+01 0.14410837752E+01 0.12113179649E+01
 0.10196627921E+01 0.87552198287E+00 0.78606111591E+00 0.75573783725E+00 0.78606111591E+00
 0.87552198287E+00 0.13665948423E+01 0.15612078791E+01 0.17856102912E+01 0.20291924936E+01
 0.22809477970E+01 0.25299993364E+01 0.27659559972E+01 0.29791975937E+01 0.31612702800E+01
 0.33055305296E+01 0.34080076766E+01 0.34682432959E+01 0.34897380766E+01 0.34796906717E+01
 0.34473996791E+01 0.34017817852E+01 0.33514340879E+01 0.33037408052E+01 0.32641905054E+01
 0.32362980393E+01 0.32219620754E+01 0.32219620754E+01 0.32362980393E+01 0.32641905054E+01
 0.33037408052E+01 0.33514340879E+01 0.34017817852E+01 0.34473996791E+01 0.34796906717E+01
 0.34897380766E+01 0.34682432959E+01 0.34080076766E+01 0.33055305296E+01 0.31612702800E+01
 0.29791975937E+01 0.27659559972E+01 0.25299993364E+01 0.22809477970E+01 0.20291924936E+01
 0.17856102912E+01 0.15612078791E+01 0.13665948423E+01 0.12113179649E+01 0.11031828080E+01
 0.10476954539E+01 0.10476954539E+01 0.11031828080E+01 0.12113179649E+01 0.17205888650E+01
 0.19111689616E+01 0.21235797041E+01 0.23477290706E+01 0.25733244129E+01 0.27902872246E+01
 0.29891088938E+01 0.31612702800E+01 0.32998399574E+01 0.34002538800E+01 0.34611094543E+01
 0.34846754545E+01 0.34768206970E+01 0.34458940196E+01 0.34002517019E+01 0.33481602602E+01
 0.32970498818E+01 0.32526954414E+01 0.32189663952E+01 0.31980630424E+01 0.31910020592E+01
 0.31980630424E+01 0.32189663952E+01 0.32526954414E+01 0.32970498818E+01 0.33481602602E+01
 0.34002517019E+01 0.34458940196E+01 0.34768206970E+01 0.34846754545E+01 0.34611094543E+01
 0.34002538800E+01 0.32998399574E+01 0.31612702800E+01 0.29891088938E+01 0.27902872246E+01
 0.25733244129E+01 0.23477290706E+01 0.21235797041E+01 0.19111689616E+01 0.17205888650E+01
 0.15612078791E+01 0.14410837752E+01 0.13664085440E+01 0.13410745257E+01 0.13664085440E+01
 0.14410837752E+01 0.15612078791E+01 0.20681324017E+01 0.22484616206E+01 0.24431318453E+01
 0.26426223570E+01 0.28373586714E+01 0.30181248013E+01 0.31765187061E+01 0.33055305296E+01
 0.34002538800E+01 0.34586150091E+01 0.34818898716E+01 0.34747527641E+01 0.34444799978E+01
 0.33987020682E+01 0.33451721802E+01 0.32911655314E+01 0.32425887090E+01 0.32035834327E+01
 0.31766199859E+01 0.31629138195E+01 0.31629138195E+01 0.31766199859E+01 0.32035834327E+01
 0.32425887090E+01 0.32911655314E+01 0.33451721802E+01 0.33987020682E+01 0.34444799978E+01
 0.34747527641E+01 0.34818898716E+01 0.34586150091E+01 0.34002538800E+01 0.33055305296E+01
 0.31765187061E+01 0.30181248013E+01 0.28373586714E+01 0.26426223570E+01 0.24431318453E+01
 0.22484616206E+01 0.20681324017E+01 0.19111689616E+01 0.17856102912E+01 0.16980127191E+01
 0.16530134729E+01 0.16530134729E+01 0.16980127191E+01 0.17856102912E+01 0.19111689616E+01
 0.23971445976E+01 0.25617606284E+01 0.27337052901E+01 0.29040789833E+01 0.30641333637E+01
 0.32057592206E+01 0.33220593688E+01 0.34080076766E+01 0.34611094543E+01 0.34818898716E+01
 0.34740040313E+01 0.34436457306E+01 0.33975804074E+01 0.33429068615E+01 0.32865568486E+01
 0.32343990184E+01 0.31907417426E+01 0.31582877295E+01 0.31384427883E+01 0.31317811559E+01
 0.31384427883E+01 0.31582877295E+01 0.31907417426E+01 0.32343990184E+01 0.32865568486E+01
 0.33429068615E+01 0.33975804074E+01 0.34436457306E+01 0.34740040313E+01 0.34818898716E+01
 0.34611094543E+01 0.34080076766E+01 0.33220593688E+01 0.32057592206E+01 0.30641333637E+01
 0.29040789833E+01 0.27337052901E+01 0.25617606284E+01 0.23971445976E+01 0.22484616206E+01
 0.21235797041E+01 0.20291924936E+01 0.19704151598E+01 0.19504579431E+01 0.19704151598E+01
 0.20291924936E+01 0.21235797041E+01 0.22484616206E+01 0.26969320603E+01 0.28410519927E+01
 0.29860337257E+01 0.31237539529E+01 0.32465591464E+01 0.33478358698E+01 0.34226299863E+01
 0.34682432959E+01 0.34846754545E+01 0.34747527641E+01 0.34436457306E+01 0.33971736029E+01
 0.33416879906E+01 0.32836159339E+01 0.32286150964E+01 0.31810310650E+01 0.31437401288E+01
 0.31183361865E+01 0.31055225756E+01 0.31055225756E+01 0.31183361865E+01 0.31437401288E+01
 0.31810310650E+01 0.32286150964E+01 0.32836159339E+01 0.33416879906E+01 0.33971736029E+01
 0.34436457306E+01 0.34747527641E+01 0.34846754545E+01 0.34682432959E+01 0.34226299863E+01
 0.33478358698E+01 0.32465591464E+01 0.31237539529E+01 0.29860337257E+01 0.28410519927E+01
 0.26969320603E+01 0.25617606284E+01 0.24431318453E+01 0.23477290706E+01 0.22809477970E+01
 0.22465790470E+01 0.22465790470E+01 0.22809477970E+01 0.23477290706E+01 0.24431318453E+01
 0.25617606284E+01 0.29581234836E+01 0.30777441170E+01 0.31925450356E+01 0.32954699791E+01
 0.33803362765E+01 0.34424202155E+01 0.34789982280E+01 0.34897380766E+01 0.34768206970E+01
 0.34444799978E+01 0.33975804074E+01 0.33416879906E+01 0.32826048663E+01 0.32256181612E+01
 0.31749662701E+01 0.31336120716E+01 0.31033189064E+01 0.30849416315E+01 0.30787935349E+01
 0.30849416315E+01 0.31033189064E+01 0.31336120716E+01 0.31749662701E+01 0.32256181612E+01
 0.32826048663E+01 0.33416879906E+01 0.33975804074E+01 0.34444799978E+01 0.34768206970E+01
 0.34897380766E+01 0.34789982280E+01 0.34424202155E+01 0.33803362765E+01 0.32954699791E+01
 0.31925450356E+01 0.30777441170E+01 0.29581234836E+01 0.28410519927E+01 0.27337052901E+01
 0.26426223570E+01 0.25733244129E+01 0.25299993364E+01 0.25152613831E+01 0.25299993364E+01
 0.25733244129E+01 0.26426223570E+01 0.27337052901E+01 0.28410519927E+01 0.31730041400E+01
 0.32652947536E+01 0.33482699258E+01 0.34162960635E+01 0.34650031278E+01 0.34917779621E+01
 0.34961090649E+01 0.34796906717E+01 0.34458940196E+01 0.33987020682E+01 0.33429068615E+01
 0.32836159339E+01 0.32256181612E+01 0.31729023429E+01 0.31284076381E+01 0.30940184675E+01
 0.30707532534E+01 0.30590520920E+01 0.30590520920E+01 0.30707532534E+01 0.30940184675E+01
 0.31284076381E+01 0.31729023429E+01 0.32256181612E+01 0.32836159339E+01 0.33429068615E+01
 0.33987020682E+01 0.34458940196E+01 0.34796906717E+01 0.34961090649E+01 0.34917779621E+01
 0.34650031278E+01 0.34162960635E+01 0.33482699258E+01 0.32652947536E+01 0.31730041400E+01
 0.30777441170E+01 0.29860337257E+01 0.29040789833E+01 0.28373586714E+01 0.27902872246E+01
 0.27659559972E+01 0.27659559972E+01 0.27902872246E+01 0.28373586714E+01 0.29040789833E+01
 0.29860337257E+01 0.30777441170E+01 0.33363945115E+01 0.34002890502E+01 0.34519805008E+01
 0.34875403574E+01 0.35045598873E+01 0.35024566851E+01 0.34825501758E+01 0.34473996791E+01
 0.34002517019E+01 0.33451721802E+01 0.32865568486E+01 0.32286150964E+01 0.31749662701E+01
 0.31284076381E+01 0.30908668096E+01 0.30635079238E+01 0.30469300856E+01 0.30413830748E+01
 0.30469300856E+01 0.30635079238E+01 0.30908668096E+01 0.31284076381E+01 0.31749662701E+01
 0.32286150964E+01 0.32865568486E+01 0.33451721802E+01 0.34002517019E+01 0.34473996791E+01
 0.34825501758E+01 0.35024566851E+01 0.35045598873E+01 0.34875403574E+01 0.34519805008E+01
 0.34002890502E+01 0.33363945115E+01 0.32652947536E+01 0.31925450356E+01 0.31237539529E+01
 0.30641333637E+01 0.30181248013E+01 0.29891088938E+01 0.29791975937E+01 0.29891088938E+01
 0.30181248013E+01 0.30641333637E+01 0.31237539529E+01 0.31925450356E+01 0.32652947536E+01
 0.34468108104E+01 0.34835280180E+01 0.35070086217E+01 0.35151050211E+01 0.35072308472E+01
 0.34843587695E+01 0.34483179238E+01 0.34017817852E+01 0.33481602602E+01 0.32911655314E+01
 0.32343990184E+01 0.31810310650E+01 0.31336120716E+01 0.30940184675E+01 0.30635079238E+01
 0.30428411708E+01 0.30324233523E+01 0.30324233523E+01 0.30428411708E+01 0.30635079238E+01
 0.30940184675E+01 0.31336120716E+01 0.31810310650E+01 0.32343990184E+01 0.32911655314E+01
 0.33481602602E+01 0.34017817852E+01 0.34483179238E+01 0.34843587695E+01 0.35072308472E+01
 0.35151050211E+01 0.35070086217E+01 0.34835280180E+01 0.34468108104E+01 0.34002890502E+01
 0.33482699258E+01 0.32954699791E+01 0.32465591464E+01 0.32057592206E+01 0.31765187061E+01
 0.31612702800E+01 0.31612702800E+01 0.31765187061E+01 0.32057592206E+01 0.32465591464E+01
 0.32954699791E+01 0.33482699258E+01 0.34002890502E+01 0.35073474460E+01 0.35205299656E+01
 0.35212163058E+01 0.35088454689E+01 0.34839527668E+01 0.34478441194E+01 0.34027280914E+01
 0.33514340879E+01 0.32970498818E+01 0.32425887090E+01 0.31907417426E+01 0.31437401288E+01
 0.31033189064E+01 0.30707532534E+01 0.30469300856E+01 0.30324233523E+01 0.30275534822E+01
 0.30324233523E+01 0.30469300856E+01 0.30707532534E+01 0.31033189064E+01 0.31437401288E+01
 0.31907417426E+01 0.32425887090E+01 0.32970498818E+01 0.33514340879E+01 0.34027280914E+01
 0.34478441194E+01 0.34839527668E+01 0.35088454689E+01 0.35212163058E+01 0.35205299656E+01
 0.35073474460E+01 0.34835280180E+01 0.34519805008E+01 0.34162960635E+01 0.33803362765E+01
 0.33478358698E+01 0.33220593688E+01 0.33055305296E+01 0.32998399574E+01 0.33055305296E+01
 0.33220593688E+01 0.33478358698E+01 0.33803362765E+01 0.34162960635E+01 0.34519805008E+01
 0.34835280180E+01 0.35257225811E+01 0.35210224073E+01 0.35058063450E+01 0.34801783200E+01
 0.34451353149E+01 0.34024676767E+01 0.33544911672E+01 0.33037408052E+01 0.32526954414E+01
 0.32035834327E+01 0.31582877295E+01 0.31183361865E+01 0.30849416315E+01 0.30590520920E+01
 0.30413830748E+01 0.30324233523E+01 0.30324233523E+01 0.30413830748E+01 0.30590520920E+01
 0.30849416315E+01 0.31183361865E+01 0.31582877295E+01 0.32035834327E+01 0.32526954414E+01
 0.33037408052E+01 0.33544911672E+01 0.34024676767E+01 0.34451353149E+01 0.34801783200E+01
 0.35058063450E+01 0.35210224073E+01 0.35257225811E+01 0.35205299656E+01 0.35070086217E+01
 0.34875403574E+01 0.34650031278E+01 0.34424202155E+01 0.34226299863E+01 0.34080076766E+01
 0.34002538800E+01 0.34002538800E+01 0.34080076766E+01 0.34226299863E+01 0.34424202155E+01
 0.34650031278E+01 0.34875403574E+01 0.35070086217E+01 0.35205299656E+01 0.35131792898E+01
 0.34968736143E+01 0.34720425938E+01 0.34394143771E+01 0.34003875385E+01 0.33568145120E+01
 0.33107446727E+01 0.32641905054E+01 0.32189663952E+01 0.31766199859E+01 0.31384427883E+01
 0.31055225756E+01 0.30787935349E+01 0.30590520920E+01 0.30469300856E+01 0.30428411708E+01
 0.30469300856E+01 0.30590520920E+01 0.30787935349E+01 0.31055225756E+01 0.31384427883E+01
 0.31766199859E+01 0.32189663952E+01 0.32641905054E+01 0.33107446727E+01 0.33568145120E+01
 0.34003875385E+01 0.34394143771E+01 0.34720425938E+01 0.34968736143E+01 0.35131792898E+01
 0.35210224073E+01 0.35212163058E+01 0.35151050211E+01 0.35045598873E+01 0.34917779621E+01
 0.34789982280E+01 0.34682432959E+01 0.34611094543E+01 0.34586150091E+01 0.34611094543E+01
 0.34682432959E+01 0.34789982280E+01 0.34917779621E+01 0.35045598873E+01 0.35151050211E+01
 0.35212163058E+01 0.35210224073E+01 0.34812810474E+01 0.34588615280E+01 0.34300793952E+01
 0.33959585055E+01 0.33579218715E+01 0.33175848256E+01 0.32765564871E+01 0.32362980393E+01
 0.31980630424E+01 0.31629138195E+01 0.31317811559E+01 0.31055225756E+01 0.30849416315E+01
 0.30707532534E+01 0.30635079238E+01 0.30635079238E+01 0.30707532534E+01 0.30849416315E+01
 0.31055225756E+01 0.31317811559E+01 0.31629138195E+01 0.31980630424E+01 0.32362980393E+01
 0.32765564871E+01 0.33175848256E+01 0.33579218715E+01 0.33959585055E+01 0.34300793952E+01
 0.34588615280E+01 0.34812810474E+01 0.34968736143E+01 0.35058063450E+01 0.35088454689E+01
 0.35072308472E+01 0.35024566851E+01 0.34961090649E+01 0.34897380766E+01 0.34846754545E+01
 0.34818898716E+01 0.34818898716E+01 0.34846754545E+01 0.34897380766E+01 0.34961090649E+01
 0.35024566851E+01 0.35072308472E+01 0.35088454689E+01 0.35058063450E+01 0.34968736143E+01
 0.34403749455E+01 0.34168000517E+01 0.33888056668E+01 0.33574100930E+01 0.33238284843E+01
 0.32893116482E+01 0.32550199898E+01 0.32219620754E+01 0.31910020592E+01 0.31629138195E+01
 0.31384427883E+01 0.31183361865E+01 0.31033189064E+01 0.30940184675E+01 0.30908668096E+01
 0.30940184675E+01 0.31033189064E+01 0.31183361865E+01 0.31384427883E+01 0.31629138195E+01
 0.31910020592E+01 0.32219620754E+01 0.32550199898E+01 0.32893116482E+01 0.33238284843E+01
 0.33574100930E+01 0.33888056668E+01 0.34168000517E+01 0.34403749455E+01 0.34588615280E+01
 0.34720425938E+01 0.34801783200E+01 0.34839527668E+01 0.34843587695E+01 0.34825501758E+01
 0.34796906717E+01 0.34768206970E+01 0.34747527641E+01 0.34740040313E+01 0.34747527641E+01
 0.34768206970E+01 0.34796906717E+01 0.34825501758E+01 0.34843587695E+01 0.34839527668E+01
 0.34801783200E+01 0.34720425938E+01 0.34588615280E+01 0.33995794295E+01 0.33787634610E+01
 0.33549919464E+01 0.33291018879E+01 0.33020095319E+01 0.32746050306E+01 0.32476887737E+01
 0.32219620754E+01 0.31980630424E+01 0.31766199859E+01 0.31582877295E+01 0.31437401288E+01
 0.31336120716E+01 0.31284076381E+01 0.31284076381E+01 0.31336120716E+01 0.31437401288E+01
 0.31582877295E+01 0.31766199859E+01 0.31980630424E+01 0.32219620754E+01 0.32476887737E+01
 0.32746050306E+01 0.33020095319E+01 0.33291018879E+01 0.33549919464E+01 0.33787634610E+01
 0.33995794295E+01 0.34168000517E+01 0.34300793952E+01 0.34394143771E+01 0.34451353149E+01
 0.34478441194E+01 0.34483179238E+01 0.34473996791E+01 0.34458940196E+01 0.34444799978E+01
 0.34436457306E+01 0.34436457306E+01 0.34444799978E+01 0.34458940196E+01 0.34473996791E+01
 0.34483179238E+01 0.34478441194E+01 0.34451353149E+01 0.34394143771E+01 0.34300793952E+01
 0.34168000517E+01 0.33659028340E+01 0.33505218053E+01 0.33330996562E+01 0.33142262220E+01
 0.32945267708E+01 0.32746050306E+01 0.32550199898E+01 0.32362980393E+01 0.32189663952E+01
 0.32035834327E+01 0.31907417426E+01 0.31810310650E+01 0.31749662701E+01 0.31729023429E+01
 0.31749662701E+01 0.31810310650E+01 0.31907417426E+01 0.32035834327E+01 0.32189663952E+01
 0.32362980393E+01 0.32550199898E+01 0.32746050306E+01 0.32945267708E+01 0.33142262220E+01
 0.33330996562E+01 0.33505218053E+01 0.33659028340E+01 0.33787634610E+01 0.33888056668E+01
 0.33959585055E+01 0.34003875385E+01 0.34024676767E+01 0.34027280914E+01 0.34017817852E+01
 0.34002517019E+01 0.33987020682E+01 0.33975804074E+01 0.33971736029E+01 0.33975804074E+01
 0.33987020682E+01 0.34002517019E+01 0.34017817852E+01 0.34027280914E+01 0.34024676767E+01
 0.34003875385E+01 0.33959585055E+01 0.33888056668E+01 0.33787634610E+01 0.33440058040E+01
 0.33355933710E+01 0.33255511677E+01 0.33142262220E+01 0.33020095319E+01 0.32893116482E+01
 0.32765564871E+01 0.32641905054E+01 0.32526954414E+01 0.32425887090E+01 0.32343990184E+01
 0.32286150964E+01 0.32256181612E+01 0.32256181612E+01 0.32286150964E+01 0.32343990184E+01
 0.32425887090E+01 0.32526954414E+01 0.32641905054E+01 0.32765564871E+01 0.32893116482E+01
 0.33020095319E+01 0.33142262220E+01 0.33255511677E+01 0.33355933710E+01 0.33440058040E+01
 0.33505218053E+01 0.33549919464E+01 0.33574100930E+01 0.33579218715E+01 0.33568145120E+01
 0.33544911672E+01 0.33514340879E+01 0.33481602602E+01 0.33451721802E+01 0.33429068615E+01
 0.33416879906E+01 0.33416879906E+01 0.33429068615E+01 0.33451721802E+01 0.33481602602E+01
 0.33514340879E+01 0.33544911672E+01 0.33568145120E+01 0.33579218715E+01 0.33574100930E+01
 0.33549919464E+01 0.33505218053E+01 0.33364407564E+01 0.33355933710E+01 0.33330996562E+01
 0.33291018879E+01 0.33238284843E+01 0.33175848256E+01 0.33107446727E+01 0.33037408052E+01
 0.32970498818E+01 0.32911655314E+01 0.32865568486E+01 0.32836159339E+01 0.32826048663E+01
 0.32836159339E+01 0.32865568486E+01 0.32911655314E+01 0.32970498818E+01 0.33037408052E+01
 0.33107446727E+01 0.33175848256E+01 0.33238284843E+01 0.33291018879E+01 0.33330996562E+01
 0.33355933710E+01 0.33364407564E+01 0.33355933710E+01 0.33330996562E+01 0.33291018879E+01
 0.33238284843E+01 0.33175848256E+01 0.33107446727E+01 0.33037408052E+01 0.32970498818E+01
 0.32911655314E+01 0.32865568486E+01 0.32836159339E+01 0.32826048663E+01 0.32836159339E+01
 0.32865568486E+01 0.32911655314E+01 0.32970498818E+01 0.33037408052E+01 0.33107446727E+01
 0.33175848256E+01 0.33238284843E+01 0.33291018879E+01 0.33330996562E+01 0.33355933710E+01
 0.33440058040E+01 0.33505218053E+01 0.33549919464E+01 0.33574100930E+01 0.33579218715E+01
 0.33568145120E+01 0.33544911672E+01 0.33514340879E+01 0.33481602602E+01 0.33451721802E+01
 0.33429068615E+01 0.33416879906E+01 0.33416879906E+01 0.33429068615E+01 0.33451721802E+01
 0.33481602602E+01 0.33514340879E+01 0.33544911672E+01 0.33568145120E+01 0.33579218715E+01
 0.33574100930E+01 0.33549919464E+01 0.33505218053E+01 0.33440058040E+01 0.33355933710E+01
 0.33255511677E+01 0.33142262220E+01 0.33020095319E+01 0.32893116482E+01 0.32765564871E+01
 0.32641905054E+01 0.32526954414E+01 0.32425887090E+01 0.32343990184E+01 0.32286150964E+01
 0.32256181612E+01 0.32256181612E+01 0.32286150964E+01 0.32343990184E+01 0.32425887090E+01
 0.32526954414E+01 0.32641905054E+01 0.32765564871E+01 0.32893116482E+01 0.33020095319E+01
 0.33142262220E+01 0.33255511677E+01 0.33355933710E+01 0.33659028340E+01 0.33787634610E+01
 0.33888056668E+01 0.33959585055E+01 0.34003875385E+01 0.34024676767E+01 0.34027280914E+01
 0.34017817852E+01 0.34002517019E+01 0.33987020682E+01 0.33975804074E+01 0.33971736029E+01
 0.33975804074E+01 0.33987020682E+01 0.34002517019E+01 0.34017817852E+01 0.34027280914E+01
 0.34024676767E+01 0.34003875385E+01 0.33959585055E+01 0.33888056668E+01 0.33787634610E+01
 0.33659028340E+01 0.33505218053E+01 0.33330996562E+01 0.33142262220E+01 0.32945267708E+01
 0.32746050306E+01 0.32550199898E+01 0.32362980393E+01 0.32189663952E+01 0.32035834327E+01
 0.31907417426E+01 0.31810310650E+01 0.31749662701E+01 0.31729023429E+01 0.31749662701E+01
 0.31810310650E+01 0.31907417426E+01 0.32035834327E+01 0.32189663952E+01 0.32362980393E+01
 0.32550199898E+01 0.32746050306E+01 0.32945267708E+01 0.33142262220E+01 0.33330996562E+01
 0.33505218053E+01 0.33995794295E+01 0.34168000517E+01 0.34300793952E+01 0.34394143771E+01
 0.34451353149E+01 0.34478441194E+01 0.34483179238E+01 0.34473996791E+01 0.34458940196E+01
 0.34444799978E+01 0.34436457306E+01 0.34436457306E+01 0.34444799978E+01 0.34458940196E+01
 0.34473996791E+01 0.34483179238E+01 0.34478441194E+01 0.34451353149E+01 0.34394143771E+01
 0.34300793952E+01 0.34168000517E+01 0.33995794295E+01 0.33787634610E+01 0.33549919464E+01
 0.33291018879E+01 0.33020095319E+01 0.32746050306E+01 0.32476887737E+01 0.32219620754E+01
 0.31980630424E+01 0.31766199859E+01 0.31582877295E+01 0.31437401288E+01 0.31336120716E+01
 0.31284076381E+01 0.31284076381E+01 0.31336120716E+01 0.31437401288E+01 0.31582877295E+01
 0.31766199859E+01 0.31980630424E+01 0.32219620754E+01 0.32476887737E+01 0.32746050306E+01
 0.33020095319E+01 0.33291018879E+01 0.33549919464E+01 0.33787634610E+01 0.34403749455E+01
 0.34588615280E+01 0.34720425938E+01 0.34801783200E+01 0.34839527668E+01 0.34843587695E+01
 0.34825501758E+01 0.34796906717E+01 0.34768206970E+01 0.34747527641E+01 0.34740040313E+01
 0.34747527641E+01 0.34768206970E+01 0.34796906717E+01 0.34825501758E+01 0.34843587695E+01
 0.34839527668E+01 0.34801783200E+01 0.34720425938E+01 0.34588615280E+01 0.34403749455E+01
 0.34168000517E+01 0.33888056668E+01 0.33574100930E+01 0.33238284843E+01 0.32893116482E+01
 0.32550199898E+01 0.32219620754E+01 0.31910020592E+01 0.31629138195E+01 0.31384427883E+01
 0.31183361865E+01 0.31033189064E+01 0.30940184675E+01 0.30908668096E+01 0.30940184675E+01
 0.31033189064E+01 0.31183361865E+01 0.31384427883E+01 0.31629138195E+01 0.31910020592E+01
 0.32219620754E+01 0.32550199898E+01 0.32893116482E+01 0.33238284843E+01 0.33574100930E+01
 0.33888056668E+01 0.34168000517E+01 0.34812810474E+01 0.34968736143E+01 0.35058063450E+01
 0.35088454689E+01 0.35072308472E+01 0.35024566851E+01 0.34961090649E+01 0.34897380766E+01
 0.34846754545E+01 0.34818898716E+01 0.34818898716E+01 0.34846754545E+01 0.34897380766E+01
 0.34961090649E+01 0.35024566851E+01 0.35072308472E+01 0.35088454689E+01 0.35058063450E+01
 0.34968736143E+01 0.34812810474E+01 0.34588615280E+01 0.34300793952E+01 0.33959585055E+01
 0.33579218715E+01 0.33175848256E+01 0.32765564871E+01 0.32362980393E+01 0.31980630424E+01
 0.31629138195E+01 0.31317811559E+01 0.31055225756E+01 0.30849416315E+01 0.30707532534E+01
 0.30635079238E+01 0.30635079238E+01 0.30707532534E+01 0.30849416315E+01 0.31055225756E+01
 0.31317811559E+01 0.31629138195E+01 0.31980630424E+01 0.32362980393E+01 0.32765564871E+01
 0.33175848256E+01 0.33579218715E+01 0.33959585055E+01 0.34300793952E+01 0.34588615280E+01
 0.35131792898E+01 0.35210224073E+01 0.35212163058E+01 0.35151050211E+01 0.35045598873E+01
 0.34917779621E+01 0.34789982280E+01 0.34682432959E+01 0.34611094543E+01 0.34586150091E+01
 0.34611094543E+01 0.34682432959E+01 0.34789982280E+01 0.34917779621E+01 0.35045598873E+01
 0.35151050211E+01 0.35212163058E+01 0.35210224073E+01 0.35131792898E+01 0.34968736143E+01
 0.34720425938E+01 0.34394143771E+01 0.34003875385E+01 0.33568145120E+01 0.33107446727E+01
 0.32641905054E+01 0.32189663952E+01 0.31766199859E+01 0.31384427883E+01 0.31055225756E+01
 0.30787935349E+01 0.30590520920E+01 0.30469300856E+01 0.30428411708E+01 0.30469300856E+01
 0.30590520920E+01 0.30787935349E+01 0.31055225756E+01 0.31384427883E+01 0.31766199859E+01
 0.32189663952E+01 0.32641905054E+01 0.33107446727E+01 0.33568145120E+01 0.34003875385E+01
 0.34394143771E+01 0.34720425938E+01 0.34968736143E+01 0.35257225811E+01 0.35205299656E+01
 0.35070086217E+01 0.34875403574E+01 0.34650031278E+01 0.34424202155E+01 0.34226299863E+01
 0.34080076766E+01 0.34002538800E+01 0.34002538800E+01 0.34080076766E+01 0.34226299863E+01
 0.34424202155E+01 0.34650031278E+01 0.34875403574E+01 0.35070086217E+01 0.35205299656E+01
 0.35257225811E+01 0.35210224073E+01 0.35058063450E+01 0.34801783200E+01 0.34451353149E+01
 0.34024676767E+01 0.33544911672E+01 0.33037408052E+01 0.32526954414E+01 0.32035834327E+01
 0.31582877295E+01 0.31183361865E+01 0.30849416315E+01 0.30590520920E+01 0.30413830748E+01
 0.30324233523E+01 0.30324233523E+01 0.30413830748E+01 0.30590520920E+01 0.30849416315E+01
 0.31183361865E+01 0.31582877295E+01 0.32035834327E+01 0.32526954414E+01 0.33037408052E+01
 0.33544911672E+01 0.34024676767E+01 0.34451353149E+01 0.34801783200E+01 0.35058063450E+01
 0.35210224073E+01 0.35073474460E+01 0.34835280180E+01 0.34519805008E+01 0.34162960635E+01
 0.33803362765E+01 0.33478358698E+01 0.33220593688E+01 0.33055305296E+01 0.32998399574E+01
 0.33055305296E+01 0.33220593688E+01 0.33478358698E+01 0.33803362765E+01 0.34162960635E+01
 0.34519805008E+01 0.34835280180E+01 0.35073474460E+01 0.35205299656E+01 0.35212163058E+01
 0.35088454689E+01 0.34839527668E+01 0.34478441194E+01 0.34027280914E+01 0.33514340879E+01
 0.32970498818E+01 0.32425887090E+01 0.31907417426E+01 0.31437401288E+01 0.31033189064E+01
 0.30707532534E+01 0.30469300856E+01 0.30324233523E+01 0.30275534822E+01 0.30324233523E+01
 0.30469300856E+01 0.30707532534E+01 0.31033189064E+01 0.31437401288E+01 0.31907417426E+01
 0.32425887090E+01 0.32970498818E+01 0.33514340879E+01 0.34027280914E+01 0.34478441194E+01
 0.34839527668E+01 0.35088454689E+01 0.35212163058E+01 0.35205299656E+01 0.34468108104E+01
 0.34002890502E+01 0.33482699258E+01 0.32954699791E+01 0.32465591464E+01 0.32057592206E+01
 0.31765187061E+01 0.31612702800E+01 0.31612702800E+01 0.31765187061E+01 0.32057592206E+01
 0.32465591464E+01 0.32954699791E+01 0.33482699258E+01 0.34002890502E+01 0.34468108104E+01
 0.34835280180E+01 0.35070086217E+01 0.35151050211E+01 0.35072308472E+01 0.34843587695E+01
 0.34483179238E+01 0.34017817852E+01 0.33481602602E+01 0.32911655314E+01 0.32343990184E+01
 0.31810310650E+01 0.31336120716E+01 0.30940184675E+01 0.30635079238E+01 0.30428411708E+01
 0.30324233523E+01 0.30324233523E+01 0.30428411708E+01 0.30635079238E+01 0.30940184675E+01
 0.31336120716E+01 0.31810310650E+01 0.32343990184E+01 0.32911655314E+01 0.33481602602E+01
 0.34017817852E+01 0.34483179238E+01 0.34843587695E+01 0.35072308472E+01 0.35151050211E+01