 vasp.5.4.4.18Apr17-6-g9f103f2a35 (build Sep 10 2019 12:14:21) complex          
  
 executed on             LinuxIFC date 2020.09.09  16:04:10
 running on    1 total cores
 distrk:  each k-point on    1 cores,    1 groups
 distr:  one band on NCORES_PER_BAND=   1 cores,    1 groups


--------------------------------------------------------------------------------------------------------


 INCAR:
 POTCAR:    PAW_PBE Al 04Jan2001                  
 POTCAR:    PAW_PBE Al 04Jan2001                  
   SHA256 =  17880443556af62b473fe41b62a467bd001ad55d2cabe504a3f22e34d4e9db96 Al
   COPYR  = (c) Copyright 04Jan2001 Georg Kresse                                
   COPYR  = This file is part of the software VASP. Any use, copying, and all ot
   COPYR  = If you do not have a valid VASP license, you may not use, copy or di
   VRHFIN =Al: s2p1                                                             
   LEXCH  = PE                                                                  
   EATOM  =    53.5387 eV,    3.9350 Ry                                         
                                                                                
   TITEL  = PAW_PBE Al 04Jan2001                                                
   LULTRA =        F    use ultrasoft PP ?                                      
   IUNSCR =        1    unscreen: 0-lin 1-nonlin 2-no                           
   RPACOR =    1.500    partial core radius                                     
   POMASS =   26.981; ZVAL   =    3.000    mass and valenz                      
   RCORE  =    1.900    outmost cutoff radius                                   
   RWIGS  =    2.650; RWIGS  =    1.402    wigner-seitz radius (au A)           
   ENMAX  =  240.300; ENMIN  =  180.225 eV                                      
   ICORE  =        2    local potential                                         
   LCOR   =        T    correct aug charges                                     
   LPAW   =        T    paw PP                                                  
   EAUG   =  291.052                                                            
   DEXC   =    0.000                                                            
   RMAX   =    1.939    core radius for proj-oper                               
   RAUG   =    1.300    factor for augmentation sphere                          
   RDEP   =    1.966    radius for radial grids                                 
   RDEPT  =    1.856    core radius for aug-charge                              
                                                                                
   Atomic configuration                                                         
    6 entries                                                                   
     n  l   j            E        occ.                                          
     1  0  0.50     -1511.1048   2.0000                                         
     2  0  0.50      -108.1629   2.0000                                         
     2  1  1.50       -69.6402   6.0000                                         
     3  0  0.50        -7.7528   2.0000                                         
     3  1  1.50        -2.7121   1.0000                                         
     3  2  2.50        -2.7212   0.0000                                         
   Description                                                                  
     l       E           TYP  RCUT    TYP  RCUT                                 
     0     -7.7528455     23  1.900                                             
     0     -3.3096929     23  1.900                                             
     1     -2.7120682     23  1.900                                             
     1     13.6058260     23  1.900                                             
     2     -2.7211652      7  1.900                                             
  local pseudopotential read in
  partial core-charges read in
  partial kinetic energy density read in
  atomic valenz-charges read in
  non local Contribution for L=           0  read in
    real space projection operators read in
  non local Contribution for L=           0  read in
    real space projection operators read in
  non local Contribution for L=           1  read in
    real space projection operators read in
  non local Contribution for L=           1  read in
    real space projection operators read in
    PAW grid and wavefunctions read in
 
   number of l-projection  operators is LMAX  =           4
   number of lm-projection operators is LMMAX =           8
 

 ----------------------------------------------------------------------------- 
|                                                                             |
|  ADVICE TO THIS USER RUNNING 'VASP/VAMP'   (HEAR YOUR MASTER'S VOICE ...):  |
|                                                                             |
|      You have a (more or less) 'small supercell' and for smaller cells      |
|      it is recommended  to use the reciprocal-space projection scheme!      |
|      The real space optimization is not  efficient for small cells and it   |
|      is also less accurate ...                                              |
|      Therefore set LREAL=.FALSE. in the  INCAR file                         |
|                                                                             |
 ----------------------------------------------------------------------------- 

 Optimization of the real space projectors (new method)

 maximal supplied QI-value         = 19.84
 optimisation between [QCUT,QGAM] = [ 13.29, 26.59] = [ 49.49,197.96] Ry 
 Optimized for a Real-space Cutoff    1.06 Angstroem

   l    n(q)    QCUT    max X(q) W(low)/X(q) W(high)/X(q)  e(spline) 
   0      8    13.294   176.870    0.16E-03    0.14E-03    0.74E-07
   0      8    13.294   105.762    0.16E-03    0.14E-03    0.72E-07
   1      8    13.294    55.370    0.13E-03    0.25E-03    0.12E-06
   1      8    13.294    20.208    0.13E-03    0.22E-03    0.11E-06

 ----------------------------------------------------------------------------- 
|                                                                             |
|  ADVICE TO THIS USER RUNNING 'VASP/VAMP'   (HEAR YOUR MASTER'S VOICE ...):  |
|                                                                             |
|      You enforced a specific xc-type in the INCAR file,                     |
|      a different type was found on the POTCAR file                          |
|          I HOPE YOU KNOW, WHAT YOU ARE  DOING                               |
|                                                                             |
 ----------------------------------------------------------------------------- 

  PAW_PBE Al 04Jan2001                  :
 energy of atom  1       EATOM=  -53.5387
 kinetic energy error for atom=    0.0001 (will be added to EATOM!!)
 
 
 POSCAR: Al1                                     
  positions in direct lattice
  No initial velocities read in
 exchange correlation table for  LEXCH =       14
   RHO(1)=    0.500       N(1)  =     2000
   RHO(2)=  100.500       N(2)  =     4000
 


--------------------------------------------------------------------------------------------------------


 ion  position               nearest neighbor table
   1  0.000  0.000  0.000-
 
  LATTYP: Found a face centered cubic cell.
 ALAT       =     4.0389300000
  
  Lattice vectors:
  
 A1 = (   0.0000000000,   2.0194650000,   2.0194650000)
 A2 = (   2.0194650000,   0.0000000000,   2.0194650000)
 A3 = (   2.0194650000,   2.0194650000,   0.0000000000)


Analysis of symmetry for initial positions (statically):
=====================================================================
 Subroutine PRICEL returns:
 Original cell was already a primitive cell.
 

 Routine SETGRP: Setting up the symmetry group for a 
 face centered cubic supercell.


 Subroutine GETGRP returns: Found 48 space group operations
 (whereof 48 operations were pure point group operations)
 out of a pool of 48 trial point group operations.


The static configuration has the point symmetry O_h .


Analysis of symmetry for dynamics (positions and initial velocities):
=====================================================================
 Subroutine PRICEL returns:
 Original cell was already a primitive cell.
 

 Routine SETGRP: Setting up the symmetry group for a 
 face centered cubic supercell.


 Subroutine GETGRP returns: Found 48 space group operations
 (whereof 48 operations were pure point group operations)
 out of a pool of 48 trial point group operations.


The dynamic configuration has the point symmetry O_h .


Analysis of structural, dynamic, and magnetic symmetry:
=====================================================================
 Subroutine PRICEL returns:
 Original cell was already a primitive cell.
 

 Routine SETGRP: Setting up the symmetry group for a 
 face centered cubic supercell.


 Subroutine GETGRP returns: Found 48 space group operations
 (whereof 48 operations were pure point group operations)
 out of a pool of 48 trial point group operations.


The magnetic configuration has the point symmetry O_h .


 Subroutine INISYM returns: Found 48 space group operations
 (whereof 48 operations are pure point group operations),
 and found     1 'primitive' translations

 
 

Automatic generation of k-mesh.
 generate k-points for:   13   13   13
Space group operators:
 irot       det(A)        alpha          n_x          n_y          n_z        tau_x        tau_y        tau_z
    1     1.000000     0.000001     1.000000     0.000000     0.000000     0.000000     0.000000     0.000000
    2    -1.000000     0.000001     1.000000     0.000000     0.000000     0.000000     0.000000     0.000000
    3     1.000000   120.000000    -0.577350    -0.577350    -0.577350     0.000000     0.000000     0.000000
    4    -1.000000   120.000000    -0.577350    -0.577350    -0.577350     0.000000     0.000000     0.000000
    5     1.000000   120.000000     0.577350     0.577350     0.577350     0.000000     0.000000     0.000000
    6    -1.000000   120.000000     0.577350     0.577350     0.577350     0.000000     0.000000     0.000000
    7     1.000000    90.000000     0.000000     0.000000    -1.000000     0.000000     0.000000     0.000000
    8    -1.000000    90.000000     0.000000     0.000000    -1.000000     0.000000     0.000000     0.000000
    9     1.000000   180.000000     0.000000     0.707107     0.707107     0.000000     0.000000     0.000000
   10    -1.000000   180.000000     0.000000     0.707107     0.707107     0.000000     0.000000     0.000000
   11     1.000000    90.000000     0.000000     1.000000     0.000000     0.000000     0.000000     0.000000
   12    -1.000000    90.000000     0.000000     1.000000     0.000000     0.000000     0.000000     0.000000
   13     1.000000   180.000000     0.000000     0.000000     1.000000     0.000000     0.000000     0.000000
   14    -1.000000   180.000000     0.000000     0.000000     1.000000     0.000000     0.000000     0.000000
   15     1.000000   120.000000    -0.577350     0.577350     0.577350     0.000000     0.000000     0.000000
   16    -1.000000   120.000000    -0.577350     0.577350     0.577350     0.000000     0.000000     0.000000
   17     1.000000   120.000000    -0.577350     0.577350    -0.577350     0.000000     0.000000     0.000000
   18    -1.000000   120.000000    -0.577350     0.577350    -0.577350     0.000000     0.000000     0.000000
   19     1.000000    90.000000     0.000000     0.000000     1.000000     0.000000     0.000000     0.000000
   20    -1.000000    90.000000     0.000000     0.000000     1.000000     0.000000     0.000000     0.000000
   21     1.000000    90.000000    -1.000000     0.000000     0.000000     0.000000     0.000000     0.000000
   22    -1.000000    90.000000    -1.000000     0.000000     0.000000     0.000000     0.000000     0.000000
   23     1.000000   180.000000     0.707107     0.000000     0.707107     0.000000     0.000000     0.000000
   24    -1.000000   180.000000     0.707107     0.000000     0.707107     0.000000     0.000000     0.000000
   25     1.000000   120.000000     0.577350    -0.577350     0.577350     0.000000     0.000000     0.000000
   26    -1.000000   120.000000     0.577350    -0.577350     0.577350     0.000000     0.000000     0.000000
   27     1.000000   120.000000    -0.577350    -0.577350     0.577350     0.000000     0.000000     0.000000
   28    -1.000000   120.000000    -0.577350    -0.577350     0.577350     0.000000     0.000000     0.000000
   29     1.000000   180.000000     1.000000     0.000000     0.000000     0.000000     0.000000     0.000000
   30    -1.000000   180.000000     1.000000     0.000000     0.000000     0.000000     0.000000     0.000000
   31     1.000000    90.000000     0.000000    -1.000000     0.000000     0.000000     0.000000     0.000000
   32    -1.000000    90.000000     0.000000    -1.000000     0.000000     0.000000     0.000000     0.000000
   33     1.000000   180.000000     0.707107     0.707107     0.000000     0.000000     0.000000     0.000000
   34    -1.000000   180.000000     0.707107     0.707107     0.000000     0.000000     0.000000     0.000000
   35     1.000000    90.000000     1.000000     0.000000     0.000000     0.000000     0.000000     0.000000
   36    -1.000000    90.000000     1.000000     0.000000     0.000000     0.000000     0.000000     0.000000
   37     1.000000   120.000000     0.577350    -0.577350    -0.577350     0.000000     0.000000     0.000000
   38    -1.000000   120.000000     0.577350    -0.577350    -0.577350     0.000000     0.000000     0.000000
   39     1.000000   180.000000     0.000000     1.000000     0.000000     0.000000     0.000000     0.000000
   40    -1.000000   180.000000     0.000000     1.000000     0.000000     0.000000     0.000000     0.000000
   41     1.000000   120.000000     0.577350     0.577350    -0.577350     0.000000     0.000000     0.000000
   42    -1.000000   120.000000     0.577350     0.577350    -0.577350     0.000000     0.000000     0.000000
   43     1.000000   180.000000     0.000000    -0.707107     0.707107     0.000000     0.000000     0.000000
   44    -1.000000   180.000000     0.000000    -0.707107     0.707107     0.000000     0.000000     0.000000
   45     1.000000   180.000000     0.707107    -0.707107     0.000000     0.000000     0.000000     0.000000
   46    -1.000000   180.000000     0.707107    -0.707107     0.000000     0.000000     0.000000     0.000000
   47     1.000000   180.000000     0.707107     0.000000    -0.707107     0.000000     0.000000     0.000000
   48    -1.000000   180.000000     0.707107     0.000000    -0.707107     0.000000     0.000000     0.000000
 
 Subroutine IBZKPT returns following result:
 ===========================================
 
 Found     84 irreducible k-points:
 
 Following reciprocal coordinates:
            Coordinates               Weight
  0.000000  0.000000  0.000000      1.000000
  0.076923  0.000000  0.000000      8.000000
  0.153846  0.000000  0.000000      8.000000
  0.230769  0.000000  0.000000      8.000000
  0.307692  0.000000  0.000000      8.000000
  0.384615  0.000000  0.000000      8.000000
  0.461538  0.000000  0.000000      8.000000
  0.076923  0.076923  0.000000      6.000000
  0.153846  0.076923  0.000000     24.000000
  0.230769  0.076923  0.000000     24.000000
  0.307692  0.076923  0.000000     24.000000
  0.384615  0.076923  0.000000     24.000000
  0.461538  0.076923  0.000000     24.000000
 -0.461538  0.076923  0.000000     24.000000
 -0.384615  0.076923  0.000000     24.000000
 -0.307692  0.076923  0.000000     24.000000
 -0.230769  0.076923  0.000000     24.000000
 -0.153846  0.076923  0.000000     24.000000
 -0.076923  0.076923  0.000000     12.000000
  0.153846  0.153846  0.000000      6.000000
  0.230769  0.153846  0.000000     24.000000
  0.307692  0.153846  0.000000     24.000000
  0.384615  0.153846  0.000000     24.000000
  0.461538  0.153846  0.000000     24.000000
 -0.461538  0.153846  0.000000     24.000000
 -0.384615  0.153846  0.000000     24.000000
 -0.307692  0.153846  0.000000     24.000000
 -0.230769  0.153846  0.000000     24.000000
 -0.153846  0.153846  0.000000     12.000000
  0.230769  0.230769  0.000000      6.000000
  0.307692  0.230769  0.000000     24.000000
  0.384615  0.230769  0.000000     24.000000
  0.461538  0.230769  0.000000     24.000000
 -0.461538  0.230769  0.000000     24.000000
 -0.384615  0.230769  0.000000     24.000000
 -0.307692  0.230769  0.000000     24.000000
 -0.230769  0.230769  0.000000     12.000000
  0.307692  0.307692  0.000000      6.000000
  0.384615  0.307692  0.000000     24.000000
  0.461538  0.307692  0.000000     24.000000
 -0.461538  0.307692  0.000000     24.000000
 -0.384615  0.307692  0.000000     24.000000
 -0.307692  0.307692  0.000000     12.000000
  0.384615  0.384615  0.000000      6.000000
  0.461538  0.384615  0.000000     24.000000
 -0.461538  0.384615  0.000000     24.000000
 -0.384615  0.384615  0.000000     12.000000
  0.461538  0.461538  0.000000      6.000000
 -0.461538  0.461538  0.000000     12.000000
  0.230769  0.153846  0.076923     24.000000
  0.307692  0.153846  0.076923     48.000000
  0.384615  0.153846  0.076923     48.000000
  0.461538  0.153846  0.076923     48.000000
 -0.461538  0.153846  0.076923     48.000000
  0.307692  0.230769  0.076923     24.000000
  0.384615  0.230769  0.076923     48.000000
  0.461538  0.230769  0.076923     48.000000
 -0.461538  0.230769  0.076923     48.000000
 -0.384615  0.230769  0.076923     48.000000
 -0.307692  0.230769  0.076923     48.000000
 -0.230769  0.230769  0.076923     48.000000
 -0.153846  0.230769  0.076923     24.000000
  0.384615  0.307692  0.076923     24.000000
  0.461538  0.307692  0.076923     48.000000
 -0.461538  0.307692  0.076923     48.000000
 -0.384615  0.307692  0.076923     48.000000
 -0.307692  0.307692  0.076923     48.000000
 -0.230769  0.307692  0.076923     24.000000
  0.461538  0.384615  0.076923     24.000000
 -0.461538  0.384615  0.076923     48.000000
 -0.384615  0.384615  0.076923     48.000000
 -0.307692  0.384615  0.076923     24.000000
 -0.461538  0.461538  0.076923     24.000000
 -0.384615  0.461538  0.076923     24.000000
  0.461538  0.307692  0.153846     24.000000
 -0.461538  0.307692  0.153846     48.000000
 -0.384615  0.307692  0.153846     48.000000
 -0.461538  0.384615  0.153846     24.000000
 -0.384615  0.384615  0.153846     48.000000
 -0.307692  0.384615  0.153846     48.000000
 -0.230769  0.384615  0.153846     24.000000
 -0.384615  0.461538  0.153846     24.000000
 -0.307692  0.461538  0.153846     24.000000
 -0.307692  0.461538  0.230769     24.000000
 
 Following cartesian coordinates:
            Coordinates               Weight
  0.000000  0.000000  0.000000      1.000000
 -0.019045  0.019045  0.019045      8.000000
 -0.038091  0.038091  0.038091      8.000000
 -0.057136  0.057136  0.057136      8.000000
 -0.076182  0.076182  0.076182      8.000000
 -0.095227  0.095227  0.095227      8.000000
 -0.114272  0.114272  0.114272      8.000000
  0.000000  0.000000  0.038091      6.000000
 -0.019045  0.019045  0.057136     24.000000
 -0.038091  0.038091  0.076182     24.000000
 -0.057136  0.057136  0.095227     24.000000
 -0.076182  0.076182  0.114272     24.000000
 -0.095227  0.095227  0.133318     24.000000
  0.133318 -0.133318 -0.095227     24.000000
  0.114272 -0.114272 -0.076182     24.000000
  0.095227 -0.095227 -0.057136     24.000000
  0.076182 -0.076182 -0.038091     24.000000
  0.057136 -0.057136 -0.019045     24.000000
  0.038091 -0.038091  0.000000     12.000000
  0.000000  0.000000  0.076182      6.000000
 -0.019045  0.019045  0.095227     24.000000
 -0.038091  0.038091  0.114272     24.000000
 -0.057136  0.057136  0.133318     24.000000
 -0.076182  0.076182  0.152363     24.000000
  0.152363 -0.152363 -0.076182     24.000000
  0.133318 -0.133318 -0.057136     24.000000
  0.114272 -0.114272 -0.038091     24.000000
  0.095227 -0.095227 -0.019045     24.000000
  0.076182 -0.076182  0.000000     12.000000
  0.000000  0.000000  0.114272      6.000000
 -0.019045  0.019045  0.133318     24.000000
 -0.038091  0.038091  0.152363     24.000000
 -0.057136  0.057136  0.171409     24.000000
  0.171409 -0.171409 -0.057136     24.000000
  0.152363 -0.152363 -0.038091     24.000000
  0.133318 -0.133318 -0.019045     24.000000
  0.114272 -0.114272  0.000000     12.000000
  0.000000  0.000000  0.152363      6.000000
 -0.019045  0.019045  0.171409     24.000000
 -0.038091  0.038091  0.190454     24.000000
  0.190454 -0.190454 -0.038091     24.000000
  0.171409 -0.171409 -0.019045     24.000000
  0.152363 -0.152363  0.000000     12.000000
  0.000000  0.000000  0.190454      6.000000
 -0.019045  0.019045  0.209500     24.000000
  0.209500 -0.209500 -0.019045     24.000000
  0.190454 -0.190454  0.000000     12.000000
  0.000000  0.000000  0.228545      6.000000
  0.228545 -0.228545  0.000000     12.000000
 -0.000000  0.038091  0.076182     24.000000
 -0.019045  0.057136  0.095227     48.000000
 -0.038091  0.076182  0.114272     48.000000
 -0.057136  0.095227  0.133318     48.000000
  0.171409 -0.133318 -0.095227     48.000000
  0.000000  0.038091  0.114272     24.000000
 -0.019045  0.057136  0.133318     48.000000
 -0.038091  0.076182  0.152363     48.000000
  0.190454 -0.152363 -0.076182     48.000000
  0.171409 -0.133318 -0.057136     48.000000
  0.152363 -0.114272 -0.038091     48.000000
  0.133318 -0.095227 -0.019045     48.000000
  0.114272 -0.076182  0.000000     24.000000
 -0.000000  0.038091  0.152363     24.000000
 -0.019045  0.057136  0.171409     48.000000
  0.209500 -0.171409 -0.057136     48.000000
  0.190454 -0.152363 -0.038091     48.000000
  0.171409 -0.133318 -0.019045     48.000000
  0.152363 -0.114272 -0.000000     24.000000
 -0.000000  0.038091  0.190454     24.000000
  0.228545 -0.190454 -0.038091     48.000000
  0.209500 -0.171409 -0.019045     48.000000
  0.190454 -0.152363  0.000000     24.000000
  0.247590 -0.209500 -0.019045     24.000000
  0.228545 -0.190454  0.000000     24.000000
 -0.000000  0.076182  0.152363     24.000000
  0.228545 -0.152363 -0.076182     48.000000
  0.209500 -0.133318 -0.057136     48.000000
  0.247590 -0.171409 -0.057136     24.000000
  0.228545 -0.152363 -0.038091     48.000000
  0.209500 -0.133318 -0.019045     48.000000
  0.190454 -0.114272  0.000000     24.000000
  0.247590 -0.171409 -0.019045     24.000000
  0.228545 -0.152363  0.000000     24.000000
  0.247590 -0.133318 -0.019045     24.000000
 


--------------------------------------------------------------------------------------------------------




 Dimension of arrays:
   k-points           NKPTS =     84   k-points in BZ     NKDIM =     84   number of bands    NBANDS=      5
   number of dos      NEDOS =    301   number of ions     NIONS =      1
   non local maximal  LDIM  =      4   non local SUM 2l+1 LMDIM =      8
   total plane-waves  NPLWV =  13824
   max r-space proj   IRMAX =   4223   max aug-charges    IRDMAX=  32859
   dimension x,y,z NGX =    24 NGY =   24 NGZ =   24
   dimension x,y,z NGXF=    48 NGYF=   48 NGZF=   48
   support grid    NGXF=    48 NGYF=   48 NGZF=   48
   ions per type =               1
   NGX,Y,Z   is equivalent  to a cutoff of  13.97, 13.97, 13.97 a.u.
   NGXF,Y,Z  is equivalent  to a cutoff of  27.94, 27.94, 27.94 a.u.

 SYSTEM =  unknown system                          
 POSCAR =  Al1                                     

 Startparameter for this run:
   NWRITE =      2    write-flag & timer
   PREC   = accura    normal or accurate (medium, high low for compatibility)
   ISTART =      0    job   : 0-new  1-cont  2-samecut
   ICHARG =      2    charge: 1-file 2-atom 10-const
   ISPIN  =      2    spin polarized calculation?
   LNONCOLLINEAR =      F non collinear calculations
   LSORBIT =      F    spin-orbit coupling
   INIWAV =      1    electr: 0-lowe 1-rand  2-diag
   LASPH  =      T    aspherical Exc in radial PAW
   METAGGA=      F    non-selfconsistent MetaGGA calc.

 Electronic Relaxation 1
   ENCUT  =  680.0 eV  49.98 Ry    7.07 a.u.   6.07  6.07  6.07*2*pi/ulx,y,z
   ENINI  =  680.0     initial cutoff
   ENAUG  = 1360.0 eV  augmentation charge cutoff
   NELM   =    200;   NELMIN=  2; NELMDL= -5     # of ELM steps 
   EDIFF  = 0.1E-04   stopping-criterion for ELM
   LREAL  =      T    real-space projection
   NLSPLINE    = F    spline interpolate recip. space projectors
   LCOMPAT=      F    compatible to vasp.4.4
   GGA_COMPAT  = T    GGA compatible to vasp.4.4-vasp.4.6
   LMAXPAW     = -100 max onsite density
   LMAXMIX     =    2 max onsite mixed and CHGCAR
   VOSKOWN=      0    Vosko Wilk Nusair interpolation
   ROPT   =   -0.00025
 Ionic relaxation
   EDIFFG = -.5E-01   stopping-criterion for IOM
   NSW    =      0    number of steps for IOM
   NBLOCK =      1;   KBLOCK =      1    inner block; outer block 
   IBRION =     -1    ionic relax: 0-MD 1-quasi-New 2-CG
   NFREE  =      1    steps in history (QN), initial steepest desc. (CG)
   ISIF   =      3    stress and relaxation
   IWAVPR =     10    prediction:  0-non 1-charg 2-wave 3-comb
   ISYM   =      2    0-nonsym 1-usesym 2-fastsym
   LCORR  =      T    Harris-Foulkes like correction to forces

   POTIM  = 0.5000    time-step for ionic-motion
   TEIN   =    0.0    initial temperature
   TEBEG  =    0.0;   TEEND  =   0.0 temperature during run
   SMASS  =  -3.00    Nose mass-parameter (am)
   estimated Nose-frequenzy (Omega)   =  0.10E-29 period in steps =****** mass=  -0.186E-27a.u.
   SCALEE = 1.0000    scale energy and forces
   NPACO  =    256;   APACO  = 16.0  distance and # of slots for P.C.
   PSTRESS=    0.0 pullay stress

  Mass of Ions in am
   POMASS =  26.98
  Ionic Valenz
   ZVAL   =   3.00
  Atomic Wigner-Seitz radii
   RWIGS  =  -1.00
  virtual crystal weights 
   VCA    =   1.00
   NELECT =       3.0000    total number of electrons
   NUPDOWN=      -1.0000    fix difference up-down

 DOS related values:
   EMIN   =  10.00;   EMAX   =-10.00  energy-range for DOS
   EFERMI =   0.00
   ISMEAR =     2;   SIGMA  =   0.20  broadening in eV -4-tet -1-fermi 0-gaus

 Electronic relaxation 2 (details)
   IALGO  =     58    algorithm
   LDIAG  =      T    sub-space diagonalisation (order eigenvalues)
   LSUBROT=      F    optimize rotation matrix (better conditioning)
   TURBO    =      0    0=normal 1=particle mesh
   IRESTART =      0    0=no restart 2=restart with 2 vectors
   NREBOOT  =      0    no. of reboots
   NMIN     =      0    reboot dimension
   EREF     =   0.00    reference energy to select bands
   IMIX   =      4    mixing-type and parameters
     AMIX     =   0.40;   BMIX     =  1.00
     AMIX_MAG =   1.60;   BMIX_MAG =  1.00
     AMIN     =   0.10
     WC   =   100.;   INIMIX=   1;  MIXPRE=   1;  MAXMIX= -45

 Intra band minimization:
   WEIMIN = 0.0000     energy-eigenvalue tresh-hold
   EBREAK =  0.50E-06  absolut break condition
   DEPER  =   0.30     relativ break condition  

   TIME   =   0.40     timestep for ELM

  volume/ion in A,a.u.               =      16.47       111.16
  Fermi-wavevector in a.u.,A,eV,Ry     =   0.927974  1.753616 11.716451  0.861135
  Thomas-Fermi vector in A             =   2.054101
 
 Write flags
   LWAVE        =      F    write WAVECAR
   LDOWNSAMPLE  =      F    k-point downsampling of WAVECAR
   LCHARG       =      T    write CHGCAR
   LVTOT        =      T    write LOCPOT, total local potential
   LVHAR        =      F    write LOCPOT, Hartree potential only
   LELF         =      T    write electronic localiz. function (ELF)
   LORBIT       =     11    0 simple, 1 ext, 2 COOP (PROOUT), +10 PAW based schemes


 Dipole corrections
   LMONO  =      F    monopole corrections only (constant potential shift)
   LDIPOL =      F    correct potential (dipole corrections)
   IDIPOL =      0    1-x, 2-y, 3-z, 4-all directions 
   EPSILON=  1.0000000 bulk dielectric constant

 Exchange correlation treatment:
   GGA     =    PS    GGA type
   LEXCH   =    14    internal setting for exchange type
   VOSKOWN=      0    Vosko Wilk Nusair interpolation
   LHFCALC =     F    Hartree Fock is set to
   LHFONE  =     F    Hartree Fock one center treatment
   AEXX    =    0.0000 exact exchange contribution

 Linear response parameters
   LEPSILON=     F    determine dielectric tensor
   LRPA    =     F    only Hartree local field effects (RPA)
   LNABLA  =     F    use nabla operator in PAW spheres
   LVEL    =     F    velocity operator in full k-point grid
   LINTERFAST=   F  fast interpolation
   KINTER  =     0    interpolate to denser k-point grid
   CSHIFT  =0.1000    complex shift for real part using Kramers Kronig
   OMEGAMAX=  -1.0    maximum frequency
   DEG_THRESHOLD= 0.2000000E-02 threshold for treating states as degnerate
   RTIME   =   -0.100 relaxation time in fs
  (WPLASMAI=    0.000 imaginary part of plasma frequency in eV, 0.658/RTIME)
   DFIELD  = 0.0000000 0.0000000 0.0000000 field for delta impulse in time
 
 Orbital magnetization related:
   ORBITALMAG=     F  switch on orbital magnetization
   LCHIMAG   =     F  perturbation theory with respect to B field
   DQ        =  0.001000  dq finite difference perturbation B field
   LLRAUG    =     F  two centre corrections for induced B field



--------------------------------------------------------------------------------------------------------


 Static calculation
 charge density and potential will be updated during run
 spin polarized calculation
 Conjugate gradient for all bands (Freysoldt, et al. PRB 79, 241103 (2009))
 preconditioned conjugated gradient                                        
 perform sub-space diagonalisation
    before iterative eigenvector-optimisation
 modified Broyden-mixing scheme, WC =      100.0
 initial mixing is a Kerker type mixing with AMIX =  0.4000 and BMIX =      1.0000
 Hartree-type preconditioning will be used
 using additional bands            3
 real space projection scheme for non local part
 use partial core corrections
 no Harris-corrections to forces 
 use gradient corrections 
 use of overlap-Matrix (Vanderbilt PP)
 Methfessel and Paxton  Order N= 2 SIGMA  =   0.20


--------------------------------------------------------------------------------------------------------


  energy-cutoff  :      680.00
  volume of cell :       16.47
      direct lattice vectors                 reciprocal lattice vectors
     0.000000000  2.019465000  2.019465000    -0.247590327  0.247590327  0.247590327
     2.019465000  0.000000000  2.019465000     0.247590327 -0.247590327  0.247590327
     2.019465000  2.019465000  0.000000000     0.247590327  0.247590327 -0.247590327

  length of vectors
     2.855954792  2.855954792  2.855954792     0.428839026  0.428839026  0.428839026


 
 k-points in units of 2pi/SCALE and weight: read from INCAR                         
   0.00000000  0.00000000  0.00000000       0.000
  -0.01904541  0.01904541  0.01904541       0.004
  -0.03809082  0.03809082  0.03809082       0.004
  -0.05713623  0.05713623  0.05713623       0.004
  -0.07618164  0.07618164  0.07618164       0.004
  -0.09522705  0.09522705  0.09522705       0.004
  -0.11427246  0.11427246  0.11427246       0.004
   0.00000000  0.00000000  0.03809082       0.003
  -0.01904541  0.01904541  0.05713623       0.011
  -0.03809082  0.03809082  0.07618164       0.011
  -0.05713623  0.05713623  0.09522705       0.011
  -0.07618164  0.07618164  0.11427246       0.011
  -0.09522705  0.09522705  0.13331787       0.011
   0.13331787 -0.13331787 -0.09522705       0.011
   0.11427246 -0.11427246 -0.07618164       0.011
   0.09522705 -0.09522705 -0.05713623       0.011
   0.07618164 -0.07618164 -0.03809082       0.011
   0.05713623 -0.05713623 -0.01904541       0.011
   0.03809082 -0.03809082  0.00000000       0.005
   0.00000000  0.00000000  0.07618164       0.003
  -0.01904541  0.01904541  0.09522705       0.011
  -0.03809082  0.03809082  0.11427246       0.011
  -0.05713623  0.05713623  0.13331787       0.011
  -0.07618164  0.07618164  0.15236328       0.011
   0.15236328 -0.15236328 -0.07618164       0.011
   0.13331787 -0.13331787 -0.05713623       0.011
   0.11427246 -0.11427246 -0.03809082       0.011
   0.09522705 -0.09522705 -0.01904541       0.011
   0.07618164 -0.07618164  0.00000000       0.005
   0.00000000  0.00000000  0.11427246       0.003
  -0.01904541  0.01904541  0.13331787       0.011
  -0.03809082  0.03809082  0.15236328       0.011
  -0.05713623  0.05713623  0.17140869       0.011
   0.17140869 -0.17140869 -0.05713623       0.011
   0.15236328 -0.15236328 -0.03809082       0.011
   0.13331787 -0.13331787 -0.01904541       0.011
   0.11427246 -0.11427246  0.00000000       0.005
   0.00000000  0.00000000  0.15236328       0.003
  -0.01904541  0.01904541  0.17140869       0.011
  -0.03809082  0.03809082  0.19045410       0.011
   0.19045410 -0.19045410 -0.03809082       0.011
   0.17140869 -0.17140869 -0.01904541       0.011
   0.15236328 -0.15236328  0.00000000       0.005
   0.00000000  0.00000000  0.19045410       0.003
  -0.01904541  0.01904541  0.20949951       0.011
   0.20949951 -0.20949951 -0.01904541       0.011
   0.19045410 -0.19045410  0.00000000       0.005
   0.00000000  0.00000000  0.22854492       0.003
   0.22854492 -0.22854492  0.00000000       0.005
  -0.00000000  0.03809082  0.07618164       0.011
  -0.01904541  0.05713623  0.09522705       0.022
  -0.03809082  0.07618164  0.11427246       0.022
  -0.05713623  0.09522705  0.13331787       0.022
   0.17140869 -0.13331787 -0.09522705       0.022
   0.00000000  0.03809082  0.11427246       0.011
  -0.01904541  0.05713623  0.13331787       0.022
  -0.03809082  0.07618164  0.15236328       0.022
   0.19045410 -0.15236328 -0.07618164       0.022
   0.17140869 -0.13331787 -0.05713623       0.022
   0.15236328 -0.11427246 -0.03809082       0.022
   0.13331787 -0.09522705 -0.01904541       0.022
   0.11427246 -0.07618164  0.00000000       0.011
  -0.00000000  0.03809082  0.15236328       0.011
  -0.01904541  0.05713623  0.17140869       0.022
   0.20949951 -0.17140869 -0.05713623       0.022
   0.19045410 -0.15236328 -0.03809082       0.022
   0.17140869 -0.13331787 -0.01904541       0.022
   0.15236328 -0.11427246 -0.00000000       0.011
  -0.00000000  0.03809082  0.19045410       0.011
   0.22854492 -0.19045410 -0.03809082       0.022
   0.20949951 -0.17140869 -0.01904541       0.022
   0.19045410 -0.15236328  0.00000000       0.011
   0.24759033 -0.20949951 -0.01904541       0.011
   0.22854492 -0.19045410  0.00000000       0.011
  -0.00000000  0.07618164  0.15236328       0.011
   0.22854492 -0.15236328 -0.07618164       0.022
   0.20949951 -0.13331787 -0.05713623       0.022
   0.24759033 -0.17140869 -0.05713623       0.011
   0.22854492 -0.15236328 -0.03809082       0.022
   0.20949951 -0.13331787 -0.01904541       0.022
   0.19045410 -0.11427246  0.00000000       0.011
   0.24759033 -0.17140869 -0.01904541       0.011
   0.22854492 -0.15236328  0.00000000       0.011
   0.24759033 -0.13331787 -0.01904541       0.011
 
 k-points in reciprocal lattice and weights: read from INCAR                         
   0.00000000  0.00000000  0.00000000       0.000
   0.07692308  0.00000000  0.00000000       0.004
   0.15384615  0.00000000  0.00000000       0.004
   0.23076923  0.00000000  0.00000000       0.004
   0.30769231  0.00000000  0.00000000       0.004
   0.38461538  0.00000000  0.00000000       0.004
   0.46153846  0.00000000  0.00000000       0.004
   0.07692308  0.07692308  0.00000000       0.003
   0.15384615  0.07692308  0.00000000       0.011
   0.23076923  0.07692308  0.00000000       0.011
   0.30769231  0.07692308  0.00000000       0.011
   0.38461538  0.07692308  0.00000000       0.011
   0.46153846  0.07692308  0.00000000       0.011
  -0.46153846  0.07692308  0.00000000       0.011
  -0.38461538  0.07692308  0.00000000       0.011
  -0.30769231  0.07692308  0.00000000       0.011
  -0.23076923  0.07692308  0.00000000       0.011
  -0.15384615  0.07692308  0.00000000       0.011
  -0.07692308  0.07692308  0.00000000       0.005
   0.15384615  0.15384615  0.00000000       0.003
   0.23076923  0.15384615  0.00000000       0.011
   0.30769231  0.15384615  0.00000000       0.011
   0.38461538  0.15384615  0.00000000       0.011
   0.46153846  0.15384615  0.00000000       0.011
  -0.46153846  0.15384615  0.00000000       0.011
  -0.38461538  0.15384615  0.00000000       0.011
  -0.30769231  0.15384615  0.00000000       0.011
  -0.23076923  0.15384615  0.00000000       0.011
  -0.15384615  0.15384615  0.00000000       0.005
   0.23076923  0.23076923  0.00000000       0.003
   0.30769231  0.23076923  0.00000000       0.011
   0.38461538  0.23076923  0.00000000       0.011
   0.46153846  0.23076923  0.00000000       0.011
  -0.46153846  0.23076923  0.00000000       0.011
  -0.38461538  0.23076923  0.00000000       0.011
  -0.30769231  0.23076923  0.00000000       0.011
  -0.23076923  0.23076923  0.00000000       0.005
   0.30769231  0.30769231  0.00000000       0.003
   0.38461538  0.30769231  0.00000000       0.011
   0.46153846  0.30769231  0.00000000       0.011
  -0.46153846  0.30769231  0.00000000       0.011
  -0.38461538  0.30769231  0.00000000       0.011
  -0.30769231  0.30769231  0.00000000       0.005
   0.38461538  0.38461538  0.00000000       0.003
   0.46153846  0.38461538  0.00000000       0.011
  -0.46153846  0.38461538  0.00000000       0.011
  -0.38461538  0.38461538  0.00000000       0.005
   0.46153846  0.46153846  0.00000000       0.003
  -0.46153846  0.46153846  0.00000000       0.005
   0.23076923  0.15384615  0.07692308       0.011
   0.30769231  0.15384615  0.07692308       0.022
   0.38461538  0.15384615  0.07692308       0.022
   0.46153846  0.15384615  0.07692308       0.022
  -0.46153846  0.15384615  0.07692308       0.022
   0.30769231  0.23076923  0.07692308       0.011
   0.38461538  0.23076923  0.07692308       0.022
   0.46153846  0.23076923  0.07692308       0.022
  -0.46153846  0.23076923  0.07692308       0.022
  -0.38461538  0.23076923  0.07692308       0.022
  -0.30769231  0.23076923  0.07692308       0.022
  -0.23076923  0.23076923  0.07692308       0.022
  -0.15384615  0.23076923  0.07692308       0.011
   0.38461538  0.30769231  0.07692308       0.011
   0.46153846  0.30769231  0.07692308       0.022
  -0.46153846  0.30769231  0.07692308       0.022
  -0.38461538  0.30769231  0.07692308       0.022
  -0.30769231  0.30769231  0.07692308       0.022
  -0.23076923  0.30769231  0.07692308       0.011
   0.46153846  0.38461538  0.07692308       0.011
  -0.46153846  0.38461538  0.07692308       0.022
  -0.38461538  0.38461538  0.07692308       0.022
  -0.30769231  0.38461538  0.07692308       0.011
  -0.46153846  0.46153846  0.07692308       0.011
  -0.38461538  0.46153846  0.07692308       0.011
   0.46153846  0.30769231  0.15384615       0.011
  -0.46153846  0.30769231  0.15384615       0.022
  -0.38461538  0.30769231  0.15384615       0.022
  -0.46153846  0.38461538  0.15384615       0.011
  -0.38461538  0.38461538  0.15384615       0.022
  -0.30769231  0.38461538  0.15384615       0.022
  -0.23076923  0.38461538  0.15384615       0.011
  -0.38461538  0.46153846  0.15384615       0.011
  -0.30769231  0.46153846  0.15384615       0.011
  -0.30769231  0.46153846  0.23076923       0.011
 
 position of ions in fractional coordinates (direct lattice) 
   0.00000000  0.00000000  0.00000000
 
 position of ions in cartesian coordinates  (Angst):
   0.00000000  0.00000000  0.00000000
 


--------------------------------------------------------------------------------------------------------


 k-point  1 :   0.0000 0.0000 0.0000  plane waves:     645
 k-point  2 :   0.0769 0.0000 0.0000  plane waves:     652
 k-point  3 :   0.1538 0.0000 0.0000  plane waves:     655
 k-point  4 :   0.2308 0.0000 0.0000  plane waves:     649
 k-point  5 :   0.3077 0.0000 0.0000  plane waves:     652
 k-point  6 :   0.3846 0.0000 0.0000  plane waves:     664
 k-point  7 :   0.4615 0.0000 0.0000  plane waves:     649
 k-point  8 :   0.0769 0.0769 0.0000  plane waves:     657
 k-point  9 :   0.1538 0.0769 0.0000  plane waves:     658
 k-point 10 :   0.2308 0.0769 0.0000  plane waves:     656
 k-point 11 :   0.3077 0.0769 0.0000  plane waves:     655
 k-point 12 :   0.3846 0.0769 0.0000  plane waves:     653
 k-point 13 :   0.4615 0.0769 0.0000  plane waves:     655
 k-point 14 :  -0.4615 0.0769 0.0000  plane waves:     663
 k-point 15 :  -0.3846 0.0769 0.0000  plane waves:     656
 k-point 16 :  -0.3077 0.0769 0.0000  plane waves:     657
 k-point 17 :  -0.2308 0.0769 0.0000  plane waves:     654
 k-point 18 :  -0.1538 0.0769 0.0000  plane waves:     659
 k-point 19 :  -0.0769 0.0769 0.0000  plane waves:     656
 k-point 20 :   0.1538 0.1538 0.0000  plane waves:     665
 k-point 21 :   0.2308 0.1538 0.0000  plane waves:     660
 k-point 22 :   0.3077 0.1538 0.0000  plane waves:     659
 k-point 23 :   0.3846 0.1538 0.0000  plane waves:     664
 k-point 24 :   0.4615 0.1538 0.0000  plane waves:     664
 k-point 25 :  -0.4615 0.1538 0.0000  plane waves:     666
 k-point 26 :  -0.3846 0.1538 0.0000  plane waves:     664
 k-point 27 :  -0.3077 0.1538 0.0000  plane waves:     652
 k-point 28 :  -0.2308 0.1538 0.0000  plane waves:     653
 k-point 29 :  -0.1538 0.1538 0.0000  plane waves:     658
 k-point 30 :   0.2308 0.2308 0.0000  plane waves:     653
 k-point 31 :   0.3077 0.2308 0.0000  plane waves:     657
 k-point 32 :   0.3846 0.2308 0.0000  plane waves:     663
 k-point 33 :   0.4615 0.2308 0.0000  plane waves:     665
 k-point 34 :  -0.4615 0.2308 0.0000  plane waves:     675
 k-point 35 :  -0.3846 0.2308 0.0000  plane waves:     676
 k-point 36 :  -0.3077 0.2308 0.0000  plane waves:     669
 k-point 37 :  -0.2308 0.2308 0.0000  plane waves:     662
 k-point 38 :   0.3077 0.3077 0.0000  plane waves:     652
 k-point 39 :   0.3846 0.3077 0.0000  plane waves:     666
 k-point 40 :   0.4615 0.3077 0.0000  plane waves:     668
 k-point 41 :  -0.4615 0.3077 0.0000  plane waves:     672
 k-point 42 :  -0.3846 0.3077 0.0000  plane waves:     671
 k-point 43 :  -0.3077 0.3077 0.0000  plane waves:     670
 k-point 44 :   0.3846 0.3846 0.0000  plane waves:     664
 k-point 45 :   0.4615 0.3846 0.0000  plane waves:     668
 k-point 46 :  -0.4615 0.3846 0.0000  plane waves:     668
 k-point 47 :  -0.3846 0.3846 0.0000  plane waves:     674
 k-point 48 :   0.4615 0.4615 0.0000  plane waves:     668
 k-point 49 :  -0.4615 0.4615 0.0000  plane waves:     666
 k-point 50 :   0.2308 0.1538 0.0769  plane waves:     663
 k-point 51 :   0.3077 0.1538 0.0769  plane waves:     656
 k-point 52 :   0.3846 0.1538 0.0769  plane waves:     651
 k-point 53 :   0.4615 0.1538 0.0769  plane waves:     661
 k-point 54 :  -0.4615 0.1538 0.0769  plane waves:     665
 k-point 55 :   0.3077 0.2308 0.0769  plane waves:     658
 k-point 56 :   0.3846 0.2308 0.0769  plane waves:     661
 k-point 57 :   0.4615 0.2308 0.0769  plane waves:     662
 k-point 58 :  -0.4615 0.2308 0.0769  plane waves:     662
 k-point 59 :  -0.3846 0.2308 0.0769  plane waves:     668
 k-point 60 :  -0.3077 0.2308 0.0769  plane waves:     663
 k-point 61 :  -0.2308 0.2308 0.0769  plane waves:     659
 k-point 62 :  -0.1538 0.2308 0.0769  plane waves:     650
 k-point 63 :   0.3846 0.3077 0.0769  plane waves:     659
 k-point 64 :   0.4615 0.3077 0.0769  plane waves:     662
 k-point 65 :  -0.4615 0.3077 0.0769  plane waves:     665
 k-point 66 :  -0.3846 0.3077 0.0769  plane waves:     668
 k-point 67 :  -0.3077 0.3077 0.0769  plane waves:     669
 k-point 68 :  -0.2308 0.3077 0.0769  plane waves:     667
 k-point 69 :   0.4615 0.3846 0.0769  plane waves:     664
 k-point 70 :  -0.4615 0.3846 0.0769  plane waves:     668
 k-point 71 :  -0.3846 0.3846 0.0769  plane waves:     670
 k-point 72 :  -0.3077 0.3846 0.0769  plane waves:     670
 k-point 73 :  -0.4615 0.4615 0.0769  plane waves:     666
 k-point 74 :  -0.3846 0.4615 0.0769  plane waves:     666
 k-point 75 :   0.4615 0.3077 0.1538  plane waves:     668
 k-point 76 :  -0.4615 0.3077 0.1538  plane waves:     664
 k-point 77 :  -0.3846 0.3077 0.1538  plane waves:     668
 k-point 78 :  -0.4615 0.3846 0.1538  plane waves:     664
 k-point 79 :  -0.3846 0.3846 0.1538  plane waves:     667
 k-point 80 :  -0.3077 0.3846 0.1538  plane waves:     676
 k-point 81 :  -0.2308 0.3846 0.1538  plane waves:     666
 k-point 82 :  -0.3846 0.4615 0.1538  plane waves:     668
 k-point 83 :  -0.3077 0.4615 0.1538  plane waves:     672
 k-point 84 :  -0.3077 0.4615 0.2308  plane waves:     670

 maximum and minimum number of plane-waves per node :       676      645

 maximum number of plane-waves:       676
 maximum index in each direction: 
   IXMAX=    6   IYMAX=    6   IZMAX=    6
   IXMIN=   -6   IYMIN=   -6   IZMIN=   -6


 serial   3D FFT for wavefunctions
 parallel 3D FFT for charge:
    minimum data exchange during FFTs selected (reduces bandwidth)


 total amount of memory used by VASP MPI-rank0    71203. kBytes
=======================================================================

   base      :      30000. kBytes
   nonlr-proj:        360. kBytes
   fftplans  :       3916. kBytes
   grid      :       9345. kBytes
   one-center:          6. kBytes
   wavefun   :      27576. kBytes
 
     INWAV:  cpu time    0.0000: real time    0.0000
 Broyden mixing: mesh for mixing (old mesh)
   NGX = 13   NGY = 13   NGZ = 13
  (NGX  = 48   NGY  = 48   NGZ  = 48)
  gives a total of   2197 points

 initial charge density was supplied:
 charge density of overlapping atoms calculated
 number of electron       3.0000000 magnetization       0.0000000
 keeping initial charge density in first step


--------------------------------------------------------------------------------------------------------


 Maximum index for non-local projection operator         4093
 Maximum index for augmentation-charges        31533 (set IRDMAX)


--------------------------------------------------------------------------------------------------------


 First call to EWALD:  gamma=   0.697
 Maximum number of real-space cells 3x 3x 3
 Maximum number of reciprocal cells 3x 3x 3

    FEWALD:  cpu time    0.0010: real time    0.0010


--------------------------------------- Iteration      1(   1)  ---------------------------------------


    POTLOK:  cpu time    0.0587: real time    0.0603
    SETDIJ:  cpu time    0.1135: real time    0.1165
    TRIAL :  cpu time    0.8752: real time    0.8835
    CORREC:  cpu time    0.0017: real time    0.0017
    --------------------------------------------
      LOOP:  cpu time    1.0523: real time    1.0657

 eigenvalue-minimisations  :  1705
 total energy-change (2. order) :-0.1262250E+01  (-0.1575479E+03)
 number of electron       3.0000000 magnetization       0.0000000
 augmentation part        3.0000000 magnetization       0.0000000

 Free energy of the ion-electron system (eV)
  ---------------------------------------------------
  alpha Z        PSCENC =        -0.20391371
  Ewald energy   TEWEN  =       -73.55776684
  -Hartree energ DENC   =        -0.10076178
  -exchange      EXHF   =         0.00000000
  -V(xc)+E(xc)   XCENC  =       -25.31909897
  PAW double counting   =        65.21805622      -33.98562469
  entropy T*S    EENTRO =        -0.00071466
  eigenvalues    EBANDS =        13.52033672
  atomic energy  EATOM  =        53.16723774
  ---------------------------------------------------
  free energy    TOTEN  =        -1.26224997 eV

  energy without entropy =       -1.26153531  energy(sigma->0) =       -1.26207130


--------------------------------------------------------------------------------------------------------




--------------------------------------- Iteration      1(   2)  ---------------------------------------


    TRIAL :  cpu time    0.9725: real time    0.9770
    CORREC:  cpu time    0.0021: real time    0.0021
    --------------------------------------------
      LOOP:  cpu time    0.9750: real time    0.9795

 eigenvalue-minimisations  :  2180
 total energy-change (2. order) :-0.2825021E+01  (-0.2590924E+01)
 number of electron       3.0000000 magnetization       0.0000000
 augmentation part        3.0000000 magnetization       0.0000000

 Free energy of the ion-electron system (eV)
  ---------------------------------------------------
  alpha Z        PSCENC =        -0.20391371
  Ewald energy   TEWEN  =       -73.55776684
  -Hartree energ DENC   =        -0.10076178
  -exchange      EXHF   =         0.00000000
  -V(xc)+E(xc)   XCENC  =       -25.31909897
  PAW double counting   =        65.21805622      -33.98562469
  entropy T*S    EENTRO =         0.00012372
  eigenvalues    EBANDS =        10.69447752
  atomic energy  EATOM  =        53.16723774
  ---------------------------------------------------
  free energy    TOTEN  =        -4.08727079 eV

  energy without entropy =       -4.08739452  energy(sigma->0) =       -4.08730172


--------------------------------------------------------------------------------------------------------




--------------------------------------- Iteration      1(   3)  ---------------------------------------


    TRIAL :  cpu time    0.9358: real time    0.9382
    CORREC:  cpu time    0.0020: real time    0.0020
    --------------------------------------------
      LOOP:  cpu time    0.9381: real time    0.9405

 eigenvalue-minimisations  :  2280
 total energy-change (2. order) :-0.2829942E-01  (-0.2828335E-01)
 number of electron       3.0000000 magnetization       0.0000000
 augmentation part        3.0000000 magnetization       0.0000000

 Free energy of the ion-electron system (eV)
  ---------------------------------------------------
  alpha Z        PSCENC =        -0.20391371
  Ewald energy   TEWEN  =       -73.55776684
  -Hartree energ DENC   =        -0.10076178
  -exchange      EXHF   =         0.00000000
  -V(xc)+E(xc)   XCENC  =       -25.31909897
  PAW double counting   =        65.21805622      -33.98562469
  entropy T*S    EENTRO =         0.00004108
  eigenvalues    EBANDS =        10.66626073
  atomic energy  EATOM  =        53.16723774
  ---------------------------------------------------
  free energy    TOTEN  =        -4.11557022 eV

  energy without entropy =       -4.11561130  energy(sigma->0) =       -4.11558049


--------------------------------------------------------------------------------------------------------




--------------------------------------- Iteration      1(   4)  ---------------------------------------


    TRIAL :  cpu time    0.9698: real time    0.9744
    CORREC:  cpu time    0.0020: real time    0.0020
    --------------------------------------------
      LOOP:  cpu time    0.9720: real time    0.9766

 eigenvalue-minimisations  :  2260
 total energy-change (2. order) :-0.9272338E-04  (-0.9272274E-04)
 number of electron       3.0000000 magnetization       0.0000000
 augmentation part        3.0000000 magnetization       0.0000000

 Free energy of the ion-electron system (eV)
  ---------------------------------------------------
  alpha Z        PSCENC =        -0.20391371
  Ewald energy   TEWEN  =       -73.55776684
  -Hartree energ DENC   =        -0.10076178
  -exchange      EXHF   =         0.00000000
  -V(xc)+E(xc)   XCENC  =       -25.31909897
  PAW double counting   =        65.21805622      -33.98562469
  entropy T*S    EENTRO =         0.00004054
  eigenvalues    EBANDS =        10.66616855
  atomic energy  EATOM  =        53.16723774
  ---------------------------------------------------
  free energy    TOTEN  =        -4.11566294 eV

  energy without entropy =       -4.11570348  energy(sigma->0) =       -4.11567307


--------------------------------------------------------------------------------------------------------




--------------------------------------- Iteration      1(   5)  ---------------------------------------


    TRIAL :  cpu time    1.0431: real time    1.0547
    CORREC:  cpu time    0.0025: real time    0.0025
    CHARGE:  cpu time    0.0685: real time    0.0704
    --------------------------------------------
      LOOP:  cpu time    1.1144: real time    1.1279

 eigenvalue-minimisations  :  2265
 total energy-change (2. order) :-0.5417574E-06  (-0.5411917E-06)
 number of electron       3.0000000 magnetization      -0.0000000
 augmentation part       -0.0361412 magnetization       0.0000002

 Free energy of the ion-electron system (eV)
  ---------------------------------------------------
  alpha Z        PSCENC =        -0.20391371
  Ewald energy   TEWEN  =       -73.55776684
  -Hartree energ DENC   =        -0.10076178
  -exchange      EXHF   =         0.00000000
  -V(xc)+E(xc)   XCENC  =       -25.31909897
  PAW double counting   =        65.21805622      -33.98562469
  entropy T*S    EENTRO =         0.00004054
  eigenvalues    EBANDS =        10.66616801
  atomic energy  EATOM  =        53.16723774
  ---------------------------------------------------
  free energy    TOTEN  =        -4.11566348 eV

  energy without entropy =       -4.11570402  energy(sigma->0) =       -4.11567362


--------------------------------------------------------------------------------------------------------




--------------------------------------- Iteration      1(   6)  ---------------------------------------


    POTLOK:  cpu time    0.0584: real time    0.0586
    SETDIJ:  cpu time    0.1084: real time    0.1086
    TRIAL :  cpu time    0.4452: real time    0.4492
    CORREC:  cpu time    0.3261: real time    0.3275
    CHARGE:  cpu time    0.0606: real time    0.0610
    --------------------------------------------
      LOOP:  cpu time    0.9991: real time    1.0053

 eigenvalue-minimisations  :     0
 total energy-change (2. order) : 0.3033657E-01  (-0.1611639E-02)
 number of electron       3.0000000 magnetization       0.0000000
 augmentation part       -0.0375706 magnetization       0.0000000

 Free energy of the ion-electron system (eV)
  ---------------------------------------------------
  alpha Z        PSCENC =        -0.20391371
  Ewald energy   TEWEN  =       -73.55776684
  -Hartree energ DENC   =        -0.10638174
  -exchange      EXHF   =         0.00000000
  -V(xc)+E(xc)   XCENC  =       -25.21725842
  PAW double counting   =       164.91785018     -133.70195358
  entropy T*S    EENTRO =         0.00008314
  eigenvalues    EBANDS =        10.61681891
  atomic energy  EATOM  =        53.16723774
  ---------------------------------------------------
  free energy    TOTEN  =        -4.08532692 eV

  energy without entropy =       -4.08541005  energy(sigma->0) =       -4.08534770


--------------------------------------------------------------------------------------------------------




--------------------------------------- Iteration      1(   7)  ---------------------------------------


    POTLOK:  cpu time    0.0569: real time    0.0571
    SETDIJ:  cpu time    0.1096: real time    0.1098
    TRIAL :  cpu time    0.4547: real time    0.4562
    CORREC:  cpu time    0.3314: real time    0.3323
    CHARGE:  cpu time    0.0703: real time    0.0712
    --------------------------------------------
      LOOP:  cpu time    1.0232: real time    1.0269

 eigenvalue-minimisations  :     0
 total energy-change (2. order) :-0.1603142E-02  (-0.1522663E-03)
 number of electron       3.0000000 magnetization      -0.0000000
 augmentation part       -0.0378380 magnetization       0.0000001

 Free energy of the ion-electron system (eV)
  ---------------------------------------------------
  alpha Z        PSCENC =        -0.20391371
  Ewald energy   TEWEN  =       -73.55776684
  -Hartree energ DENC   =        -0.10551864
  -exchange      EXHF   =         0.00000000
  -V(xc)+E(xc)   XCENC  =       -25.22241671
  PAW double counting   =       151.40301141     -120.19109686
  entropy T*S    EENTRO =         0.00013322
  eigenvalues    EBANDS =        10.62345040
  atomic energy  EATOM  =        53.16723774
  ---------------------------------------------------
  free energy    TOTEN  =        -4.08693006 eV

  energy without entropy =       -4.08706328  energy(sigma->0) =       -4.08696337


--------------------------------------------------------------------------------------------------------




--------------------------------------- Iteration      1(   8)  ---------------------------------------


    POTLOK:  cpu time    0.0707: real time    0.0714
    SETDIJ:  cpu time    0.1379: real time    0.1430
    TRIAL :  cpu time    0.4961: real time    0.5006
    CORREC:  cpu time    0.3278: real time    0.3285
    CHARGE:  cpu time    0.0588: real time    0.0588
    --------------------------------------------
      LOOP:  cpu time    1.0918: real time    1.1029

 eigenvalue-minimisations  :     0
 total energy-change (2. order) :-0.1522317E-03  (-0.3195576E-04)
 number of electron       3.0000000 magnetization      -0.0000000
 augmentation part       -0.0380222 magnetization      -0.0000000

 Free energy of the ion-electron system (eV)
  ---------------------------------------------------
  alpha Z        PSCENC =        -0.20391371
  Ewald energy   TEWEN  =       -73.55776684
  -Hartree energ DENC   =        -0.10516885
  -exchange      EXHF   =         0.00000000
  -V(xc)+E(xc)   XCENC  =       -25.22297538
  PAW double counting   =       148.63747287     -117.42566099
  entropy T*S    EENTRO =         0.00016036
  eigenvalues    EBANDS =        10.62355965
  atomic energy  EATOM  =        53.16723774
  ---------------------------------------------------
  free energy    TOTEN  =        -4.08708229 eV

  energy without entropy =       -4.08724265  energy(sigma->0) =       -4.08712238


--------------------------------------------------------------------------------------------------------




--------------------------------------- Iteration      1(   9)  ---------------------------------------


    POTLOK:  cpu time    0.0554: real time    0.0556
    SETDIJ:  cpu time    0.1089: real time    0.1092
    TRIAL :  cpu time    0.4444: real time    0.4456
    CORREC:  cpu time    0.3507: real time    0.3528
    CHARGE:  cpu time    0.0667: real time    0.0676
    --------------------------------------------
      LOOP:  cpu time    1.0264: real time    1.0311

 eigenvalue-minimisations  :     0
 total energy-change (2. order) :-0.3235476E-04  (-0.1815540E-05)
 number of electron       3.0000000 magnetization      -0.0000000
 augmentation part       -0.0380618 magnetization       0.0000000

 Free energy of the ion-electron system (eV)
  ---------------------------------------------------
  alpha Z        PSCENC =        -0.20391371
  Ewald energy   TEWEN  =       -73.55776684
  -Hartree energ DENC   =        -0.10540381
  -exchange      EXHF   =         0.00000000
  -V(xc)+E(xc)   XCENC  =       -25.22294723
  PAW double counting   =       146.58138944     -115.36940290
  entropy T*S    EENTRO =         0.00016383
  eigenvalues    EBANDS =        10.62353230
  atomic energy  EATOM  =        53.16723774
  ---------------------------------------------------
  free energy    TOTEN  =        -4.08711465 eV

  energy without entropy =       -4.08727847  energy(sigma->0) =       -4.08715560


--------------------------------------------------------------------------------------------------------




--------------------------------------- Iteration      1(  10)  ---------------------------------------


    POTLOK:  cpu time    0.0686: real time    0.0734
    SETDIJ:  cpu time    0.1170: real time    0.1180
    TRIAL :  cpu time    0.4531: real time    0.4546
    CORREC:  cpu time    0.3310: real time    0.3321
    EDDIAG:  cpu time    0.1518: real time    0.1522
    CHARGE:  cpu time    0.0588: real time    0.0590
    --------------------------------------------
      LOOP:  cpu time    1.1808: real time    1.1898

 eigenvalue-minimisations  :     0
 total energy-change (2. order) :-0.1750001E-05  (-0.1167166E-06)
 number of electron       3.0000000 magnetization      -0.0000000
 augmentation part       -0.0380578 magnetization      -0.0000000

 Free energy of the ion-electron system (eV)
  ---------------------------------------------------
  alpha Z        PSCENC =        -0.20391371
  Ewald energy   TEWEN  =       -73.55776684
  -Hartree energ DENC   =        -0.10539695
  -exchange      EXHF   =         0.00000000
  -V(xc)+E(xc)   XCENC  =       -25.22298129
  PAW double counting   =       146.30370326     -115.09174289
  entropy T*S    EENTRO =         0.00016442
  eigenvalues    EBANDS =        10.62358046
  atomic energy  EATOM  =        53.16723774
  ---------------------------------------------------
  free energy    TOTEN  =        -4.08711640 eV

  energy without entropy =       -4.08728082  energy(sigma->0) =       -4.08715750


--------------------------------------------------------------------------------------------------------


  average scaling for gradient   1.2503


 average (electrostatic) potential at core
  the test charge radii are     1.0406
  (the norm of the test charge is              1.0000)
       1 -72.2995
 
 
 
 E-fermi :   7.8803     XC(G=0): -10.2630     alpha+bet :-14.9019


 spin component 1

 k-point     1 :       0.0000    0.0000    0.0000
  band No.  band energies     occupation 
      1      -3.1738      1.00000
      2      20.5726      0.00000
      3      20.5726      0.00000
      4      20.5726      0.00000
      5      22.0765      0.00000

 k-point     2 :       0.0769    0.0000    0.0000
  band No.  band energies     occupation 
      1      -3.0129      1.00000
      2      18.2227      0.00000
      3      20.0674      0.00000
      4      20.0674      0.00000
      5      22.7475      0.00000

 k-point     3 :       0.1538    0.0000    0.0000
  band No.  band energies     occupation 
      1      -2.5311      1.00000
      2      15.1175      0.00000
      3      19.4026      0.00000
      4      19.4026      0.00000
      5      22.6042      0.00000

 k-point     4 :       0.2308    0.0000    0.0000
  band No.  band energies     occupation 
      1      -1.7318      1.00000
      2      12.1228      0.00000
      3      18.9446      0.00000
      4      18.9446      0.00000
      5      22.3739      0.00000

 k-point     5 :       0.3077    0.0000    0.0000
  band No.  band energies     occupation 
      1      -0.6203      1.00000
      2       9.3368      0.00000
      3      18.7401      0.00000
      4      18.7401      0.00000
      5      21.7251      0.00000

 k-point     6 :       0.3846    0.0000    0.0000
  band No.  band energies     occupation 
      1       0.7961      1.00000
      2       6.7954      1.00000
      3      18.8003      0.00000
      4      18.8004      0.00000
      5      20.5965      0.00000

 k-point     7 :       0.4615    0.0000    0.0000
  band No.  band energies     occupation 
      1       2.5064      1.00000
      2       4.5208      1.00000
      3      19.1292      0.00000
      4      19.1301      0.00000
      5      19.7292      0.00000

 k-point     8 :       0.0769    0.0769    0.0000
  band No.  band energies     occupation 
      1      -2.9592      1.00000
      2      19.0206      0.00000
      3      19.0206      0.00000
      4      19.3126      0.00000
      5      21.5832      0.00000

 k-point     9 :       0.1538    0.0769    0.0000
  band No.  band energies     occupation 
      1      -2.5845      1.00000
      2      16.2202      0.00000
      3      18.1901      0.00000
      4      19.4095      0.00000
      5      21.9040      0.00000

 k-point    10 :       0.2308    0.0769    0.0000
  band No.  band energies     occupation 
      1      -1.8913      1.00000
      2      13.2092      0.00000
      3      17.6173      0.00000
      4      19.0852      0.00000
      5      21.3009      0.00000

 k-point    11 :       0.3077    0.0769    0.0000
  band No.  band energies     occupation 
      1      -0.8842      1.00000
      2      10.3625      0.00000
      3      17.3116      0.00000
      4      18.8422      0.00000
      5      19.8167      0.00000

 k-point    12 :       0.3846    0.0769    0.0000
  band No.  band energies     occupation 
      1       0.4302      1.00000
      2       7.7439      1.01587
      3      17.2760      0.00000
      4      18.5338      0.00000
      5      18.8681      0.00000

 k-point    13 :       0.4615    0.0769    0.0000
  band No.  band energies     occupation 
      1       2.0426      1.00000
      2       5.3819      1.00000
      3      17.5123      0.00000
      4      17.5662      0.00000
      5      19.1157      0.00000

 k-point    14 :      -0.4615    0.0769    0.0000
  band No.  band energies     occupation 
      1       3.2657      1.00000
      2       3.9708      1.00000
      3      16.8595      0.00000
      4      18.0215      0.00000
      5      19.6559      0.00000

 k-point    15 :      -0.3846    0.0769    0.0000
  band No.  band energies     occupation 
      1       1.4729      1.00000
      2       6.1385      1.00000
      3      16.4322      0.00000
      4      18.8022      0.00000
      5      20.4711      0.00000

 k-point    16 :      -0.3077    0.0769    0.0000
  band No.  band energies     occupation 
      1      -0.0416      1.00000
      2       8.5871      0.00002
      3      16.2871      0.00000
      4      19.8378      0.00000
      5      20.4709      0.00000

 k-point    17 :      -0.2308    0.0769    0.0000
  band No.  band energies     occupation 
      1      -1.2544      1.00000
      2      11.2807      0.00000
      3      16.4264      0.00000
      4      20.5154      0.00000
      5      21.1978      0.00000

 k-point    18 :      -0.1538    0.0769    0.0000
  band No.  band energies     occupation 
      1      -2.1575      1.00000
      2      14.1697      0.00000
      3      16.8617      0.00000
      4      20.8435      0.00000
      5      22.5584      0.00000

 k-point    19 :      -0.0769    0.0769    0.0000
  band No.  band energies     occupation 
      1      -2.7450      1.00000
      2      16.9278      0.00000
      3      17.8195      0.00000
      4      20.9897      0.00000
      5      22.3268      0.00000

 k-point    20 :       0.1538    0.1538    0.0000
  band No.  band energies     occupation 
      1      -2.3175      1.00000
      2      17.2424      0.00000
      3      17.2424      0.00000
      4      17.4245      0.00000
      5      20.4772      0.00000

 k-point    21 :       0.2308    0.1538    0.0000
  band No.  band energies     occupation 
      1      -1.7317      1.00000
      2      14.4966      0.00000
      3      16.5661      0.00000
      4      17.8374      0.00000
      5      19.1974      0.00000

 k-point    22 :       0.3077    0.1538    0.0000
  band No.  band energies     occupation 
      1      -0.8314      1.00000
      2      11.6456      0.00000
      3      16.1626      0.00000
      4      17.4605      0.00000
      5      17.8454      0.00000

 k-point    23 :       0.3846    0.1538    0.0000
  band No.  band energies     occupation 
      1       0.3775      1.00000
      2       8.9729      0.00000
      3      16.0322      0.00000
      4      16.1397      0.00000
      5      17.7475      0.00000

 k-point    24 :       0.4615    0.1538    0.0000
  band No.  band energies     occupation 
      1       1.8865      1.00000
      2       6.5372      1.00000
      3      15.0433      0.00000
      4      16.1753      0.00000
      5      17.9393      0.00000

 k-point    25 :      -0.4615    0.1538    0.0000
  band No.  band energies     occupation 
      1       3.6690      1.00000
      2       4.3810      1.00000
      3      14.2282      0.00000
      4      16.5924      0.00000
      5      18.4122      0.00000

 k-point    26 :      -0.3846    0.1538    0.0000
  band No.  band energies     occupation 
      1       2.4551      1.00000
      2       5.7773      1.00000
      3      13.7045      0.00000
      4      17.2837      0.00000
      5      19.1687      0.00000

 k-point    27 :      -0.3077    0.1538    0.0000
  band No.  band energies     occupation 
      1       0.8480      1.00000
      2       8.1142     -0.04048
      3      13.4834      0.00000
      4      18.2473      0.00000
      5      20.1991      0.00000

 k-point    28 :      -0.2308    0.1538    0.0000
  band No.  band energies     occupation 
      1      -0.4623      1.00000
      2      10.6584      0.00000
      3      13.6022      0.00000
      4      19.4750      0.00000
      5      21.4794      0.00000

 k-point    29 :      -0.1538    0.1538    0.0000
  band No.  band energies     occupation 
      1      -1.4663      1.00000
      2      13.0297      0.00000
      3      14.4067      0.00000
      4      20.9343      0.00000
      5      22.2365      0.00000

 k-point    30 :       0.2308    0.2308    0.0000
  band No.  band energies     occupation 
      1      -1.2544      1.00000
      2      15.7915      0.00000
      3      15.7915      0.00000
      4      15.7922      0.00000
      5      17.1647      0.00000

 k-point    31 :       0.3077    0.2308    0.0000
  band No.  band energies     occupation 
      1      -0.4625      1.00000
      2      13.1299      0.00000
      3      15.2925      0.00000
      4      15.3849      0.00000
      5      16.5188      0.00000

 k-point    32 :       0.3846    0.2308    0.0000
  band No.  band energies     occupation 
      1       0.6381      1.00000
      2      10.4578      0.00000
      3      13.8958      0.00000
      4      15.0682      0.00000
      5      16.6356      0.00000

 k-point    33 :       0.4615    0.2308    0.0000
  band No.  band energies     occupation 
      1       2.0394      1.00000
      2       7.9715      0.08741
      3      12.6838      0.00000
      4      15.1180      0.00000
      5      16.7961      0.00000

 k-point    34 :      -0.4615    0.2308    0.0000
  band No.  band energies     occupation 
      1       3.7258      1.00000
      2       5.7317      1.00000
      3      11.7631      0.00000
      4      15.4423      0.00000
      5      17.1987      0.00000

 k-point    35 :      -0.3846    0.2308    0.0000
  band No.  band energies     occupation 
      1       3.7334      1.00000
      2       5.7082      1.00000
      3      11.1500      0.00000
      4      16.0413      0.00000
      5      17.8811      0.00000

 k-point    36 :      -0.3077    0.2308    0.0000
  band No.  band energies     occupation 
      1       2.0422      1.00000
      2       7.8818      0.49167
      3      10.8923      0.00000
      4      16.9153      0.00000
      5      18.8425      0.00000

 k-point    37 :      -0.2308    0.2308    0.0000
  band No.  band energies     occupation 
      1       0.6391      1.00000
      2       9.8714      0.00000
      3      11.3815      0.00000
      4      18.0625      0.00000
      5      20.0615      0.00000

 k-point    38 :       0.3077    0.3077    0.0000
  band No.  band energies     occupation 
      1       0.2196      1.00000
      2      13.4949      0.00000
      3      14.5400      0.00000
      4      14.6995      0.00000
      5      14.6995      0.00000

 k-point    39 :       0.3846    0.3077    0.0000
  band No.  band energies     occupation 
      1       1.2096      1.00000
      2      11.8238      0.00000
      3      12.2114      0.00000
      4      14.3819      0.00000
      5      15.5170      0.00000

 k-point    40 :       0.4615    0.3077    0.0000
  band No.  band energies     occupation 
      1       2.4984      1.00000
      2       9.6324      0.00000
      3      10.6031      0.00000
      4      14.3388      0.00000
      5      15.8324      0.00000

 k-point    41 :      -0.4615    0.3077    0.0000
  band No.  band energies     occupation 
      1       4.0677      1.00000
      2       7.3597      0.99851
      3       9.5669      0.00000
      4      14.5701      0.00000
      5      16.1990      0.00000

 k-point    42 :      -0.3846    0.3077    0.0000
  band No.  band energies     occupation 
      1       5.2823      1.00000
      2       5.9054      1.00000
      3       8.8964      0.00000
      4      15.0762      0.00000
      5      16.8094      0.00000

 k-point    43 :      -0.3077    0.3077    0.0000
  band No.  band energies     occupation 
      1       3.5315      1.00000
      2       7.5033      0.99576
      3       8.9889      0.00000
      4      15.8578      0.00000
      5      17.6947      0.00000

 k-point    44 :       0.3846    0.3846    0.0000
  band No.  band energies     occupation 
      1       2.0859      1.00000
      2      10.1516      0.00000
      3      13.6973      0.00000
      4      13.9715      0.00000
      5      13.9715      0.00000

 k-point    45 :       0.4615    0.3846    0.0000
  band No.  band energies     occupation 
      1       3.2535      1.00000
      2       8.7200      0.00000
      3      11.5719      0.00000
      4      13.8359      0.00000
      5      14.9131      0.00000

 k-point    46 :      -0.4615    0.3846    0.0000
  band No.  band energies     occupation 
      1       4.6679      1.00000
      2       7.6207      1.02849
      3       9.3095      0.00000
      4      13.9745      0.00000
      5      15.4242      0.00000

 k-point    47 :      -0.3846    0.3846    0.0000
  band No.  band energies     occupation 
      1       5.9286      1.00000
      2       6.9650      1.00000
      3       7.5312      0.99854
      4      14.3876      0.00000
      5      15.9966      0.00000

 k-point    48 :       0.4615    0.4615    0.0000
  band No.  band energies     occupation 
      1       4.2658      1.00000
      2       7.2305      0.99991
      3      13.2743      0.00000
      4      13.6079      0.00000
      5      13.6079      0.00000

 k-point    49 :      -0.4615    0.4615    0.0000
  band No.  band energies     occupation 
      1       5.1430      1.00000
      2       6.4621      1.00000
      3      11.3723      0.00000
      4      13.6540      0.00000
      5      14.7110      0.00000

 k-point    50 :       0.2308    0.1538    0.0769
  band No.  band energies     occupation 
      1      -2.1042      1.00000
      2      14.9946      0.00000
      3      16.1137      0.00000
      4      19.9789      0.00000
      5      21.1274      0.00000

 k-point    51 :       0.3077    0.1538    0.0769
  band No.  band energies     occupation 
      1      -1.3073      1.00000
      2      12.4216      0.00000
      3      15.2427      0.00000
      4      19.5022      0.00000
      5      20.1291      0.00000

 k-point    52 :       0.3846    0.1538    0.0769
  band No.  band energies     occupation 
      1      -0.1993      1.00000
      2       9.7028      0.00000
      3      14.9638      0.00000
      4      18.0601      0.00000
      5      20.0486      0.00000

 k-point    53 :       0.4615    0.1538    0.0769
  band No.  band energies     occupation 
      1       1.2126      1.00000
      2       7.1862      0.99997
      3      14.9978      0.00000
      4      16.8845      0.00000
      5      20.1511      0.00000

 k-point    54 :      -0.4615    0.1538    0.0769
  band No.  band energies     occupation 
      1       2.9162      1.00000
      2       4.9251      1.00000
      3      15.3047      0.00000
      4      16.0065      0.00000
      5      20.4896      0.00000

 k-point    55 :       0.3077    0.2308    0.0769
  band No.  band energies     occupation 
      1      -1.0427      1.00000
      2      13.4272      0.00000
      3      14.6432      0.00000
      4      17.3762      0.00000
      5      18.5294      0.00000

 k-point    56 :       0.3846    0.2308    0.0769
  band No.  band energies     occupation 
      1      -0.0419      1.00000
      2      11.0437      0.00000
      3      13.9124      0.00000
      4      15.8154      0.00000
      5      18.9141      0.00000

 k-point    57 :       0.4615    0.2308    0.0769
  band No.  band energies     occupation 
      1       1.2637      1.00000
      2       8.5072      0.00016
      3      13.7732      0.00000
      4      14.5577      0.00000
      5      19.0478      0.00000

 k-point    58 :      -0.4615    0.2308    0.0769
  band No.  band energies     occupation 
      1       2.8637      1.00000
      2       6.1791      1.00000
      3      13.4004      0.00000
      4      14.1426      0.00000
      5      19.3542      0.00000

 k-point    59 :      -0.3846    0.2308    0.0769
  band No.  band energies     occupation 
      1       4.0741      1.00000
      2       4.7822      1.00000
      3      12.7240      0.00000
      4      14.6214      0.00000
      5      19.9111      0.00000

 k-point    60 :      -0.3077    0.2308    0.0769
  band No.  band energies     occupation 
      1       2.2999      1.00000
      2       6.9121      1.00000
      3      12.3176      0.00000
      4      15.4257      0.00000
      5      20.7245      0.00000

 k-point    61 :      -0.2308    0.2308    0.0769
  band No.  band energies     occupation 
      1       0.7956      1.00000
      2       9.2725      0.00000
      3      12.2544      0.00000
      4      16.5178      0.00000
      5      21.7220      0.00000

 k-point    62 :      -0.1538    0.2308    0.0769
  band No.  band energies     occupation 
      1      -0.4097      1.00000
      2      11.4519      0.00000
      3      12.9078      0.00000
      4      17.8839      0.00000
      5      21.5797      0.00000

 k-point    63 :       0.3846    0.3077    0.0769
  band No.  band energies     occupation 
      1       0.4290      1.00000
      2      12.2446      0.00000
      3      13.3565      0.00000
      4      13.8895      0.00000
      5      17.3834      0.00000

 k-point    64 :       0.4615    0.3077    0.0769
  band No.  band energies     occupation 
      1       1.6251      1.00000
      2      10.0478      0.00000
      3      12.2223      0.00000
      4      13.0726      0.00000
      5      17.9752      0.00000

 k-point    65 :      -0.4615    0.3077    0.0769
  band No.  band energies     occupation 
      1       3.1147      1.00000
      2       7.7030      1.04965
      3      11.1537      0.00000
      4      13.1098      0.00000
      5      18.3108      0.00000

 k-point    66 :      -0.3846    0.3077    0.0769
  band No.  band energies     occupation 
      1       4.8597      1.00000
      2       5.5906      1.00000
      3      10.3492      0.00000
      4      13.5180      0.00000
      5      18.8153      0.00000

 k-point    67 :      -0.3077    0.3077    0.0769
  band No.  band energies     occupation 
      1       3.6828      1.00000
      2       6.8848      1.00000
      3       9.8930      0.00000
      4      14.2318      0.00000
      5      19.5685      0.00000

 k-point    68 :      -0.2308    0.3077    0.0769
  band No.  band energies     occupation 
      1       2.0933      1.00000
      2       8.6868      0.00000
      3      10.1903      0.00000
      4      15.2356      0.00000
      5      20.5736      0.00000

 k-point    69 :       0.4615    0.3846    0.0769
  band No.  band energies     occupation 
      1       2.2923      1.00000
      2      10.3351      0.00000
      3      11.4538      0.00000
      4      12.8169      0.00000
      5      16.6092      0.00000

 k-point    70 :      -0.4615    0.3846    0.0769
  band No.  band energies     occupation 
      1       3.6616      1.00000
      2       9.0462      0.00000
      3       9.5469      0.00000
      4      12.4351      0.00000
      5      17.3986      0.00000

 k-point    71 :      -0.3846    0.3846    0.0769
  band No.  band energies     occupation 
      1       5.2672      1.00000
      2       7.2648      0.99979
[...]
      4      14.3388      0.00000
      5      15.8324      0.00000

 k-point    41 :      -0.4615    0.3077    0.0000
  band No.  band energies     occupation 
      1       4.0677      1.00000
      2       7.3597      0.99851
      3       9.5669      0.00000
      4      14.5701      0.00000
      5      16.1990      0.00000

 k-point    42 :      -0.3846    0.3077    0.0000
  band No.  band energies     occupation 
      1       5.2823      1.00000
      2       5.9054      1.00000
      3       8.8964      0.00000
      4      15.0762      0.00000
      5      16.8094      0.00000

 k-point    43 :      -0.3077    0.3077    0.0000
  band No.  band energies     occupation 
      1       3.5315      1.00000
      2       7.5033      0.99576
      3       8.9889      0.00000
      4      15.8578      0.00000
      5      17.6947      0.00000

 k-point    44 :       0.3846    0.3846    0.0000
  band No.  band energies     occupation 
      1       2.0859      1.00000
      2      10.1516      0.00000
      3      13.6973      0.00000
      4      13.9715      0.00000
      5      13.9715      0.00000

 k-point    45 :       0.4615    0.3846    0.0000
  band No.  band energies     occupation 
      1       3.2535      1.00000
      2       8.7200      0.00000
      3      11.5719      0.00000
      4      13.8359      0.00000
      5      14.9131      0.00000

 k-point    46 :      -0.4615    0.3846    0.0000
  band No.  band energies     occupation 
      1       4.6679      1.00000
      2       7.6207      1.02849
      3       9.3095      0.00000
      4      13.9745      0.00000
      5      15.4242      0.00000

 k-point    47 :      -0.3846    0.3846    0.0000
  band No.  band energies     occupation 
      1       5.9286      1.00000
      2       6.9650      1.00000
      3       7.5312      0.99854
      4      14.3876      0.00000
      5      15.9966      0.00000

 k-point    48 :       0.4615    0.4615    0.0000
  band No.  band energies     occupation 
      1       4.2658      1.00000
      2       7.2305      0.99991
      3      13.2743      0.00000
      4      13.6079      0.00000
      5      13.6079      0.00000

 k-point    49 :      -0.4615    0.4615    0.0000
  band No.  band energies     occupation 
      1       5.1430      1.00000
      2       6.4621      1.00000
      3      11.3723      0.00000
      4      13.6540      0.00000
      5      14.7110      0.00000

 k-point    50 :       0.2308    0.1538    0.0769
  band No.  band energies     occupation 
      1      -2.1042      1.00000
      2      14.9946      0.00000
      3      16.1137      0.00000
      4      19.9789      0.00000
      5      21.1280      0.00000

 k-point    51 :       0.3077    0.1538    0.0769
  band No.  band energies     occupation 
      1      -1.3073      1.00000
      2      12.4216      0.00000
      3      15.2427      0.00000
      4      19.5022      0.00000
      5      20.1291      0.00000

 k-point    52 :       0.3846    0.1538    0.0769
  band No.  band energies     occupation 
      1      -0.1993      1.00000
      2       9.7028      0.00000
      3      14.9638      0.00000
      4      18.0601      0.00000
      5      20.0486      0.00000

 k-point    53 :       0.4615    0.1538    0.0769
  band No.  band energies     occupation 
      1       1.2126      1.00000
      2       7.1862      0.99997
      3      14.9978      0.00000
      4      16.8845      0.00000
      5      20.1512      0.00000

 k-point    54 :      -0.4615    0.1538    0.0769
  band No.  band energies     occupation 
      1       2.9162      1.00000
      2       4.9251      1.00000
      3      15.3047      0.00000
      4      16.0065      0.00000
      5      20.4900      0.00000

 k-point    55 :       0.3077    0.2308    0.0769
  band No.  band energies     occupation 
      1      -1.0427      1.00000
      2      13.4272      0.00000
      3      14.6432      0.00000
      4      17.3762      0.00000
      5      18.5294      0.00000

 k-point    56 :       0.3846    0.2308    0.0769
  band No.  band energies     occupation 
      1      -0.0419      1.00000
      2      11.0437      0.00000
      3      13.9124      0.00000
      4      15.8154      0.00000
      5      18.9141      0.00000

 k-point    57 :       0.4615    0.2308    0.0769
  band No.  band energies     occupation 
      1       1.2637      1.00000
      2       8.5072      0.00016
      3      13.7732      0.00000
      4      14.5577      0.00000
      5      19.0478      0.00000

 k-point    58 :      -0.4615    0.2308    0.0769
  band No.  band energies     occupation 
      1       2.8637      1.00000
      2       6.1791      1.00000
      3      13.4004      0.00000
      4      14.1426      0.00000
      5      19.3542      0.00000

 k-point    59 :      -0.3846    0.2308    0.0769
  band No.  band energies     occupation 
      1       4.0741      1.00000
      2       4.7822      1.00000
      3      12.7240      0.00000
      4      14.6214      0.00000
      5      19.9111      0.00000

 k-point    60 :      -0.3077    0.2308    0.0769
  band No.  band energies     occupation 
      1       2.2999      1.00000
      2       6.9121      1.00000
      3      12.3176      0.00000
      4      15.4257      0.00000
      5      20.7244      0.00000

 k-point    61 :      -0.2308    0.2308    0.0769
  band No.  band energies     occupation 
      1       0.7956      1.00000
      2       9.2725      0.00000
      3      12.2544      0.00000
      4      16.5178      0.00000
      5      21.7438      0.00000

 k-point    62 :      -0.1538    0.2308    0.0769
  band No.  band energies     occupation 
      1      -0.4097      1.00000
      2      11.4519      0.00000
      3      12.9078      0.00000
      4      17.8839      0.00000
      5      21.5797      0.00000

 k-point    63 :       0.3846    0.3077    0.0769
  band No.  band energies     occupation 
      1       0.4290      1.00000
      2      12.2446      0.00000
      3      13.3565      0.00000
      4      13.8895      0.00000
      5      17.3834      0.00000

 k-point    64 :       0.4615    0.3077    0.0769
  band No.  band energies     occupation 
      1       1.6251      1.00000
      2      10.0478      0.00000
      3      12.2223      0.00000
      4      13.0726      0.00000
      5      17.9752      0.00000

 k-point    65 :      -0.4615    0.3077    0.0769
  band No.  band energies     occupation 
      1       3.1147      1.00000
      2       7.7030      1.04965
      3      11.1537      0.00000
      4      13.1098      0.00000
      5      18.3108      0.00000

 k-point    66 :      -0.3846    0.3077    0.0769
  band No.  band energies     occupation 
      1       4.8597      1.00000
      2       5.5906      1.00000
      3      10.3492      0.00000
      4      13.5180      0.00000
      5      18.8153      0.00000

 k-point    67 :      -0.3077    0.3077    0.0769
  band No.  band energies     occupation 
      1       3.6828      1.00000
      2       6.8848      1.00000
      3       9.8930      0.00000
      4      14.2318      0.00000
      5      19.5685      0.00000

 k-point    68 :      -0.2308    0.3077    0.0769
  band No.  band energies     occupation 
      1       2.0933      1.00000
      2       8.6868      0.00000
      3      10.1903      0.00000
      4      15.2356      0.00000
      5      20.5736      0.00000

 k-point    69 :       0.4615    0.3846    0.0769
  band No.  band energies     occupation 
      1       2.2923      1.00000
      2      10.3351      0.00000
      3      11.4538      0.00000
      4      12.8169      0.00000
      5      16.6092      0.00000

 k-point    70 :      -0.4615    0.3846    0.0769
  band No.  band energies     occupation 
      1       3.6616      1.00000
      2       9.0462      0.00000
      3       9.5469      0.00000
      4      12.4351      0.00000
      5      17.3986      0.00000

 k-point    71 :      -0.3846    0.3846    0.0769
  band No.  band energies     occupation 
      1       5.2672      1.00000
      2       7.2648      0.99979
      3       8.3164      0.00434
      4      12.7103      0.00000
      5      17.9316      0.00000

 k-point    72 :      -0.3077    0.3846    0.0769
  band No.  band energies     occupation 
      1       5.3444      1.00000
      2       6.7154      1.00000
      3       8.1746     -0.01301
      4      13.3218      0.00000
      5      18.6302      0.00000

 k-point    73 :      -0.4615    0.4615    0.0769
  band No.  band energies     occupation 
      1       4.4670      1.00000
      2       7.4313      0.99609
      3      11.0578      0.00000
      4      12.4245      0.00000
      5      16.2204      0.00000

 k-point    74 :      -0.3846    0.4615    0.0769
  band No.  band energies     occupation 
      1       5.5356      1.00000
      2       6.8682      1.00000
      3       9.2874      0.00000
      4      12.2367      0.00000
      5      17.2048      0.00000

 k-point    75 :       0.4615    0.3077    0.1538
  band No.  band energies     occupation 
      1       1.0555      1.00000
      2      10.2671      0.00000
      3      11.7278      0.00000
      4      14.3365      0.00000
      5      20.5144      0.00000

 k-point    76 :      -0.4615    0.3077    0.1538
  band No.  band energies     occupation 
      1       2.4524      1.00000
      2       8.2767      0.00489
      3      11.2464      0.00000
      4      13.1395      0.00000
      5      21.1947      0.00000

 k-point    77 :      -0.3846    0.3077    0.1538
  band No.  band energies     occupation 
      1       4.1330      1.00000
      2       6.1100      1.00000
      3      11.4438      0.00000
      4      12.2848      0.00000
      5      21.6125      0.00000

 k-point    78 :      -0.4615    0.3846    0.1538
  band No.  band energies     occupation 
      1       2.9097      1.00000
      2       9.4770      0.00000
      3      10.6236      0.00000
      4      11.3439      0.00000
      5      19.7608      0.00000

 k-point    79 :      -0.3846    0.3846    0.1538
  band No.  band energies     occupation 
      1       4.4735      1.00000
      2       7.6721      1.04958
      3       9.8510      0.00000
      4      10.8357      0.00000
      5      20.6583      0.00000

 k-point    80 :      -0.3077    0.3846    0.1538
  band No.  band energies     occupation 
      1       5.6641      1.00000
      2       6.3020      1.00000
      3       9.2597      0.00000
      4      11.2234      0.00000
      5      21.3146      0.00000

 k-point    81 :      -0.2308    0.3846    0.1538
  band No.  band energies     occupation 
      1       3.9321      1.00000
      2       7.8977      0.40846
      3       9.3618      0.00000
      4      12.0218      0.00000
      5      22.1204      0.00000

 k-point    82 :      -0.3846    0.4615    0.1538
  band No.  band energies     occupation 
      1       5.0693      1.00000
      2       8.0173     -0.01687
      3       9.0820      0.00000
      4      10.6578      0.00000
      5      19.3781      0.00000

 k-point    83 :      -0.3077    0.4615    0.1538
  band No.  band energies     occupation 
      1       6.3219      1.00000
      2       7.3397      0.99896
      3       7.8434      0.68939
      4      10.5617      0.00000
      5      20.4742      0.00000

 k-point    84 :      -0.3077    0.4615    0.2308
  band No.  band energies     occupation 
      1       6.0656      1.00000
      2       7.5034      0.99576
      3       8.6376      0.00000
      4       9.4807      0.00000
      5      22.9029      0.00000


--------------------------------------------------------------------------------------------------------


 soft charge-density along one line, spin component           1
         0         1         2         3         4         5         6         7         8         9
 total charge-density along one line
 
 soft charge-density along one line, spin component           2
         0         1         2         3         4         5         6         7         8         9
 total charge-density along one line
 
 pseudopotential strength for first ion, spin component:           1
  8.473  14.437   0.000  -0.000   0.000   0.000  -0.000   0.000
 14.437  24.601   0.000  -0.000   0.000   0.000  -0.000   0.000
  0.000   0.000   2.000   0.000   0.000   5.760   0.000   0.000
 -0.000  -0.000   0.000   2.000   0.000   0.000   5.760   0.000
  0.000   0.000   0.000   0.000   2.000   0.000   0.000   5.760
  0.000   0.000   5.760   0.000   0.000  16.506   0.000   0.000
 -0.000  -0.000   0.000   5.760   0.000   0.000  16.506   0.000
  0.000   0.000   0.000   0.000   5.760   0.000   0.000  16.506
 pseudopotential strength for first ion, spin component:           2
  8.473  14.437   0.000  -0.000   0.000   0.000  -0.000   0.000
 14.437  24.601   0.000  -0.000   0.000   0.000  -0.000   0.000
  0.000   0.000   2.000   0.000   0.000   5.760   0.000   0.000
 -0.000  -0.000   0.000   2.000   0.000   0.000   5.760   0.000
  0.000   0.000   0.000   0.000   2.000   0.000   0.000   5.760
  0.000   0.000   5.760   0.000   0.000  16.506   0.000   0.000
 -0.000  -0.000   0.000   5.760   0.000   0.000  16.506   0.000
  0.000   0.000   0.000   0.000   5.760   0.000   0.000  16.506
 total augmentation occupancy for first ion, spin component:           1
  3.582  -0.918   0.000   0.000   0.000   0.000   0.000   0.000
 -0.918   0.297   0.000   0.000   0.000   0.000   0.000   0.000
  0.000   0.000   1.116   0.000  -0.000  -0.073   0.000   0.000
  0.000   0.000  -0.000   1.116  -0.000  -0.000  -0.073  -0.000
  0.000   0.000  -0.000   0.000   1.116  -0.000   0.000  -0.073
  0.000   0.000  -0.073  -0.000   0.000   0.005   0.000   0.000
  0.000   0.000   0.000  -0.073   0.000   0.000   0.005   0.000
  0.000   0.000  -0.000  -0.000  -0.073  -0.000  -0.000   0.005
 total augmentation occupancy for first ion, spin component:           2
 -0.000   0.000   0.000   0.000   0.000   0.000   0.000   0.000
  0.000  -0.000   0.000   0.000   0.000   0.000   0.000   0.000
  0.000   0.000  -0.000   0.000   0.000   0.000   0.000   0.000
  0.000   0.000   0.000  -0.000   0.000   0.000   0.000   0.000
  0.000   0.000   0.000   0.000  -0.000   0.000   0.000   0.000
  0.000   0.000   0.000   0.000   0.000  -0.000   0.000   0.000
  0.000   0.000   0.000   0.000   0.000   0.000  -0.000   0.000
  0.000   0.000   0.000   0.000   0.000   0.000   0.000  -0.000


------------------------ aborting loop because EDIFF is reached ----------------------------------------


 


 total charge     
 
# of ion       s       p       d       tot
------------------------------------------
    1        0.428   0.341   0.000   0.769
 


 magnetization (x)
 
# of ion       s       p       d       tot
------------------------------------------
    1       -0.000  -0.000   0.000  -0.000
 
    FORLOC:  cpu time    0.0018: real time    0.0018
    FORNL :  cpu time    0.2986: real time    0.3000
    STRESS:  cpu time    0.9713: real time    0.9833
    FORCOR:  cpu time    0.0593: real time    0.0595
    OFIELD:  cpu time    0.0002: real time    0.0002

  FORCE on cell =-STRESS in cart. coord.  units (eV):
  Direction    XX          YY          ZZ          XY          YZ          ZX
  --------------------------------------------------------------------------------------
  Alpha Z    -0.20391    -0.20391    -0.20391
  Ewald     -24.51926   -24.51926   -24.51926    -0.00000     0.00000    -0.00000
  Hartree     0.03513     0.03513     0.03513     0.00000     0.00000     0.00000
  E(xc)      -8.80418    -8.80418    -8.80418    -0.00000    -0.00000    -0.00000
  Local       0.36299     0.36299     0.36299    -0.00000    -0.00000    -0.00000
  n-local    19.09105    18.69229    19.05830     0.50443    -0.58711     0.51896
  augment    -1.00349    -1.00349    -1.00349     0.00000     0.00000     0.00000
  Kinetic    12.68491    11.15175    21.30237    -9.70025     8.31862    -6.10413
  Fock        0.00000     0.00000     0.00000     0.00000     0.00000     0.00000
  -------------------------------------------------------------------------------------
  Total      -0.13917    -0.13917    -0.13917     0.00000     0.00000    -0.00000
  in kB     -13.53666   -13.53666   -13.53666     0.00000     0.00000    -0.00000
  external pressure =      -13.54 kB  Pullay stress =        0.00 kB


 VOLUME and BASIS-vectors are now :
 -----------------------------------------------------------------------------
  energy-cutoff  :      680.00
  volume of cell :       16.47
      direct lattice vectors                 reciprocal lattice vectors
     0.000000000  2.019465000  2.019465000    -0.247590327  0.247590327  0.247590327
     2.019465000  0.000000000  2.019465000     0.247590327 -0.247590327  0.247590327
     2.019465000  2.019465000  0.000000000     0.247590327  0.247590327 -0.247590327

  length of vectors
     2.855954792  2.855954792  2.855954792     0.428839026  0.428839026  0.428839026


 FORCES acting on ions:
    Electron-Ion                     Ewald-Force                    Non-Local-Force
 -----------------------------------------------------------------------------------------------
   0.966E-16 0.906E-16 0.413E-16   0.908E-16 -.331E-15 -.645E-16   0.000E+00 0.000E+00 0.000E+00
 -----------------------------------------------------------------------------------------------
   -.812E-15 0.696E-15 0.253E-15   0.908E-16 -.331E-15 -.645E-16   0.000E+00 0.000E+00 0.000E+00
 
 
 POSITION                                       TOTAL-FORCE (eV/Angst)
 -----------------------------------------------------------------------------------
      0.00000      0.00000      0.00000         0.000000      0.000000      0.000000
 -----------------------------------------------------------------------------------
    total drift:                               -0.000000      0.000000      0.000000


--------------------------------------------------------------------------------------------------------



  FREE ENERGIE OF THE ION-ELECTRON SYSTEM (eV)
  ---------------------------------------------------
  free  energy   TOTEN  =        -4.08711640 eV

  energy  without entropy=       -4.08728082  energy(sigma->0) =       -4.08715750
 


--------------------------------------------------------------------------------------------------------


    POTLOK:  cpu time    0.1680: real time    0.1686


--------------------------------------------------------------------------------------------------------


     LOOP+:  cpu time   12.2055: real time   12.3008
    4ORBIT:  cpu time    0.0000: real time    0.0004
 


 total charge     
 
# of ion       s       p       d       tot
------------------------------------------
    1        0.428   0.341   0.000   0.769
 


 magnetization (x)
 
# of ion       s       p       d       tot
------------------------------------------
    1       -0.000  -0.000   0.000  -0.000
 

 total amount of memory used by VASP MPI-rank0    71203. kBytes
=======================================================================

   base      :      30000. kBytes
   nonlr-proj:        360. kBytes
   fftplans  :       3916. kBytes
   grid      :       9345. kBytes
   one-center:          6. kBytes
   wavefun   :      27576. kBytes
 
  
  
 General timing and accounting informations for this job:
 ========================================================
  
                  Total CPU time used (sec):       14.083
                            User time (sec):       13.460
                          System time (sec):        0.622
                         Elapsed time (sec):       14.244
  
                   Maximum memory used (kb):    78200832.
                   Average memory used (kb):           0.
  
                          Minor page faults:        60061
                          Major page faults:         1854
                 Voluntary context switches:           21
