<?xml version="1.0" encoding="ISO-8859-1"?>
<modeling>
 <generator>
  <i name="program" type="string">vasp </i>
  <i name="version" type="string">5.4.4.18Apr17-6-g9f103f2a35  </i>
  <i name="subversion" type="string">(build Sep 10 2019 12:14:21) complex            parallel </i>
  <i name="platform" type="string">LinuxIFC </i>
  <i name="date" type="string">2020 09 09 </i>
  <i name="time" type="string">16:04:10 </i>
 </generator>
 <incar>
  <i type="string" name="PREC">accurate</i>
  <i type="string" name="ALGO"> All</i>
  <i type="int" name="ISPIN">     2</i>
  <i type="int" name="NELM">   200</i>
  <i type="int" name="IBRION">     2</i>
  <i name="EDIFF">      0.00001000</i>
  <i name="EDIFFG">     -0.05000000</i>
  <i type="int" name="NSW">     0</i>
  <i type="int" name="ISIF">     3</i>
  <i name="ENCUT">    680.00000000</i>
  <i name="ENAUG">   1360.00000000</i>
  <v name="MAGMOM">      0.00000000</v>
  <i type="string" name="LREAL"> Auto</i>
  <i type="int" name="ISMEAR">     2</i>
  <i name="SIGMA">      0.20000000</i>
  <i name="KSPACING">      0.22000000</i>
  <i type="logical" name="LWAVE"> F  </i>
  <i type="logical" name="LCHARG"> T  </i>
  <i type="logical" name="LVTOT"> T  </i>
  <i type="int" name="LORBIT">    11</i>
  <i type="logical" name="LELF"> T  </i>
  <i type="logical" name="LASPH"> T  </i>
  <i type="logical" name="LAECHG"> T  </i>
  <v type="int" name="KPOINT_BSE">    -1     0     0     0</v>
  <i type="int" name="NELM">   200</i>
  <i type="string" name="GGA"> Ps</i>
  <i type="string" name="METAGGA"> None</i>
  <i type="logical" name="LASPH"> T  </i>
  <i type="int" name="LMIXTAU">    -1</i>
 </incar>
 <structure name="primitive_cell" >
  <crystal>
   <varray name="basis" >
    <v>       0.00000000       2.01946500       2.01946500 </v>
    <v>       2.01946500       0.00000000       2.01946500 </v>
    <v>       2.01946500       2.01946500       0.00000000 </v>
   </varray>
   <i name="volume">     16.47172138 </i>
   <varray name="rec_basis" >
    <v>      -0.24759033       0.24759033       0.24759033 </v>
    <v>       0.24759033      -0.24759033       0.24759033 </v>
    <v>       0.24759033       0.24759033      -0.24759033 </v>
   </varray>
  </crystal>
  <varray name="positions" >
   <v>       0.00000000       0.00000000       0.00000000 </v>
  </varray>
 </structure>
 <varray name="primitive_index" >
  <v type="int" >        1 </v>
 </varray>
 <kpoints>
  <generation param="Gamma">
   <v type="int" name="divisions">      13       13       13 </v>
   <v name="usershift">      0.00000000       0.00000000       0.00000000 </v>
   <v name="genvec1">      0.07692308       0.00000000       0.00000000 </v>
   <v name="genvec2">      0.00000000       0.07692308       0.00000000 </v>
   <v name="genvec3">      0.00000000       0.00000000       0.07692308 </v>
   <v name="shift">      0.00000000       0.00000000       0.00000000 </v>
  </generation>
  <varray name="kpointlist" >
   <v>       0.00000000       0.00000000       0.00000000 </v>
   <v>       0.07692308       0.00000000       0.00000000 </v>
   <v>       0.15384615       0.00000000       0.00000000 </v>
   <v>       0.23076923       0.00000000       0.00000000 </v>
   <v>       0.30769231       0.00000000       0.00000000 </v>
   <v>       0.38461538       0.00000000       0.00000000 </v>
   <v>       0.46153846       0.00000000       0.00000000 </v>
   <v>       0.07692308       0.07692308       0.00000000 </v>
   <v>       0.15384615       0.07692308       0.00000000 </v>
   <v>       0.23076923       0.07692308       0.00000000 </v>
   <v>       0.30769231       0.07692308       0.00000000 </v>
   <v>       0.38461538       0.07692308       0.00000000 </v>
   <v>       0.46153846       0.07692308       0.00000000 </v>
   <v>      -0.46153846       0.07692308       0.00000000 </v>
   <v>      -0.38461538       0.07692308       0.00000000 </v>
   <v>      -0.30769231       0.07692308       0.00000000 </v>
   <v>      -0.23076923       0.07692308       0.00000000 </v>
   <v>      -0.15384615       0.07692308       0.00000000 </v>
   <v>      -0.07692308       0.07692308       0.00000000 </v>
   <v>       0.15384615       0.15384615       0.00000000 </v>
   <v>       0.23076923       0.15384615       0.00000000 </v>
   <v>       0.30769231       0.15384615       0.00000000 </v>
   <v>       0.38461538       0.15384615       0.00000000 </v>
   <v>       0.46153846       0.15384615       0.00000000 </v>
   <v>      -0.46153846       0.15384615       0.00000000 </v>
   <v>      -0.38461538       0.15384615       0.00000000 </v>
   <v>      -0.30769231       0.15384615       0.00000000 </v>
   <v>      -0.23076923       0.15384615       0.00000000 </v>
   <v>      -0.15384615       0.15384615       0.00000000 </v>
   <v>       0.23076923       0.23076923       0.00000000 </v>
   <v>       0.30769231       0.23076923       0.00000000 </v>
   <v>       0.38461538       0.23076923       0.00000000 </v>
   <v>       0.46153846       0.23076923       0.00000000 </v>
   <v>      -0.46153846       0.23076923       0.00000000 </v>
   <v>      -0.38461538       0.23076923       0.00000000 </v>
   <v>      -0.30769231       0.23076923       0.00000000 </v>
   <v>      -0.23076923       0.23076923       0.00000000 </v>
   <v>       0.30769231       0.30769231       0.00000000 </v>
   <v>       0.38461538       0.30769231       0.00000000 </v>
   <v>       0.46153846       0.30769231       0.00000000 </v>
   <v>      -0.46153846       0.30769231       0.00000000 </v>
   <v>      -0.38461538       0.30769231       0.00000000 </v>
   <v>      -0.30769231       0.30769231       0.00000000 </v>
   <v>       0.38461538       0.38461538       0.00000000 </v>
   <v>       0.46153846       0.38461538       0.00000000 </v>
   <v>      -0.46153846       0.38461538       0.00000000 </v>
   <v>      -0.38461538       0.38461538       0.00000000 </v>
   <v>       0.46153846       0.46153846       0.00000000 </v>
   <v>      -0.46153846       0.46153846       0.00000000 </v>
   <v>       0.23076923       0.15384615       0.07692308 </v>
   <v>       0.30769231       0.15384615       0.07692308 </v>
   <v>       0.38461538       0.15384615       0.07692308 </v>
   <v>       0.46153846       0.15384615       0.07692308 </v>
   <v>      -0.46153846       0.15384615       0.07692308 </v>
   <v>       0.30769231       0.23076923       0.07692308 </v>
   <v>       0.38461538       0.23076923       0.07692308 </v>
   <v>       0.46153846       0.23076923       0.07692308 </v>
   <v>      -0.46153846       0.23076923       0.07692308 </v>
   <v>      -0.38461538       0.23076923       0.07692308 </v>
   <v>      -0.30769231       0.23076923       0.07692308 </v>
   <v>      -0.23076923       0.23076923       0.07692308 </v>
   <v>      -0.15384615       0.23076923       0.07692308 </v>
   <v>       0.38461538       0.30769231       0.07692308 </v>
   <v>       0.46153846       0.30769231       0.07692308 </v>
   <v>      -0.46153846       0.30769231       0.07692308 </v>
   <v>      -0.38461538       0.30769231       0.07692308 </v>
   <v>      -0.30769231       0.30769231       0.07692308 </v>
   <v>      -0.23076923       0.30769231       0.07692308 </v>
   <v>       0.46153846       0.38461538       0.07692308 </v>
   <v>      -0.46153846       0.38461538       0.07692308 </v>
   <v>      -0.38461538       0.38461538       0.07692308 </v>
   <v>      -0.30769231       0.38461538       0.07692308 </v>
   <v>      -0.46153846       0.46153846       0.07692308 </v>
   <v>      -0.38461538       0.46153846       0.07692308 </v>
   <v>       0.46153846       0.30769231       0.15384615 </v>
   <v>      -0.46153846       0.30769231       0.15384615 </v>
   <v>      -0.38461538       0.30769231       0.15384615 </v>
   <v>      -0.46153846       0.38461538       0.15384615 </v>
   <v>      -0.38461538       0.38461538       0.15384615 </v>
   <v>      -0.30769231       0.38461538       0.15384615 </v>
   <v>      -0.23076923       0.38461538       0.15384615 </v>
   <v>      -0.38461538       0.46153846       0.15384615 </v>
   <v>      -0.30769231       0.46153846       0.15384615 </v>
   <v>      -0.30769231       0.46153846       0.23076923 </v>
  </varray>
  <varray name="weights" >
   <v>       0.00045517 </v>
   <v>       0.00364133 </v>
   <v>       0.00364133 </v>
   <v>       0.00364133 </v>
   <v>       0.00364133 </v>
   <v>       0.00364133 </v>
   <v>       0.00364133 </v>
   <v>       0.00273100 </v>
   <v>       0.01092399 </v>
   <v>       0.01092399 </v>
   <v>       0.01092399 </v>
   <v>       0.01092399 </v>
   <v>       0.01092399 </v>
   <v>       0.01092399 </v>
   <v>       0.01092399 </v>
   <v>       0.01092399 </v>
   <v>       0.01092399 </v>
   <v>       0.01092399 </v>
   <v>       0.00546199 </v>
   <v>       0.00273100 </v>
   <v>       0.01092399 </v>
   <v>       0.01092399 </v>
   <v>       0.01092399 </v>
   <v>       0.01092399 </v>
   <v>       0.01092399 </v>
   <v>       0.01092399 </v>
   <v>       0.01092399 </v>
   <v>       0.01092399 </v>
   <v>       0.00546199 </v>
   <v>       0.00273100 </v>
   <v>       0.01092399 </v>
   <v>       0.01092399 </v>
   <v>       0.01092399 </v>
   <v>       0.01092399 </v>
   <v>       0.01092399 </v>
   <v>       0.01092399 </v>
   <v>       0.00546199 </v>
   <v>       0.00273100 </v>
   <v>       0.01092399 </v>
   <v>       0.01092399 </v>
   <v>       0.01092399 </v>
   <v>       0.01092399 </v>
   <v>       0.00546199 </v>
   <v>       0.00273100 </v>
   <v>       0.01092399 </v>
   <v>       0.01092399 </v>
   <v>       0.00546199 </v>
   <v>       0.00273100 </v>
   <v>       0.00546199 </v>
   <v>       0.01092399 </v>
   <v>       0.02184797 </v>
   <v>       0.02184797 </v>
   <v>       0.02184797 </v>
   <v>       0.02184797 </v>
   <v>       0.01092399 </v>
   <v>       0.02184797 </v>
   <v>       0.02184797 </v>
   <v>       0.02184797 </v>
   <v>       0.02184797 </v>
   <v>       0.02184797 </v>
   <v>       0.02184797 </v>
   <v>       0.01092399 </v>
   <v>       0.01092399 </v>
   <v>       0.02184797 </v>
   <v>       0.02184797 </v>
   <v>       0.02184797 </v>
   <v>       0.02184797 </v>
   <v>       0.01092399 </v>
   <v>       0.01092399 </v>
   <v>       0.02184797 </v>
   <v>       0.02184797 </v>
   <v>       0.01092399 </v>
   <v>       0.01092399 </v>
   <v>       0.01092399 </v>
   <v>       0.01092399 </v>
   <v>       0.02184797 </v>
   <v>       0.02184797 </v>
   <v>       0.01092399 </v>
   <v>       0.02184797 </v>
   <v>       0.02184797 </v>
   <v>       0.01092399 </v>
   <v>       0.01092399 </v>
   <v>       0.01092399 </v>
   <v>       0.01092399 </v>
  </varray>
 </kpoints>
 <parameters>
  <separator name="general" >
   <i type="string" name="SYSTEM">unknown system</i>
   <i type="logical" name="LCOMPAT"> F  </i>
  </separator>
  <separator name="electronic" >
   <i type="string" name="PREC">accura</i>
   <i name="ENMAX">    680.00000000</i>
   <i name="ENAUG">   1360.00000000</i>
   <i name="EDIFF">      0.00001000</i>
   <i type="int" name="IALGO">    58</i>
   <i type="int" name="IWAVPR">    10</i>
   <i type="int" name="NBANDS">     5</i>
   <i name="NELECT">      3.00000000</i>
   <i type="int" name="TURBO">     0</i>
   <i type="int" name="IRESTART">     0</i>
   <i type="int" name="NREBOOT">     0</i>
   <i type="int" name="NMIN">     0</i>
   <i name="EREF">      0.00000000</i>
   <separator name="electronic smearing" >
    <i type="int" name="ISMEAR">     2</i>
    <i name="SIGMA">      0.20000000</i>
    <i name="KSPACING">      0.22000000</i>
    <i type="logical" name="KGAMMA"> T  </i>
   </separator>
   <separator name="electronic projectors" >
    <i type="logical" name="LREAL"> T  </i>
    <v name="ROPT">     -0.00025000</v>
    <i type="int" name="LMAXPAW">  -100</i>
    <i type="int" name="LMAXMIX">     2</i>
    <i type="logical" name="NLSPLINE"> F  </i>
   </separator>
   <separator name="electronic startup" >
    <i type="int" name="ISTART">     0</i>
    <i type="int" name="ICHARG">     2</i>
    <i type="int" name="INIWAV">     1</i>
   </separator>
   <separator name="electronic spin" >
    <i type="int" name="ISPIN">     2</i>
    <i type="logical" name="LNONCOLLINEAR"> F  </i>
    <v name="MAGMOM">      0.00000000</v>
    <i name="NUPDOWN">     -1.00000000</i>
    <i type="logical" name="LSORBIT"> F  </i>
    <v name="SAXIS">      0.00000000      0.00000000      1.00000000</v>
    <i type="logical" name="LSPIRAL"> F  </i>
    <v name="QSPIRAL">      0.00000000      0.00000000      0.00000000</v>
    <i type="logical" name="LZEROZ"> F  </i>
   </separator>
   <separator name="electronic exchange-correlation" >
    <i type="logical" name="LASPH"> T  </i>
    <i type="logical" name="LMETAGGA"> F  </i>
   </separator>
   <separator name="electronic convergence" >
    <i type="int" name="NELM">   200</i>
    <i type="int" name="NELMDL">    -5</i>
    <i type="int" name="NELMIN">     2</i>
    <i name="ENINI">    680.00000000</i>
    <separator name="electronic convergence detail" >
     <i type="logical" name="LDIAG"> T  </i>
     <i type="logical" name="LSUBROT"> F  </i>
     <i name="WEIMIN">      0.00000000</i>
     <i name="EBREAK">      0.00000050</i>
     <i name="DEPER">      0.30000000</i>
     <i type="int" name="NRMM">     4</i>
     <i name="TIME">      0.40000000</i>
    </separator>
   </separator>
   <separator name="electronic mixer" >
    <i name="AMIX">      0.40000000</i>
    <i name="BMIX">      1.00000000</i>
    <i name="AMIN">      0.10000000</i>
    <i name="AMIX_MAG">      1.60000000</i>
    <i name="BMIX_MAG">      1.00000000</i>
    <separator name="electronic mixer details" >
     <i type="int" name="IMIX">     4</i>
     <i type="logical" name="MIXFIRST"> F  </i>
     <i type="int" name="MAXMIX">   -45</i>
     <i name="WC">    100.00000000</i>
     <i type="int" name="INIMIX">     1</i>
     <i type="int" name="MIXPRE">     1</i>
     <i type="int" name="MREMOVE">     5</i>
    </separator>
   </separator>
   <separator name="electronic dipolcorrection" >
    <i type="logical" name="LDIPOL"> F  </i>
    <i type="logical" name="LMONO"> F  </i>
    <i type="int" name="IDIPOL">     0</i>
    <i name="EPSILON">      1.00000000</i>
    <v name="DIPOL">   -100.00000000   -100.00000000   -100.00000000</v>
    <i name="EFIELD">      0.00000000</i>
   </separator>
  </separator>
  <separator name="grids" >
   <i type="int" name="NGX">    24</i>
   <i type="int" name="NGY">    24</i>
   <i type="int" name="NGZ">    24</i>
   <i type="int" name="NGXF">    48</i>
   <i type="int" name="NGYF">    48</i>
   <i type="int" name="NGZF">    48</i>
   <i type="logical" name="ADDGRID"> F  </i>
  </separator>
  <separator name="ionic" >
   <i type="int" name="NSW">     0</i>
   <i type="int" name="IBRION">    -1</i>
   <i type="int" name="MDALGO">     0</i>
   <i type="int" name="ISIF">     3</i>
   <i name="PSTRESS">      0.00000000</i>
   <i name="EDIFFG">     -0.05000000</i>
   <i type="int" name="NFREE">     1</i>
   <i name="POTIM">      0.50000000</i>
   <i name="SMASS">     -3.00000000</i>
   <i name="SCALEE">      1.00000000</i>
  </separator>
  <separator name="ionic md" >
   <i name="TEBEG">      0.00010000</i>
   <i name="TEEND">      0.00010000</i>
   <i type="int" name="NBLOCK">     1</i>
   <i type="int" name="KBLOCK">     1</i>
   <i type="int" name="NPACO">   256</i>
   <i name="APACO">     16.00000000</i>
  </separator>
  <separator name="symmetry" >
   <i type="int" name="ISYM">     2</i>
   <i name="SYMPREC">      0.00001000</i>
  </separator>
  <separator name="dos" >
   <i type="int" name="LORBIT">    11</i>
   <v name="RWIGS">     -1.00000000</v>
   <i type="int" name="NEDOS">   301</i>
   <i name="EMIN">     10.00000000</i>
   <i name="EMAX">    -10.00000000</i>
   <i name="EFERMI">      0.00000000</i>
  </separator>
  <separator name="writing" >
   <i type="int" name="NWRITE">     2</i>
   <i type="logical" name="LWAVE"> F  </i>
   <i type="logical" name="LDOWNSAMPLE"> F  </i>
   <i type="logical" name="LCHARG"> T  </i>
   <i type="logical" name="LPARD"> F  </i>
   <i type="logical" name="LVTOT"> T  </i>
   <i type="logical" name="LVHAR"> F  </i>
   <i type="logical" name="LELF"> T  </i>
   <i type="logical" name="LOPTICS"> F  </i>
   <v name="STM">      0.00000000      0.00000000      0.00000000      0.00000000      0.00000000      0.00000000      0.00000000</v>
  </separator>
  <separator name="performance" >
   <i type="int" name="NPAR">     1</i>
   <i type="int" name="NSIM">     4</i>
   <i type="int" name="NBLK">    -1</i>
   <i type="logical" name="LPLANE"> T  </i>
   <i type="logical" name="LSCALAPACK"> F  </i>
   <i type="logical" name="LSCAAWARE"> F  </i>
   <i type="logical" name="LSCALU"> F  </i>
   <i type="logical" name="LASYNC"> F  </i>
   <i type="logical" name="LORBITALREAL"> F  </i>
  </separator>
  <separator name="miscellaneous" >
   <i type="int" name="IDIOT">     3</i>
   <i type="int" name="ISPECIAL">     0</i>
   <i type="logical" name="LMUSIC"> F  </i>
   <v name="POMASS">     26.98100000</v>
   <v name="DARWINR">      0.00000000</v>
   <v name="DARWINV">      1.00000000</v>
   <i type="logical" name="LCORR"> T  </i>
  </separator>
  <i type="logical" name="GGA_COMPAT"> T  </i>
  <i type="logical" name="LBERRY"> F  </i>
  <i type="int" name="ICORELEVEL">     0</i>
  <i type="logical" name="LDAU"> F  </i>
  <i type="int" name="I_CONSTRAINED_M">     0</i>
  <separator name="electronic exchange-correlation" >
   <i type="string" name="GGA">PS</i>
   <i type="int" name="VOSKOWN">     0</i>
   <i type="logical" name="LHFCALC"> F  </i>
   <i type="string" name="PRECFOCK"></i>
   <i type="logical" name="LSYMGRAD"> F  </i>
   <i type="logical" name="LHFONE"> F  </i>
   <i type="logical" name="LRHFCALC"> F  </i>
   <i type="logical" name="LTHOMAS"> F  </i>
   <i type="logical" name="LMODELHF"> F  </i>
   <i name="ENCUT4O">     -1.00000000</i>
   <i type="int" name="EXXOEP">     0</i>
   <i type="int" name="FOURORBIT">     0</i>
   <i name="AEXX">      0.00000000</i>
   <i name="HFALPHA">      0.00000000</i>
   <i name="MCALPHA">      0.00000000</i>
   <i name="ALDAX">      1.00000000</i>
   <i name="AGGAX">      1.00000000</i>
   <i name="ALDAC">      1.00000000</i>
   <i name="AGGAC">      1.00000000</i>
   <i type="int" name="NKREDX">     1</i>
   <i type="int" name="NKREDY">     1</i>
   <i type="int" name="NKREDZ">     1</i>
   <i type="logical" name="SHIFTRED"> F  </i>
   <i type="logical" name="ODDONLY"> F  </i>
   <i type="logical" name="EVENONLY"> F  </i>
   <i type="int" name="LMAXFOCK">     0</i>
   <i type="int" name="NMAXFOCKAE">     0</i>
   <i type="logical" name="LFOCKAEDFT"> F  </i>
   <i name="HFSCREEN">      0.00000000</i>
   <i name="HFSCREENC">      0.00000000</i>
   <i type="int" name="NBANDSGWLOW">     0</i>
  </separator>
  <separator name="vdW DFT" >
   <i type="logical" name="LUSE_VDW"> F  </i>
   <i name="Zab_VDW">     -0.84910000</i>
   <i name="PARAM1">      0.12340000</i>
   <i name="PARAM2">      1.00000000</i>
   <i name="PARAM3">      0.00000000</i>
  </separator>
  <separator name="model GW" >
   <i type="int" name="MODEL_GW">     0</i>
   <i name="MODEL_EPS0">      9.88303283</i>
   <i name="MODEL_ALPHA">      1.00000000</i>
  </separator>
  <separator name="linear response parameters" >
   <i type="logical" name="LEPSILON"> F  </i>
   <i type="logical" name="LRPA"> F  </i>
   <i type="logical" name="LNABLA"> F  </i>
   <i type="logical" name="LVEL"> F  </i>
   <i type="int" name="KINTER">     0</i>
   <i name="CSHIFT">      0.10000000</i>
   <i name="OMEGAMAX">     -1.00000000</i>
   <i name="DEG_THRESHOLD">      0.00200000</i>
   <i name="RTIME">     -0.10000000</i>
   <i name="WPLASMAI">      0.00000000</i>
   <v name="DFIELD">      0.00000000      0.00000000      0.00000000</v>
   <v name="WPLASMA">      0.00000000      0.00000000      0.00000000      0.00000000      0.00000000      0.00000000      0.00000000      0.00000000      0.00000000</v>
  </separator>
  <separator name="orbital magnetization" >
   <i type="logical" name="NUCIND"> F  </i>
   <v name="MAGPOS">      0.00000000      0.00000000      0.00000000</v>
   <i type="logical" name="LNICSALL"> T  </i>
   <i type="logical" name="ORBITALMAG"> F  </i>
   <i type="logical" name="LMAGBLOCH"> F  </i>
   <i type="logical" name="LCHIMAG"> F  </i>
   <i type="logical" name="LGAUGE"> T  </i>
   <i type="int" name="MAGATOM">     0</i>
   <v name="MAGDIPOL">      0.00000000      0.00000000      0.00000000</v>
   <v name="AVECCONST">      0.00000000      0.00000000      0.00000000</v>
  </separator>
  <separator name="response functions" >
   <i type="logical" name="LADDER"> F  </i>
   <i type="logical" name="LRPAFORCE"> F  </i>
   <i type="logical" name="LFXC"> F  </i>
   <i type="logical" name="LHARTREE"> T  </i>
   <i type="int" name="IBSE">     0</i>
   <v type="int" name="KPOINT">    -1     0     0     0</v>
   <i type="logical" name="LTCTE"> F  </i>
   <i type="logical" name="LTETE"> F  </i>
   <i type="logical" name="LTRIPLET"> F  </i>
   <i type="logical" name="LFXCEPS"> F  </i>
   <i type="logical" name="LFXHEG"> F  </i>
   <i type="int" name="NATURALO">     2</i>
   <i type="logical" name="L2ORDER"> F  </i>
   <i type="logical" name="LMP2LT"> F  </i>
   <i type="logical" name="LUSEW"> F  </i>
   <i name="ENCUTGW">     -2.00000000</i>
   <i name="ENCUTGWSOFT">     -2.00000000</i>
   <i name="ENCUTLF">     -1.00000000</i>
   <i type="int" name="LMAXMP2">    -1</i>
   <i name="SCISSOR">      0.00000000</i>
   <i type="int" name="NOMEGA">     0</i>
   <i type="int" name="NOMEGAR">     0</i>
   <i type="int" name="NBANDSGW">    -1</i>
   <i type="int" name="NBANDSO">    -1</i>
   <i type="int" name="NBANDSV">    -1</i>
   <i type="int" name="NELM">   200</i>
   <i type="int" name="NELMHF">     1</i>
   <i type="int" name="DIM">     3</i>
   <i type="int" name="ANTIRES">     0</i>
   <i name="OMEGAMAX">    -30.00000000</i>
   <i name="OMEGAMIN">    -30.00000000</i>
   <i name="OMEGATL">   -200.00000000</i>
   <i type="int" name="OMEGAGRID">   140</i>
   <i name="CSHIFT">     -0.10000000</i>
   <i type="logical" name="SELFENERGY"> F  </i>
   <i type="logical" name="LSPECTRAL"> F  </i>
   <i type="logical" name="LSPECTRALGW"> F  </i>
   <i type="logical" name="LSINGLES"> F  </i>
   <i type="logical" name="LFERMIGW"> F  </i>
   <i type="logical" name="ODDONLYGW"> F  </i>
   <i type="logical" name="EVENONLYGW"> F  </i>
   <i type="int" name="NKREDLFX">     1</i>
   <i type="int" name="NKREDLFY">     1</i>
   <i type="int" name="NKREDLFZ">     1</i>
   <i type="int" name="MAXMEM">  2800</i>
   <i type="int" name="TELESCOPE">     0</i>
   <i type="int" name="TAUPAR">     1</i>
   <i type="int" name="OMEGAPAR">    -1</i>
   <i name="LAMBDA">      1.00000000</i>
  </separator>
  <separator name="External order field" >
   <i name="OFIELD_KAPPA">      0.00000000</i>
   <v name="OFIELD_K">      0.00000000      0.00000000      0.00000000</v>
   <i name="OFIELD_Q6_NEAR">      0.00000000</i>
   <i name="OFIELD_Q6_FAR">      0.00000000</i>
   <i name="OFIELD_A">      0.00000000</i>
  </separator>
 </parameters>
 <atominfo>
  <atoms>       1 </atoms>
  <types>       1 </types>
  <array name="atoms" >
   <dimension dim="1">ion</dimension>
   <field type="string">element</field>
   <field type="int">atomtype</field>
   <set>
    <rc><c>Al</c><c>   1</c></rc>
   </set>
  </array>
  <array name="atomtypes" >
   <dimension dim="1">type</dimension>
   <field type="int">atomspertype</field>
   <field type="string">element</field>
   <field>mass</field>
   <field>valence</field>
   <field type="string">pseudopotential</field>
   <set>
    <rc><c>   1</c><c>Al</c><c>     26.98100000</c><c>      3.00000000</c><c>  PAW_PBE Al 04Jan2001                  </c></rc>
   </set>
  </array>
 </atominfo>
 <structure name="initialpos" >
  <crystal>
   <varray name="basis" >
    <v>       0.00000000       2.01946500       2.01946500 </v>
    <v>       2.01946500       0.00000000       2.01946500 </v>
    <v>       2.01946500       2.01946500       0.00000000 </v>
   </varray>
   <i name="volume">     16.47172138 </i>
   <varray name="rec_basis" >
    <v>      -0.24759033       0.24759033       0.24759033 </v>
    <v>       0.24759033      -0.24759033       0.24759033 </v>
    <v>       0.24759033       0.24759033      -0.24759033 </v>
   </varray>
  </crystal>
  <varray name="positions" >
   <v>       0.00000000       0.00000000       0.00000000 </v>
  </varray>
 </structure>
 <calculation>
  <scstep>
   <time name="total">    1.05    1.07</time>
   <energy>
    <i name="alphaZ">     -0.20391371 </i>
    <i name="ewald">    -73.55776684 </i>
    <i name="hartreedc">     -0.10076178 </i>
    <i name="XCdc">    -25.31909897 </i>
    <i name="pawpsdc">     65.21805622 </i>
    <i name="pawaedc">    -33.98562469 </i>
    <i name="eentropy">     -0.00071466 </i>
    <i name="bandstr">     13.52033672 </i>
    <i name="atom">     53.16723774 </i>
    <i name="e_fr_energy">     -1.26224997 </i>
    <i name="e_wo_entrp">     -1.26153531 </i>
    <i name="e_0_energy">     -1.26207130 </i>
   </energy>
  </scstep>
  <scstep>
   <time name="total">    0.97    0.98</time>
   <energy>
    <i name="e_fr_energy">     -4.08727079 </i>
    <i name="e_wo_entrp">     -4.08739452 </i>
    <i name="e_0_energy">     -4.08730172 </i>
   </energy>
  </scstep>
  <scstep>
   <time name="total">    0.94    0.94</time>
   <energy>
    <i name="e_fr_energy">     -4.11557022 </i>
    <i name="e_wo_entrp">     -4.11561130 </i>
    <i name="e_0_energy">     -4.11558049 </i>
   </energy>
  </scstep>
  <scstep>
   <time name="total">    0.97    0.98</time>
   <energy>
    <i name="e_fr_energy">     -4.11566294 </i>
    <i name="e_wo_entrp">     -4.11570348 </i>
    <i name="e_0_energy">     -4.11567307 </i>
   </energy>
  </scstep>
  <scstep>
   <time name="total">    1.11    1.13</time>
   <energy>
    <i name="e_fr_energy">     -4.11566348 </i>
    <i name="e_wo_entrp">     -4.11570402 </i>
    <i name="e_0_energy">     -4.11567362 </i>
   </energy>
  </scstep>
  <scstep>
   <time name="total">    1.00    1.01</time>
   <energy>
    <i name="e_fr_energy">     -4.08532692 </i>
    <i name="e_wo_entrp">     -4.08541005 </i>
    <i name="e_0_energy">     -4.08534770 </i>
   </energy>
  </scstep>
  <scstep>
   <time name="total">    1.02    1.03</time>
   <energy>
    <i name="e_fr_energy">     -4.08693006 </i>
    <i name="e_wo_entrp">     -4.08706328 </i>
    <i name="e_0_energy">     -4.08696337 </i>
   </energy>
  </scstep>
  <scstep>
   <time name="total">    1.09    1.10</time>
   <energy>
    <i name="e_fr_energy">     -4.08708229 </i>
    <i name="e_wo_entrp">     -4.08724265 </i>
    <i name="e_0_energy">     -4.08712238 </i>
   </energy>
  </scstep>
  <scstep>
   <time name="total">    1.03    1.03</time>
   <energy>
    <i name="e_fr_energy">     -4.08711465 </i>
    <i name="e_wo_entrp">     -4.08727847 </i>
    <i name="e_0_energy">     -4.08715560 </i>
   </energy>
  </scstep>
  <scstep>
   <time name="total">    1.18    1.19</time>
   <energy>
    <i name="alphaZ">     -0.20391371 </i>
    <i name="ewald">    -73.55776684 </i>
    <i name="hartreedc">     -0.10539695 </i>
    <i name="XCdc">    -25.22298129 </i>
    <i name="pawpsdc">    146.30370326 </i>
    <i name="pawaedc">   -115.09174289 </i>
    <i name="eentropy">      0.00016442 </i>
    <i name="bandstr">     10.62358046 </i>
    <i name="atom">     53.16723774 </i>
    <i name="e_fr_energy">     -4.08711640 </i>
    <i name="e_wo_entrp">     -4.08728082 </i>
    <i name="e_0_energy">     -4.08715750 </i>
   </energy>
  </scstep>
  <structure>
   <crystal>
    <varray name="basis" >
     <v>       0.00000000       2.01946500       2.01946500 </v>
     <v>       2.01946500       0.00000000       2.01946500 </v>
     <v>       2.01946500       2.01946500       0.00000000 </v>
    </varray>
    <i name="volume">     16.47172138 </i>
    <varray name="rec_basis" >
     <v>      -0.24759033       0.24759033       0.24759033 </v>
     <v>       0.24759033      -0.24759033       0.24759033 </v>
     <v>       0.24759033       0.24759033      -0.24759033 </v>
    </varray>
   </crystal>
   <varray name="positions" >
    <v>       0.00000000       0.00000000       0.00000000 </v>
   </varray>
  </structure>
  <varray name="forces" >
   <v>       0.00000000       0.00000000       0.00000000 </v>
  </varray>
  <varray name="stress" >
   <v>     -13.53665925       0.00000000      -0.00000000 </v>
   <v>       0.00000000     -13.53665925       0.00000000 </v>
   <v>       0.00000000       0.00000000     -13.53665925 </v>
  </varray>
  <energy>
   <i name="e_fr_energy">     -4.08711640 </i>
   <i name="e_wo_entrp">     -4.08715750 </i>
   <i name="e_0_energy">      0.00016442 </i>
  </energy>
  <time name="totalsc">   12.21   12.30</time>
  <eigenvalues>
   <array>
    <dimension dim="1">band</dimension>
    <dimension dim="2">kpoint</dimension>
    <dimension dim="3">spin</dimension>
    <field>eigene</field>
    <field>occ</field>
    <set>
     <set comment="spin 1">
      <set comment="kpoint 1">
       <r>   -3.1738    1.0000 </r>
       <r>   20.5726    0.0000 </r>
       <r>   20.5726    0.0000 </r>
       <r>   20.5726    0.0000 </r>
       <r>   22.0765    0.0000 </r>
      </set>
      <set comment="kpoint 2">
       <r>   -3.0129    1.0000 </r>
       <r>   18.2227    0.0000 </r>
       <r>   20.0674    0.0000 </r>
       <r>   20.0674    0.0000 </r>
       <r>   22.7475    0.0000 </r>
      </set>
      <set comment="kpoint 3">
       <r>   -2.5311    1.0000 </r>
       <r>   15.1175    0.0000 </r>
       <r>   19.4026    0.0000 </r>
       <r>   19.4026    0.0000 </r>
       <r>   22.6042    0.0000 </r>
      </set>
      <set comment="kpoint 4">
       <r>   -1.7318    1.0000 </r>
       <r>   12.1228    0.0000 </r>
       <r>   18.9446    0.0000 </r>
       <r>   18.9446    0.0000 </r>
       <r>   22.3739    0.0000 </r>
      </set>
      <set comment="kpoint 5">
       <r>   -0.6203    1.0000 </r>
       <r>    9.3368    0.0000 </r>
       <r>   18.7401    0.0000 </r>
       <r>   18.7401    0.0000 </r>
       <r>   21.7251    0.0000 </r>
      </set>
      <set comment="kpoint 6">
       <r>    0.7961    1.0000 </r>
       <r>    6.7954    1.0000 </r>
       <r>   18.8003    0.0000 </r>
       <r>   18.8004    0.0000 </r>
       <r>   20.5965    0.0000 </r>
      </set>
      <set comment="kpoint 7">
       <r>    2.5064    1.0000 </r>
       <r>    4.5208    1.0000 </r>
       <r>   19.1292    0.0000 </r>
       <r>   19.1301    0.0000 </r>
       <r>   19.7292    0.0000 </r>
      </set>
      <set comment="kpoint 8">
       <r>   -2.9592    1.0000 </r>
       <r>   19.0206    0.0000 </r>
       <r>   19.0206    0.0000 </r>
       <r>   19.3126    0.0000 </r>
       <r>   21.5832    0.0000 </r>
      </set>
      <set comment="kpoint 9">
       <r>   -2.5845    1.0000 </r>
       <r>   16.2202    0.0000 </r>
       <r>   18.1901    0.0000 </r>
       <r>   19.4095    0.0000 </r>
       <r>   21.9040    0.0000 </r>
      </set>
      <set comment="kpoint 10">
       <r>   -1.8913    1.0000 </r>
       <r>   13.2092    0.0000 </r>
       <r>   17.6173    0.0000 </r>
       <r>   19.0852    0.0000 </r>
       <r>   21.3009    0.0000 </r>
      </set>
      <set comment="kpoint 11">
       <r>   -0.8842    1.0000 </r>
       <r>   10.3625    0.0000 </r>
       <r>   17.3116    0.0000 </r>
       <r>   18.8422    0.0000 </r>
       <r>   19.8167    0.0000 </r>
      </set>
      <set comment="kpoint 12">
       <r>    0.4302    1.0000 </r>
       <r>    7.7439    1.0159 </r>
       <r>   17.2760    0.0000 </r>
       <r>   18.5338    0.0000 </r>
       <r>   18.8681    0.0000 </r>
      </set>
      <set comment="kpoint 13">
       <r>    2.0426    1.0000 </r>
       <r>    5.3819    1.0000 </r>
       <r>   17.5123    0.0000 </r>
       <r>   17.5662    0.0000 </r>
       <r>   19.1157    0.0000 </r>
      </set>
      <set comment="kpoint 14">
       <r>    3.2657    1.0000 </r>
       <r>    3.9708    1.0000 </r>
       <r>   16.8595    0.0000 </r>
       <r>   18.0215    0.0000 </r>
       <r>   19.6559    0.0000 </r>
      </set>
      <set comment="kpoint 15">
       <r>    1.4729    1.0000 </r>
       <r>    6.1385    1.0000 </r>
       <r>   16.4322    0.0000 </r>
       <r>   18.8022    0.0000 </r>
       <r>   20.4711    0.0000 </r>
      </set>
      <set comment="kpoint 16">
       <r>   -0.0416    1.0000 </r>
       <r>    8.5871    0.0000 </r>
       <r>   16.2871    0.0000 </r>
       <r>   19.8378    0.0000 </r>
       <r>   20.4709    0.0000 </r>
      </set>
      <set comment="kpoint 17">
       <r>   -1.2544    1.0000 </r>
       <r>   11.2807    0.0000 </r>
       <r>   16.4264    0.0000 </r>
       <r>   20.5154    0.0000 </r>
       <r>   21.1978    0.0000 </r>
      </set>
      <set comment="kpoint 18">
       <r>   -2.1575    1.0000 </r>
       <r>   14.1697    0.0000 </r>
       <r>   16.8617    0.0000 </r>
       <r>   20.8435    0.0000 </r>
       <r>   22.5584    0.0000 </r>
      </set>
      <set comment="kpoint 19">
       <r>   -2.7450    1.0000 </r>
       <r>   16.9278    0.0000 </r>
       <r>   17.8195    0.0000 </r>
       <r>   20.9897    0.0000 </r>
       <r>   22.3268    0.0000 </r>
      </set>
      <set comment="kpoint 20">
       <r>   -2.3175    1.0000 </r>
       <r>   17.2424    0.0000 </r>
       <r>   17.2424    0.0000 </r>
       <r>   17.4245    0.0000 </r>
       <r>   20.4772    0.0000 </r>
      </set>
      <set comment="kpoint 21">
       <r>   -1.7317    1.0000 </r>
       <r>   14.4966    0.0000 </r>
       <r>   16.5661    0.0000 </r>
       <r>   17.8374    0.0000 </r>
       <r>   19.1974    0.0000 </r>
      </set>
      <set comment="kpoint 22">
       <r>   -0.8314    1.0000 </r>
       <r>   11.6456    0.0000 </r>
       <r>   16.1626    0.0000 </r>
       <r>   17.4605    0.0000 </r>
       <r>   17.8454    0.0000 </r>
      </set>
      <set comment="kpoint 23">
       <r>    0.3775    1.0000 </r>
       <r>    8.9729    0.0000 </r>
       <r>   16.0322    0.0000 </r>
       <r>   16.1397    0.0000 </r>
       <r>   17.7475    0.0000 </r>
      </set>
      <set comment="kpoint 24">
       <r>    1.8865    1.0000 </r>
       <r>    6.5372    1.0000 </r>
       <r>   15.0433    0.0000 </r>
       <r>   16.1753    0.0000 </r>
       <r>   17.9393    0.0000 </r>
      </set>
      <set comment="kpoint 25">
       <r>    3.6690    1.0000 </r>
       <r>    4.3810    1.0000 </r>
       <r>   14.2282    0.0000 </r>
       <r>   16.5924    0.0000 </r>
       <r>   18.4122    0.0000 </r>
      </set>
      <set comment="kpoint 26">
       <r>    2.4551    1.0000 </r>
       <r>    5.7773    1.0000 </r>
       <r>   13.7045    0.0000 </r>
       <r>   17.2837    0.0000 </r>
       <r>   19.1687    0.0000 </r>
      </set>
      <set comment="kpoint 27">
       <r>    0.8480    1.0000 </r>
       <r>    8.1142   -0.0405 </r>
       <r>   13.4834    0.0000 </r>
       <r>   18.2473    0.0000 </r>
       <r>   20.1991    0.0000 </r>
      </set>
      <set comment="kpoint 28">
       <r>   -0.4623    1.0000 </r>
       <r>   10.6584    0.0000 </r>
       <r>   13.6022    0.0000 </r>
       <r>   19.4750    0.0000 </r>
       <r>   21.4794    0.0000 </r>
      </set>
      <set comment="kpoint 29">
       <r>   -1.4663    1.0000 </r>
       <r>   13.0297    0.0000 </r>
       <r>   14.4067    0.0000 </r>
       <r>   20.9343    0.0000 </r>
       <r>   22.2365    0.0000 </r>
      </set>
      <set comment="kpoint 30">
       <r>   -1.2544    1.0000 </r>
       <r>   15.7915    0.0000 </r>
       <r>   15.7915    0.0000 </r>
       <r>   15.7922    0.0000 </r>
       <r>   17.1647    0.0000 </r>
      </set>
      <set comment="kpoint 31">
       <r>   -0.4625    1.0000 </r>
       <r>   13.1299    0.0000 </r>
       <r>   15.2925    0.0000 </r>
       <r>   15.3849    0.0000 </r>
       <r>   16.5188    0.0000 </r>
      </set>
      <set comment="kpoint 32">
       <r>    0.6381    1.0000 </r>
       <r>   10.4578    0.0000 </r>
       <r>   13.8958    0.0000 </r>
       <r>   15.0682    0.0000 </r>
       <r>   16.6356    0.0000 </r>
      </set>
      <set comment="kpoint 33">
       <r>    2.0394    1.0000 </r>
       <r>    7.9715    0.0874 </r>
       <r>   12.6838    0.0000 </r>
       <r>   15.1180    0.0000 </r>
       <r>   16.7961    0.0000 </r>
      </set>
      <set comment="kpoint 34">
       <r>    3.7258    1.0000 </r>
       <r>    5.7317    1.0000 </r>
       <r>   11.7631    0.0000 </r>
       <r>   15.4423    0.0000 </r>
       <r>   17.1987    0.0000 </r>
      </set>
      <set comment="kpoint 35">
       <r>    3.7334    1.0000 </r>
       <r>    5.7082    1.0000 </r>
       <r>   11.1500    0.0000 </r>
       <r>   16.0413    0.0000 </r>
       <r>   17.8811    0.0000 </r>
      </set>
      <set comment="kpoint 36">
       <r>    2.0422    1.0000 </r>
       <r>    7.8818    0.4917 </r>
       <r>   10.8923    0.0000 </r>
       <r>   16.9153    0.0000 </r>
       <r>   18.8425    0.0000 </r>
      </set>
      <set comment="kpoint 37">
       <r>    0.6391    1.0000 </r>
       <r>    9.8714    0.0000 </r>
       <r>   11.3815    0.0000 </r>
       <r>   18.0625    0.0000 </r>
       <r>   20.0615    0.0000 </r>
      </set>
      <set comment="kpoint 38">
       <r>    0.2196    1.0000 </r>
       <r>   13.4949    0.0000 </r>
       <r>   14.5400    0.0000 </r>
       <r>   14.6995    0.0000 </r>
       <r>   14.6995    0.0000 </r>
      </set>
      <set comment="kpoint 39">
       <r>    1.2096    1.0000 </r>
       <r>   11.8238    0.0000 </r>
       <r>   12.2114    0.0000 </r>
       <r>   14.3819    0.0000 </r>
       <r>   15.5170    0.0000 </r>
      </set>
      <set comment="kpoint 40">
       <r>    2.4984    1.0000 </r>
       <r>    9.6324    0.0000 </r>
       <r>   10.6031    0.0000 </r>
       <r>   14.3388    0.0000 </r>
       <r>   15.8324    0.0000 </r>
      </set>
      <set comment="kpoint 41">
       <r>    4.0677    1.0000 </r>
       <r>    7.3597    0.9985 </r>
       <r>    9.5669    0.0000 </r>
       <r>   14.5701    0.0000 </r>
       <r>   16.1990    0.0000 </r>
      </set>
      <set comment="kpoint 42">
       <r>    5.2823    1.0000 </r>
       <r>    5.9054    1.0000 </r>
       <r>    8.8964    0.0000 </r>
       <r>   15.0762    0.0000 </r>
       <r>   16.8094    0.0000 </r>
      </set>
      <set comment="kpoint 43">
       <r>    3.5315    1.0000 </r>
       <r>    7.5033    0.9958 </r>
       <r>    8.9889    0.0000 </r>
       <r>   15.8578    0.0000 </r>
       <r>   17.6947    0.0000 </r>
      </set>
      <set comment="kpoint 44">
       <r>    2.0859    1.0000 </r>
       <r>   10.1516    0.0000 </r>
       <r>   13.6973    0.0000 </r>
       <r>   13.9715    0.0000 </r>
       <r>   13.9715    0.0000 </r>
      </set>
      <set comment="kpoint 45">
       <r>    3.2535    1.0000 </r>
       <r>    8.7200    0.0000 </r>
       <r>   11.5719    0.0000 </r>
       <r>   13.8359    0.0000 </r>
       <r>   14.9131    0.0000 </r>
      </set>
      <set comment="kpoint 46">
       <r>    4.6679    1.0000 </r>
       <r>    7.6207    1.0285 </r>
       <r>    9.3095    0.0000 </r>
       <r>   13.9745    0.0000 </r>
       <r>   15.4242    0.0000 </r>
      </set>
      <set comment="kpoint 47">
       <r>    5.9286    1.0000 </r>
       <r>    6.9650    1.0000 </r>
       <r>    7.5312    0.9985 </r>
       <r>   14.3876    0.0000 </r>
       <r>   15.9966    0.0000 </r>
      </set>
      <set comment="kpoint 48">
       <r>    4.2658    1.0000 </r>
       <r>    7.2305    0.9999 </r>
       <r>   13.2743    0.0000 </r>
       <r>   13.6079    0.0000 </r>
       <r>   13.6079    0.0000 </r>
      </set>
      <set comment="kpoint 49">
       <r>    5.1430    1.0000 </r>
       <r>    6.4621    1.0000 </r>
       <r>   11.3723    0.0000 </r>
       <r>   13.6540    0.0000 </r>
       <r>   14.7110    0.0000 </r>
      </set>
      <set comment="kpoint 50">
       <r>   -2.1042    1.0000 </r>
       <r>   14.9946    0.0000 </r>
       <r>   16.1137    0.0000 </r>
       <r>   19.9789    0.0000 </r>
       <r>   21.1274    0.0000 </r>
      </set>
      <set comment="kpoint 51">
       <r>   -1.3073    1.0000 </r>
       <r>   12.4216    0.0000 </r>
       <r>   15.2427    0.0000 </r>
       <r>   19.5022    0.0000 </r>
       <r>   20.1291    0.0000 </r>
      </set>
      <set comment="kpoint 52">
       <r>   -0.1993    1.0000 </r>
       <r>    9.7028    0.0000 </r>
       <r>   14.9638    0.0000 </r>
       <r>   18.0601    0.0000 </r>
       <r>   20.0486    0.0000 </r>
      </set>
      <set comment="kpoint 53">
       <r>    1.2126    1.0000 </r>
       <r>    7.1862    1.0000 </r>
       <r>   14.9978    0.0000 </r>
       <r>   16.8845    0.0000 </r>
       <r>   20.1511    0.0000 </r>
      </set>
      <set comment="kpoint 54">
       <r>    2.9162    1.0000 </r>
       <r>    4.9251    1.0000 </r>
       <r>   15.3047    0.0000 </r>
       <r>   16.0065    0.0000 </r>
       <r>   20.4896    0.0000 </r>
      </set>
      <set comment="kpoint 55">
       <r>   -1.0427    1.0000 </r>
       <r>   13.4272    0.0000 </r>
       <r>   14.6432    0.0000 </r>
       <r>   17.3762    0.0000 </r>
       <r>   18.5294    0.0000 </r>
      </set>
      <set comment="kpoint 56">
       <r>   -0.0419    1.0000 </r>
       <r>   11.0437    0.0000 </r>
       <r>   13.9124    0.0000 </r>
       <r>   15.8154    0.0000 </r>
       <r>   18.9141    0.0000 </r>
      </set>
      <set comment="kpoint 57">
       <r>    1.2637    1.0000 </r>
       <r>    8.5072    0.0002 </r>
       <r>   13.7732    0.0000 </r>
       <r>   14.5577    0.0000 </r>
       <r>   19.0478    0.0000 </r>
      </set>
      <set comment="kpoint 58">
       <r>    2.8637    1.0000 </r>
       <r>    6.1791    1.0000 </r>
       <r>   13.4004    0.0000 </r>
       <r>   14.1426    0.0000 </r>
       <r>   19.3542    0.0000 </r>
      </set>
      <set comment="kpoint 59">
       <r>    4.0741    1.0000 </r>
       <r>    4.7822    1.0000 </r>
       <r>   12.7240    0.0000 </r>
       <r>   14.6214    0.0000 </r>
       <r>   19.9111    0.0000 </r>
      </set>
      <set comment="kpoint 60">
       <r>    2.2999    1.0000 </r>
       <r>    6.9121    1.0000 </r>
       <r>   12.3176    0.0000 </r>
       <r>   15.4257    0.0000 </r>
       <r>   20.7245    0.0000 </r>
      </set>
      <set comment="kpoint 61">
       <r>    0.7956    1.0000 </r>
       <r>    9.2725    0.0000 </r>
       <r>   12.2544    0.0000 </r>
       <r>   16.5178    0.0000 </r>
       <r>   21.7220    0.0000 </r>
      </set>
      <set comment="kpoint 62">
       <r>   -0.4097    1.0000 </r>
       <r>   11.4519    0.0000 </r>
       <r>   12.9078    0.0000 </r>
       <r>   17.8839    0.0000 </r>
       <r>   21.5797    0.0000 </r>
      </set>
      <set comment="kpoint 63">
       <r>    0.4290    1.0000 </r>
       <r>   12.2446    0.0000 </r>
       <r>   13.3565    0.0000 </r>
       <r>   13.8895    0.0000 </r>
       <r>   17.3834    0.0000 </r>
      </set>
      <set comment="kpoint 64">
       <r>    1.6251    1.0000 </r>
       <r>   10.0478    0.0000 </r>
       <r>   12.2223    0.0000 </r>
       <r>   13.0726    0.0000 </r>
       <r>   17.9752    0.0000 </r>
      </set>
      <set comment="kpoint 65">
       <r>    3.1147    1.0000 </r>
       <r>    7.7030    1.0497 </r>
       <r>   11.1537    0.0000 </r>
       <r>   13.1098    0.0000 </r>
       <r>   18.3108    0.0000 </r>
      </set>
      <set comment="kpoint 66">
       <r>    4.8597    1.0000 </r>
       <r>    5.5906    1.0000 </r>
       <r>   10.3492    0.0000 </r>
       <r>   13.5180    0.0000 </r>
       <r>   18.8153    0.0000 </r>
      </set>
      <set comment="kpoint 67">
       <r>    3.6828    1.0000 </r>
       <r>    6.8848    1.0000 </r>
       <r>    9.8930    0.0000 </r>
       <r>   14.2318    0.0000 </r>
       <r>   19.5685    0.0000 </r>
      </set>
      <set comment="kpoint 68">
       <r>    2.0933    1.0000 </r>
       <r>    8.6868    0.0000 </r>
       <r>   10.1903    0.0000 </r>
       <r>   15.2356    0.0000 </r>
       <r>   20.5736    0.0000 </r>
      </set>
      <set comment="kpoint 69">
       <r>    2.2923    1.0000 </r>
       <r>   10.3351    0.0000 </r>
       <r>   11.4538    0.0000 </r>
       <r>   12.8169    0.0000 </r>
       <r>   16.6092    0.0000 </r>
      </set>
      <set comment="kpoint 70">
       <r>    3.6616    1.0000 </r>
       <r>    9.0462    0.0000 </r>
       <r>    9.5469    0.0000 </r>
       <r>   12.4351    0.0000 </r>
       <r>   17.3986    0.0000 </r>
      </set>
      <set comment="kpoint 71">
       <r>    5.2672    1.0000 </r>
       <r>    7.2648    0.9998 </r>
       <r>    8.3164    0.0043 </r>
       <r>   12.7103    0.0000 </r>
       <r>   17.9316    0.0000 </r>
      </set>
      <set comment="kpoint 72">
       <r>    5.3444    1.0000 </r>
       <r>    6.7154    1.0000 </r>
       <r>    8.1746   -0.0130 </r>
       <r>   13.3218    0.0000 </r>
       <r>   18.6302    0.0000 </r>
      </set>
      <set comment="kpoint 73">
       <r>    4.4670    1.0000 </r>
       <r>    7.4313    0.9961 </r>
       <r>   11.0578    0.0000 </r>
       <r>   12.4245    0.0000 </r>
       <r>   16.2204    0.0000 </r>
      </set>
      <set comment="kpoint 74">
       <r>    5.5356    1.0000 </r>
       <r>    6.8682    1.0000 </r>
       <r>    9.2874    0.0000 </r>
       <r>   12.2367    0.0000 </r>
       <r>   17.2048    0.0000 </r>
      </set>
      <set comment="kpoint 75">
       <r>    1.0555    1.0000 </r>
       <r>   10.2671    0.0000 </r>
       <r>   11.7278    0.0000 </r>
       <r>   14.3365    0.0000 </r>
       <r>   20.5144    0.0000 </r>
      </set>
      <set comment="kpoint 76">
       <r>    2.4524    1.0000 </r>
       <r>    8.2767    0.0049 </r>
       <r>   11.2464    0.0000 </r>
       <r>   13.1395    0.0000 </r>
       <r>   21.1947    0.0000 </r>
      </set>
      <set comment="kpoint 77">
       <r>    4.1330    1.0000 </r>
       <r>    6.1100    1.0000 </r>
       <r>   11.4438    0.0000 </r>
       <r>   12.2848    0.0000 </r>
       <r>   21.6123    0.0000 </r>
      </set>
      <set comment="kpoint 78">
       <r>    2.9097    1.0000 </r>
       <r>    9.4770    0.0000 </r>
       <r>   10.6236    0.0000 </r>
       <r>   11.3439    0.0000 </r>
       <r>   19.7608    0.0000 </r>
      </set>
      <set comment="kpoint 79">
       <r>    4.4735    1.0000 </r>
       <r>    7.6721    1.0496 </r>
       <r>    9.8510    0.0000 </r>
       <r>   10.8357    0.0000 </r>
       <r>   20.6583    0.0000 </r>
      </set>
      <set comment="kpoint 80">
       <r>    5.6641    1.0000 </r>
       <r>    6.3020    1.0000 </r>
       <r>    9.2597    0.0000 </r>
       <r>   11.2234    0.0000 </r>
       <r>   21.3146    0.0000 </r>
      </set>
      <set comment="kpoint 81">
       <r>    3.9321    1.0000 </r>
       <r>    7.8977    0.4085 </r>
       <r>    9.3618    0.0000 </r>
       <r>   12.0218    0.0000 </r>
       <r>   22.1204    0.0000 </r>
      </set>
      <set comment="kpoint 82">
       <r>    5.0693    1.0000 </r>
       <r>    8.0173   -0.0169 </r>
       <r>    9.0820    0.0000 </r>
       <r>   10.6578    0.0000 </r>
       <r>   19.3781    0.0000 </r>
      </set>
      <set comment="kpoint 83">
       <r>    6.3219    1.0000 </r>
       <r>    7.3397    0.9990 </r>
       <r>    7.8434    0.6894 </r>
       <r>   10.5617    0.0000 </r>
       <r>   20.4742    0.0000 </r>
      </set>
      <set comment="kpoint 84">
       <r>    6.0656    1.0000 </r>
       <r>    7.5034    0.9958 </r>
       <r>    8.6376    0.0000 </r>
       <r>    9.4807    0.0000 </r>
       <r>   22.9019    0.0000 </r>
      </set>
     </set>
     <set comment="spin 2">
      <set comment="kpoint 1">
       <r>   -3.1738    1.0000 </r>
       <r>   20.5726    0.0000 </r>
       <r>   20.5726    0.0000 </r>
       <r>   20.5738    0.0000 </r>
       <r>   22.0765    0.0000 </r>
      </set>
      <set comment="kpoint 2">
       <r>   -3.0129    1.0000 </r>
       <r>   18.2227    0.0000 </r>
       <r>   20.0674    0.0000 </r>
       <r>   20.0674    0.0000 </r>
       <r>   22.7380    0.0000 </r>
      </set>
      <set comment="kpoint 3">
       <r>   -2.5311    1.0000 </r>
       <r>   15.1175    0.0000 </r>
       <r>   19.4026    0.0000 </r>
       <r>   19.4026    0.0000 </r>
       <r>   22.6041    0.0000 </r>
      </set>
      <set comment="kpoint 4">
       <r>   -1.7318    1.0000 </r>
       <r>   12.1228    0.0000 </r>
       <r>   18.9446    0.0000 </r>
       <r>   18.9446    0.0000 </r>
       <r>   22.3710    0.0000 </r>
      </set>
      <set comment="kpoint 5">
       <r>   -0.6203    1.0000 </r>
       <r>    9.3368    0.0000 </r>
       <r>   18.7401    0.0000 </r>
       <r>   18.7401    0.0000 </r>
       <r>   21.7244    0.0000 </r>
      </set>
      <set comment="kpoint 6">
       <r>    0.7961    1.0000 </r>
       <r>    6.7954    1.0000 </r>
       <r>   18.8003    0.0000 </r>
       <r>   18.8004    0.0000 </r>
       <r>   20.5965    0.0000 </r>
      </set>
      <set comment="kpoint 7">
       <r>    2.5064    1.0000 </r>
       <r>    4.5208    1.0000 </r>
       <r>   19.1292    0.0000 </r>
       <r>   19.1306    0.0000 </r>
       <r>   19.7292    0.0000 </r>
      </set>
      <set comment="kpoint 8">
       <r>   -2.9592    1.0000 </r>
       <r>   19.0206    0.0000 </r>
       <r>   19.0206    0.0000 </r>
       <r>   19.3126    0.0000 </r>
       <r>   21.5832    0.0000 </r>
      </set>
      <set comment="kpoint 9">
       <r>   -2.5845    1.0000 </r>
       <r>   16.2202    0.0000 </r>
       <r>   18.1901    0.0000 </r>
       <r>   19.4095    0.0000 </r>
       <r>   21.9041    0.0000 </r>
      </set>
      <set comment="kpoint 10">
       <r>   -1.8913    1.0000 </r>
       <r>   13.2092    0.0000 </r>
       <r>   17.6173    0.0000 </r>
       <r>   19.0852    0.0000 </r>
       <r>   21.3008    0.0000 </r>
      </set>
      <set comment="kpoint 11">
       <r>   -0.8842    1.0000 </r>
       <r>   10.3625    0.0000 </r>
       <r>   17.3116    0.0000 </r>
       <r>   18.8422    0.0000 </r>
       <r>   19.8167    0.0000 </r>
      </set>
      <set comment="kpoint 12">
       <r>    0.4302    1.0000 </r>
       <r>    7.7439    1.0159 </r>
       <r>   17.2760    0.0000 </r>
       <r>   18.5338    0.0000 </r>
       <r>   18.8681    0.0000 </r>
      </set>
      <set comment="kpoint 13">
       <r>    2.0426    1.0000 </r>
       <r>    5.3819    1.0000 </r>
       <r>   17.5123    0.0000 </r>
       <r>   17.5662    0.0000 </r>
       <r>   19.1157    0.0000 </r>
      </set>
      <set comment="kpoint 14">
       <r>    3.2657    1.0000 </r>
       <r>    3.9708    1.0000 </r>
       <r>   16.8595    0.0000 </r>
       <r>   18.0215    0.0000 </r>
       <r>   19.6559    0.0000 </r>
      </set>
      <set comment="kpoint 15">
       <r>    1.4729    1.0000 </r>
       <r>    6.1385    1.0000 </r>
       <r>   16.4322    0.0000 </r>
       <r>   18.8021    0.0000 </r>
       <r>   20.4729    0.0000 </r>
      </set>
      <set comment="kpoint 16">
       <r>   -0.0416    1.0000 </r>
       <r>    8.5871    0.0000 </r>
       <r>   16.2871    0.0000 </r>
       <r>   19.8378    0.0000 </r>
       <r>   20.4710    0.0000 </r>
      </set>
      <set comment="kpoint 17">
       <r>   -1.2544    1.0000 </r>
       <r>   11.2807    0.0000 </r>
       <r>   16.4264    0.0000 </r>
       <r>   20.5154    0.0000 </r>
       <r>   21.1979    0.0000 </r>
      </set>
      <set comment="kpoint 18">
       <r>   -2.1575    1.0000 </r>
       <r>   14.1697    0.0000 </r>
       <r>   16.8617    0.0000 </r>
       <r>   20.8435    0.0000 </r>
       <r>   22.5591    0.0000 </r>
      </set>
      <set comment="kpoint 19">
       <r>   -2.7450    1.0000 </r>
       <r>   16.9278    0.0000 </r>
       <r>   17.8195    0.0000 </r>
       <r>   20.9897    0.0000 </r>
       <r>   22.3266    0.0000 </r>
      </set>
      <set comment="kpoint 20">
       <r>   -2.3175    1.0000 </r>
       <r>   17.2424    0.0000 </r>
       <r>   17.2424    0.0000 </r>
       <r>   17.4245    0.0000 </r>
       <r>   20.4780    0.0000 </r>
      </set>
      <set comment="kpoint 21">
       <r>   -1.7317    1.0000 </r>
       <r>   14.4966    0.0000 </r>
       <r>   16.5661    0.0000 </r>
       <r>   17.8374    0.0000 </r>
       <r>   19.1974    0.0000 </r>
      </set>
      <set comment="kpoint 22">
       <r>   -0.8314    1.0000 </r>
       <r>   11.6456    0.0000 </r>
       <r>   16.1626    0.0000 </r>
       <r>   17.4605    0.0000 </r>
       <r>   17.8454    0.0000 </r>
      </set>
      <set comment="kpoint 23">
       <r>    0.3775    1.0000 </r>
       <r>    8.9729    0.0000 </r>
       <r>   16.0322    0.0000 </r>
       <r>   16.1397    0.0000 </r>
       <r>   17.7475    0.0000 </r>
      </set>
      <set comment="kpoint 24">
       <r>    1.8865    1.0000 </r>
       <r>    6.5372    1.0000 </r>
       <r>   15.0433    0.0000 </r>
       <r>   16.1753    0.0000 </r>
       <r>   17.9393    0.0000 </r>
      </set>
      <set comment="kpoint 25">
       <r>    3.6690    1.0000 </r>
       <r>    4.3810    1.0000 </r>
       <r>   14.2282    0.0000 </r>
       <r>   16.5924    0.0000 </r>
       <r>   18.4122    0.0000 </r>
      </set>
      <set comment="kpoint 26">
       <r>    2.4551    1.0000 </r>
       <r>    5.7773    1.0000 </r>
       <r>   13.7045    0.0000 </r>
       <r>   17.2837    0.0000 </r>
       <r>   19.1687    0.0000 </r>
      </set>
      <set comment="kpoint 27">
       <r>    0.8480    1.0000 </r>
       <r>    8.1142   -0.0405 </r>
       <r>   13.4834    0.0000 </r>
       <r>   18.2473    0.0000 </r>
       <r>   20.1991    0.0000 </r>
      </set>
      <set comment="kpoint 28">
       <r>   -0.4623    1.0000 </r>
       <r>   10.6584    0.0000 </r>
       <r>   13.6022    0.0000 </r>
       <r>   19.4750    0.0000 </r>
       <r>   21.4795    0.0000 </r>
      </set>
      <set comment="kpoint 29">
       <r>   -1.4663    1.0000 </r>
       <r>   13.0297    0.0000 </r>
       <r>   14.4067    0.0000 </r>
       <r>   20.9343    0.0000 </r>
       <r>   22.2366    0.0000 </r>
      </set>
      <set comment="kpoint 30">
       <r>   -1.2544    1.0000 </r>
       <r>   15.7915    0.0000 </r>
       <r>   15.7915    0.0000 </r>
       <r>   15.7922    0.0000 </r>
       <r>   17.1647    0.0000 </r>
      </set>
      <set comment="kpoint 31">
       <r>   -0.4625    1.0000 </r>
       <r>   13.1299    0.0000 </r>
       <r>   15.2925    0.0000 </r>
       <r>   15.3849    0.0000 </r>
       <r>   16.5188    0.0000 </r>
      </set>
      <set comment="kpoint 32">
       <r>    0.6381    1.0000 </r>
       <r>   10.4578    0.0000 </r>
       <r>   13.8958    0.0000 </r>
       <r>   15.0682    0.0000 </r>
       <r>   16.6356    0.0000 </r>
      </set>
      <set comment="kpoint 33">
       <r>    2.0394    1.0000 </r>
       <r>    7.9715    0.0874 </r>
       <r>   12.6838    0.0000 </r>
       <r>   15.1180    0.0000 </r>
       <r>   16.7961    0.0000 </r>
      </set>
      <set comment="kpoint 34">
       <r>    3.7258    1.0000 </r>
       <r>    5.7317    1.0000 </r>
       <r>   11.7631    0.0000 </r>
       <r>   15.4423    0.0000 </r>
       <r>   17.1987    0.0000 </r>
      </set>
      <set comment="kpoint 35">
       <r>    3.7334    1.0000 </r>
       <r>    5.7082    1.0000 </r>
       <r>   11.1500    0.0000 </r>
       <r>   16.0413    0.0000 </r>
       <r>   17.8811    0.0000 </r>
      </set>
      <set comment="kpoint 36">
       <r>    2.0422    1.0000 </r>
       <r>    7.8818    0.4917 </r>
       <r>   10.8923    0.0000 </r>
       <r>   16.9153    0.0000 </r>
       <r>   18.8425    0.0000 </r>
      </set>
      <set comment="kpoint 37">
       <r>    0.6391    1.0000 </r>
       <r>    9.8714    0.0000 </r>
       <r>   11.3815    0.0000 </r>
       <r>   18.0625    0.0000 </r>
       <r>   20.0615    0.0000 </r>
      </set>
      <set comment="kpoint 38">
       <r>    0.2196    1.0000 </r>
       <r>   13.4949    0.0000 </r>
       <r>   14.5400    0.0000 </r>
       <r>   14.6995    0.0000 </r>
       <r>   14.6995    0.0000 </r>
      </set>
      <set comment="kpoint 39">
       <r>    1.2096    1.0000 </r>
       <r>   11.8238    0.0000 </r>
       <r>   12.2114    0.0000 </r>
       <r>   14.3819    0.0000 </r>
       <r>   15.5170    0.0000 </r>
      </set>
      <set comment="kpoint 40">
       <r>    2.4984    1.0000 </r>
       <r>    9.6324    0.0000 </r>
       <r>   10.6031    0.0000 </r>
       <r>   14.3388    0.0000 </r>
       <r>   15.8324    0.0000 </r>
      </set>
      <set comment="kpoint 41">
       <r>    4.0677    1.0000 </r>
       <r>    7.3597    0.9985 </r>
       <r>    9.5669    0.0000 </r>
       <r>   14.5701    0.0000 </r>
       <r>   16.1990    0.0000 </r>
      </set>
      <set comment="kpoint 42">
       <r>    5.2823    1.0000 </r>
       <r>    5.9054    1.0000 </r>
       <r>    8.8964    0.0000 </r>
       <r>   15.0762    0.0000 </r>
       <r>   16.8094    0.0000 </r>
      </set>
      <set comment="kpoint 43">
       <r>    3.5315    1.0000 </r>
       <r>    7.5033    0.9958 </r>
       <r>    8.9889    0.0000 </r>
       <r>   15.8578    0.0000 </r>
       <r>   17.6947    0.0000 </r>
      </set>
      <set comment="kpoint 44">
       <r>    2.0859    1.0000 </r>
       <r>   10.1516    0.0000 </r>
       <r>   13.6973    0.0000 </r>
       <r>   13.9715    0.0000 </r>
       <r>   13.9715    0.0000 </r>
      </set>
      <set comment="kpoint 45">
       <r>    3.2535    1.0000 </r>
       <r>    8.7200    0.0000 </r>
       <r>   11.5719    0.0000 </r>
       <r>   13.8359    0.0000 </r>
       <r>   14.9131    0.0000 </r>
      </set>
      <set comment="kpoint 46">
       <r>    4.6679    1.0000 </r>
       <r>    7.6207    1.0285 </r>
       <r>    9.3095    0.0000 </r>
       <r>   13.9745    0.0000 </r>
       <r>   15.4242    0.0000 </r>
      </set>
      <set comment="kpoint 47">
       <r>    5.9286    1.0000 </r>
       <r>    6.9650    1.0000 </r>
       <r>    7.5312    0.9985 </r>
       <r>   14.3876    0.0000 </r>
       <r>   15.9966    0.0000 </r>
      </set>
      <set comment="kpoint 48">
       <r>    4.2658    1.0000 </r>
       <r>    7.2305    0.9999 </r>
       <r>   13.2743    0.0000 </r>
       <r>   13.6079    0.0000 </r>
       <r>   13.6079    0.0000 </r>
      </set>
      <set comment="kpoint 49">
       <r>    5.1430    1.0000 </r>
       <r>    6.4621    1.0000 </r>
       <r>   11.3723    0.0000 </r>
       <r>   13.6540    0.0000 </r>
       <r>   14.7110    0.0000 </r>
      </set>
      <set comment="kpoint 50">
       <r>   -2.1042    1.0000 </r>
       <r>   14.9946    0.0000 </r>
       <r>   16.1137    0.0000 </r>
       <r>   19.9789    0.0000 </r>
       <r>   21.1280    0.0000 </r>
      </set>
      <set comment="kpoint 51">
       <r>   -1.3073    1.0000 </r>
       <r>   12.4216    0.0000 </r>
       <r>   15.2427    0.0000 </r>
       <r>   19.5022    0.0000 </r>
       <r>   20.1291    0.0000 </r>
      </set>
      <set comment="kpoint 52">
       <r>   -0.1993    1.0000 </r>
       <r>    9.7028    0.0000 </r>
       <r>   14.9638    0.0000 </r>
       <r>   18.0601    0.0000 </r>
       <r>   20.0486    0.0000 </r>
      </set>
      <set comment="kpoint 53">
       <r>    1.2126    1.0000 </r>
       <r>    7.1862    1.0000 </r>
       <r>   14.9978    0.0000 </r>
       <r>   16.8845    0.0000 </r>
       <r>   20.1512    0.0000 </r>
      </set>
      <set comment="kpoint 54">
       <r>    2.9162    1.0000 </r>
       <r>    4.9251    1.0000 </r>
       <r>   15.3047    0.0000 </r>
       <r>   16.0065    0.0000 </r>
       <r>   20.4900    0.0000 </r>
      </set>
      <set comment="kpoint 55">
       <r>   -1.0427    1.0000 </r>
       <r>   13.4272    0.0000 </r>
       <r>   14.6432    0.0000 </r>
       <r>   17.3762    0.0000 </r>
       <r>   18.5294    0.0000 </r>
      </set>
      <set comment="kpoint 56">
       <r>   -0.0419    1.0000 </r>
       <r>   11.0437    0.0000 </r>
       <r>   13.9124    0.0000 </r>
       <r>   15.8154    0.0000 </r>
       <r>   18.9141    0.0000 </r>
      </set>
      <set comment="kpoint 57">
       <r>    1.2637    1.0000 </r>
       <r>    8.5072    0.0002 </r>
       <r>   13.7732    0.0000 </r>
       <r>   14.5577    0.0000 </r>
       <r>   19.0478    0.0000 </r>
      </set>
      <set comment="kpoint 58">
       <r>    2.8637    1.0000 </r>
       <r>    6.1791    1.0000 </r>
       <r>   13.4004    0.0000 </r>
       <r>   14.1426    0.0000 </r>
       <r>   19.3542    0.0000 </r>
      </set>
      <set comment="kpoint 59">
       <r>    4.0741    1.0000 </r>
       <r>    4.7822    1.0000 </r>
       <r>   12.7240    0.0000 </r>
       <r>   14.6214    0.0000 </r>
       <r>   19.9111    0.0000 </r>
      </set>
      <set comment="kpoint 60">
       <r>    2.2999    1.0000 </r>
       <r>    6.9121    1.0000 </r>
       <r>   12.3176    0.0000 </r>
       <r>   15.4257    0.0000 </r>
       <r>   20.7244    0.0000 </r>
      </set>
      <set comment="kpoint 61">
       <r>    0.7956    1.0000 </r>
       <r>    9.2725    0.0000 </r>
       <r>   12.2544    0.0000 </r>
       <r>   16.5178    0.0000 </r>
       <r>   21.7438    0.0000 </r>
      </set>
      <set comment="kpoint 62">
       <r>   -0.4097    1.0000 </r>
       <r>   11.4519    0.0000 </r>
       <r>   12.9078    0.0000 </r>
       <r>   17.8839    0.0000 </r>
       <r>   21.5797    0.0000 </r>
      </set>
      <set comment="kpoint 63">
       <r>    0.4290    1.0000 </r>
       <r>   12.2446    0.0000 </r>
       <r>   13.3565    0.0000 </r>
       <r>   13.8895    0.0000 </r>
       <r>   17.3834    0.0000 </r>
      </set>
      <set comment="kpoint 64">
       <r>    1.6251    1.0000 </r>
       <r>   10.0478    0.0000 </r>
       <r>   12.2223    0.0000 </r>
       <r>   13.0726    0.0000 </r>
       <r>   17.9752    0.0000 </r>
      </set>
      <set comment="kpoint 65">
       <r>    3.1147    1.0000 </r>
       <r>    7.7030    1.0497 </r>
       <r>   11.1537    0.0000 </r>
       <r>   13.1098    0.0000 </r>
       <r>   18.3108    0.0000 </r>
      </set>
      <set comment="kpoint 66">
       <r>    4.8597    1.0000 </r>
       <r>    5.5906    1.0000 </r>
       <r>   10.3492    0.0000 </r>
       <r>   13.5180    0.0000 </r>
       <r>   18.8153    0.0000 </r>
      </set>
      <set comment="kpoint 67">
       <r>    3.6828    1.0000 </r>
       <r>    6.8848    1.0000 </r>
       <r>    9.8930    0.0000 </r>
       <r>   14.2318    0.0000 </r>
       <r>   19.5685    0.0000 </r>
      </set>
      <set comment="kpoint 68">
       <r>    2.0933    1.0000 </r>
       <r>    8.6868    0.0000 </r>
       <r>   10.1903    0.0000 </r>
       <r>   15.2356    0.0000 </r>
       <r>   20.5736    0.0000 </r>
      </set>
      <set comment="kpoint 69">
       <r>    2.2923    1.0000 </r>
       <r>   10.3351    0.0000 </r>
       <r>   11.4538    0.0000 </r>
       <r>   12.8169    0.0000 </r>
       <r>   16.6092    0.0000 </r>
      </set>
      <set comment="kpoint 70">
       <r>    3.6616    1.0000 </r>
       <r>    9.0462    0.0000 </r>
       <r>    9.5469    0.0000 </r>
       <r>   12.4351    0.0000 </r>
       <r>   17.3986    0.0000 </r>
      </set>
      <set comment="kpoint 71">
       <r>    5.2672    1.0000 </r>
       <r>    7.2648    0.9998 </r>
       <r>    8.3164    0.0043 </r>
       <r>   12.7103    0.0000 </r>
       <r>   17.9316    0.0000 </r>
      </set>
      <set comment="kpoint 72">
       <r>    5.3444    1.0000 </r>
       <r>    6.7154    1.0000 </r>
       <r>    8.1746   -0.0130 </r>
       <r>   13.3218    0.0000 </r>
       <r>   18.6302    0.0000 </r>
      </set>
      <set comment="kpoint 73">
       <r>    4.4670    1.0000 </r>
       <r>    7.4313    0.9961 </r>
       <r>   11.0578    0.0000 </r>
       <r>   12.4245    0.0000 </r>
       <r>   16.2204    0.0000 </r>
      </set>
      <set comment="kpoint 74">
       <r>    5.5356    1.0000 </r>
       <r>    6.8682    1.0000 </r>
       <r>    9.2874    0.0000 </r>
       <r>   12.2367    0.0000 </r>
       <r>   17.2048    0.0000 </r>
      </set>
      <set comment="kpoint 75">
       <r>    1.0555    1.0000 </r>
       <r>   10.2671    0.0000 </r>
       <r>   11.7278    0.0000 </r>
       <r>   14.3365    0.0000 </r>
       <r>   20.5144    0.0000 </r>
      </set>
      <set comment="kpoint 76">
       <r>    2.4524    1.0000 </r>
       <r>    8.2767    0.0049 </r>
       <r>   11.2464    0.0000 </r>
       <r>   13.1395    0.0000 </r>
       <r>   21.1947    0.0000 </r>
      </set>
      <set comment="kpoint 77">
       <r>    4.1330    1.0000 </r>
       <r>    6.1100    1.0000 </r>
       <r>   11.4438    0.0000 </r>
       <r>   12.2848    0.0000 </r>
       <r>   21.6125    0.0000 </r>
      </set>
      <set comment="kpoint 78">
       <r>    2.9097    1.0000 </r>
       <r>    9.4770    0.0000 </r>
       <r>   10.6236    0.0000 </r>
       <r>   11.3439    0.0000 </r>
       <r>   19.7608    0.0000 </r>
      </set>
      <set comment="kpoint 79">
       <r>    4.4735    1.0000 </r>
       <r>    7.6721    1.0496 </r>
       <r>    9.8510    0.0000 </r>
       <r>   10.8357    0.0000 </r>
       <r>   20.6583    0.0000 </r>
      </set>
      <set comment="kpoint 80">
       <r>    5.6641    1.0000 </r>
       <r>    6.3020    1.0000 </r>
       <r>    9.2597    0.0000 </r>
       <r>   11.2234    0.0000 </r>
       <r>   21.3146    0.0000 </r>
      </set>
      <set comment="kpoint 81">
       <r>    3.9321    1.0000 </r>
       <r>    7.8977    0.4085 </r>
       <r>    9.3618    0.0000 </r>
       <r>   12.0218    0.0000 </r>
       <r>   22.1204    0.0000 </r>
      </set>
      <set comment="kpoint 82">
       <r>    5.0693    1.0000 </r>
       <r>    8.0173   -0.0169 </r>
       <r>    9.0820    0.0000 </r>
       <r>   10.6578    0.0000 </r>
       <r>   19.3781    0.0000 </r>
      </set>
      <set comment="kpoint 83">
       <r>    6.3219    1.0000 </r>
       <r>    7.3397    0.9990 </r>
       <r>    7.8434    0.6894 </r>
       <r>   10.5617    0.0000 </r>
       <r>   20.4742    0.0000 </r>
      </set>
      <set comment="kpoint 84">
       <r>    6.0656    1.0000 </r>
       <r>    7.5034    0.9958 </r>
       <r>    8.6376    0.0000 </r>
       <r>    9.4807    0.0000 </r>
       <r>   22.9029    0.0000 </r>
      </set>
     </set>
    </set>
   </array>
  </eigenvalues>
  <separator name="orbital magnetization" >
   <v name="MAGDIPOLOUT">      0.00000000      0.00000000      0.00000000</v>
  </separator>
  <dos>
   <i name="efermi">      7.88024430 </i>
   <total>
    <array>
     <dimension dim="1">gridpoints</dimension>
     <dimension dim="2">spin</dimension>
     <field>energy</field>
     <field>total</field>
     <field>integrated</field>
     <set>
      <set comment="spin 1">
       <r>    -5.1738     0.0000     0.0000 </r>
       <r>    -5.0736     0.0000     0.0000 </r>
       <r>    -4.9733     0.0000     0.0000 </r>
       <r>    -4.8731     0.0000     0.0000 </r>
       <r>    -4.7728     0.0000     0.0000 </r>
       <r>    -4.6726     0.0000     0.0000 </r>
       <r>    -4.5723     0.0000     0.0000 </r>
       <r>    -4.4720     0.0000     0.0000 </r>
       <r>    -4.3718     0.0000     0.0000 </r>
       <r>    -4.2715     0.0000     0.0000 </r>
       <r>    -4.1713     0.0000     0.0000 </r>
       <r>    -4.0710     0.0000     0.0000 </r>
       <r>    -3.9708     0.0000     0.0000 </r>
       <r>    -3.8705     0.0000     0.0000 </r>
       <r>    -3.7703     0.0000     0.0000 </r>
       <r>    -3.6700     0.0000     0.0000 </r>
       <r>    -3.5697     0.0000     0.0000 </r>
       <r>    -3.4695     0.0001     0.0000 </r>
       <r>    -3.3692    -0.0001    -0.0000 </r>
       <r>    -3.2690    -0.0009    -0.0001 </r>
       <r>    -3.1687     0.0009    -0.0000 </r>
       <r>    -3.0685     0.0136     0.0014 </r>
       <r>    -2.9682     0.0282     0.0042 </r>
       <r>    -2.8680     0.0235     0.0065 </r>
       <r>    -2.7677     0.0195     0.0085 </r>
       <r>    -2.6674     0.0432     0.0128 </r>
       <r>    -2.5672     0.0730     0.0201 </r>
       <r>    -2.4669     0.0580     0.0259 </r>
       <r>    -2.3667     0.0144     0.0274 </r>
       <r>    -2.2664     0.0167     0.0291 </r>
       <r>    -2.1662     0.0746     0.0365 </r>
       <r>    -2.0659     0.1012     0.0467 </r>
       <r>    -1.9657     0.0651     0.0532 </r>
       <r>    -1.8654     0.0558     0.0588 </r>
       <r>    -1.7651     0.0828     0.0671 </r>
       <r>    -1.6649     0.0750     0.0746 </r>
       <r>    -1.5646     0.0261     0.0772 </r>
       <r>    -1.4644     0.0132     0.0786 </r>
       <r>    -1.3641     0.0868     0.0873 </r>
       <r>    -1.2639     0.1682     0.1041 </r>
       <r>    -1.1636     0.1302     0.1172 </r>
       <r>    -1.0634     0.0546     0.1227 </r>
       <r>    -0.9631     0.0630     0.1290 </r>
       <r>    -0.8628     0.1059     0.1396 </r>
       <r>    -0.7626     0.0898     0.1486 </r>
       <r>    -0.6623     0.0266     0.1513 </r>
       <r>    -0.5621     0.0363     0.1549 </r>
       <r>    -0.4618     0.1258     0.1675 </r>
       <r>    -0.3616     0.1441     0.1820 </r>
       <r>    -0.2613     0.0929     0.1913 </r>
       <r>    -0.1611     0.1208     0.2034 </r>
       <r>    -0.0608     0.1895     0.2224 </r>
       <r>     0.0395     0.1604     0.2385 </r>
       <r>     0.1397     0.0451     0.2430 </r>
       <r>     0.2400    -0.0034     0.2426 </r>
       <r>     0.3402     0.0690     0.2496 </r>
       <r>     0.4405     0.1516     0.2647 </r>
       <r>     0.5407     0.1244     0.2772 </r>
       <r>     0.6410     0.0830     0.2855 </r>
       <r>     0.7412     0.1359     0.2992 </r>
       <r>     0.8415     0.1852     0.3177 </r>
       <r>     0.9418     0.1164     0.3294 </r>
       <r>     1.0420     0.0416     0.3336 </r>
       <r>     1.1423     0.1195     0.3456 </r>
       <r>     1.2425     0.2548     0.3711 </r>
       <r>     1.3428     0.2150     0.3927 </r>
       <r>     1.4430     0.0797     0.4007 </r>
       <r>     1.5433     0.0716     0.4078 </r>
       <r>     1.6435     0.1173     0.4196 </r>
       <r>     1.7438     0.0790     0.4275 </r>
       <r>     1.8441     0.0282     0.4303 </r>
       <r>     1.9443     0.0862     0.4390 </r>
       <r>     2.0446     0.2019     0.4592 </r>
       <r>     2.1448     0.2039     0.4797 </r>
       <r>     2.2451     0.1379     0.4935 </r>
       <r>     2.3453     0.1798     0.5115 </r>
       <r>     2.4456     0.2621     0.5378 </r>
       <r>     2.5458     0.2227     0.5601 </r>
       <r>     2.6461     0.0590     0.5661 </r>
       <r>     2.7464    -0.0044     0.5656 </r>
       <r>     2.8466     0.1413     0.5798 </r>
       <r>     2.9469     0.2595     0.6058 </r>
       <r>     3.0471     0.1872     0.6246 </r>
       <r>     3.1474     0.1290     0.6375 </r>
       <r>     3.2476     0.1464     0.6522 </r>
       <r>     3.3479     0.1005     0.6623 </r>
       <r>     3.4482     0.0076     0.6630 </r>
       <r>     3.5484     0.0400     0.6670 </r>
       <r>     3.6487     0.2566     0.6928 </r>
       <r>     3.7489     0.3613     0.7290 </r>
       <r>     3.8492     0.1890     0.7479 </r>
       <r>     3.9494     0.1005     0.7580 </r>
       <r>     4.0497     0.2312     0.7812 </r>
       <r>     4.1499     0.2820     0.8095 </r>
       <r>     4.2502     0.1400     0.8235 </r>
       <r>     4.3505     0.0698     0.8305 </r>
       <r>     4.4507     0.1693     0.8475 </r>
       <r>     4.5510     0.1922     0.8667 </r>
       <r>     4.6512     0.1051     0.8773 </r>
       <r>     4.7515     0.1292     0.8902 </r>
       <r>     4.8517     0.2470     0.9150 </r>
       <r>     4.9520     0.2525     0.9403 </r>
       <r>     5.0522     0.1363     0.9540 </r>
       <r>     5.1525     0.0848     0.9625 </r>
       <r>     5.2528     0.1706     0.9796 </r>
       <r>     5.3530     0.2315     1.0028 </r>
       <r>     5.4533     0.1597     1.0188 </r>
       <r>     5.5535     0.1543     1.0343 </r>
       <r>     5.6538     0.2777     1.0621 </r>
       <r>     5.7540     0.3014     1.0923 </r>
       <r>     5.8543     0.1761     1.1100 </r>
       <r>     5.9545     0.0875     1.1187 </r>
       <r>     6.0548     0.1551     1.1343 </r>
       <r>     6.1551     0.2911     1.1635 </r>
       <r>     6.2553     0.3088     1.1944 </r>
       <r>     6.3556     0.2124     1.2157 </r>
       <r>     6.4558     0.1149     1.2273 </r>
       <r>     6.5561     0.0666     1.2339 </r>
       <r>     6.6563     0.0461     1.2385 </r>
       <r>     6.7566     0.0856     1.2471 </r>
       <r>     6.8568     0.2320     1.2704 </r>
       <r>     6.9571     0.2889     1.2994 </r>
       <r>     7.0574     0.1413     1.3135 </r>
       <r>     7.1576     0.0905     1.3226 </r>
       <r>     7.2579     0.2166     1.3443 </r>
       <r>     7.3581     0.2679     1.3712 </r>
       <r>     7.4584     0.2099     1.3922 </r>
       <r>     7.5586     0.1905     1.4113 </r>
       <r>     7.6589     0.2665     1.4380 </r>
       <r>     7.7591     0.3117     1.4693 </r>
       <r>     7.8594     0.2597     1.4953 </r>
       <r>     7.9597     0.2091     1.5163 </r>
       <r>     8.0599     0.1647     1.5328 </r>
       <r>     8.1602     0.1512     1.5479 </r>
       <r>     8.2604     0.2100     1.5690 </r>
       <r>     8.3607     0.2190     1.5909 </r>
       <r>     8.4609     0.1525     1.6062 </r>
       <r>     8.5612     0.1670     1.6230 </r>
       <r>     8.6614     0.2146     1.6445 </r>
       <r>     8.7617     0.1599     1.6605 </r>
       <r>     8.8620     0.0892     1.6695 </r>
       <r>     8.9622     0.1450     1.6840 </r>
       <r>     9.0625     0.2128     1.7054 </r>
       <r>     9.1627     0.2073     1.7261 </r>
       <r>     9.2630     0.2907     1.7553 </r>
       <r>     9.3632     0.3529     1.7907 </r>
       <r>     9.4635     0.2834     1.8191 </r>
       <r>     9.5637     0.2686     1.8460 </r>
       <r>     9.6640     0.2558     1.8717 </r>
       <r>     9.7643     0.2092     1.8926 </r>
       <r>     9.8645     0.2349     1.9162 </r>
       <r>     9.9648     0.2393     1.9402 </r>
       <r>    10.0650     0.1617     1.9564 </r>
       <r>    10.1653     0.1190     1.9683 </r>
       <r>    10.2655     0.1833     1.9867 </r>
       <r>    10.3658     0.2691     2.0137 </r>
       <r>    10.4660     0.2353     2.0372 </r>
       <r>    10.5663     0.2048     2.0578 </r>
       <r>    10.6666     0.2386     2.0817 </r>
       <r>    10.7668     0.1981     2.1016 </r>
       <r>    10.8671     0.1457     2.1162 </r>
       <r>    10.9673     0.1448     2.1307 </r>
       <r>    11.0676     0.2179     2.1525 </r>
       <r>    11.1678     0.3575     2.1884 </r>
       <r>    11.2681     0.4212     2.2306 </r>
       <r>    11.3683     0.3772     2.2684 </r>
       <r>    11.4686     0.3159     2.3001 </r>
       <r>    11.5689     0.2222     2.3224 </r>
       <r>    11.6691     0.1562     2.3380 </r>
       <r>    11.7694     0.1668     2.3548 </r>
       <r>    11.8696     0.1335     2.3681 </r>
       <r>    11.9699     0.0457     2.3727 </r>
       <r>    12.0701     0.0280     2.3755 </r>
       <r>    12.1704     0.2190     2.3975 </r>
       <r>    12.2706     0.5351     2.4511 </r>
       <r>    12.3709     0.5992     2.5112 </r>
       <r>    12.4712     0.3667     2.5480 </r>
       <r>    12.5714     0.1363     2.5616 </r>
       <r>    12.6717     0.1625     2.5779 </r>
       <r>    12.7719     0.2825     2.6063 </r>
       <r>    12.8722     0.1954     2.6258 </r>
       <r>    12.9724     0.1124     2.6371 </r>
       <r>    13.0727     0.2732     2.6645 </r>
       <r>    13.1729     0.4004     2.7047 </r>
       <r>    13.2732     0.2917     2.7339 </r>
       <r>    13.3735     0.2508     2.7590 </r>
       <r>    13.4737     0.3313     2.7923 </r>
       <r>    13.5740     0.3078     2.8231 </r>
       <r>    13.6742     0.2246     2.8456 </r>
       <r>    13.7745     0.2413     2.8698 </r>
       <r>    13.8747     0.3348     2.9034 </r>
       <r>    13.9750     0.3164     2.9351 </r>
       <r>    14.0752     0.2014     2.9553 </r>
       <r>    14.1755     0.2322     2.9786 </r>
       <r>    14.2758     0.3240     3.0111 </r>
       <r>    14.3760     0.2926     3.0404 </r>
       <r>    14.4763     0.2588     3.0663 </r>
       <r>    14.5765     0.3391     3.1003 </r>
       <r>    14.6768     0.3352     3.1340 </r>
       <r>    14.7770     0.1391     3.1479 </r>
       <r>    14.8773     0.0827     3.1562 </r>
       <r>    14.9775     0.3099     3.1873 </r>
       <r>    15.0778     0.4452     3.2319 </r>
       <r>    15.1781     0.3490     3.2669 </r>
       <r>    15.2783     0.3296     3.2999 </r>
       <r>    15.3786     0.4094     3.3410 </r>
       <r>    15.4788     0.3625     3.3773 </r>
       <r>    15.5791     0.1570     3.3930 </r>
       <r>    15.6793     0.0227     3.3953 </r>
       <r>    15.7796     0.1106     3.4064 </r>
       <r>    15.8798     0.2232     3.4288 </r>
       <r>    15.9801     0.2531     3.4542 </r>
       <r>    16.0804     0.3425     3.4885 </r>
       <r>    16.1806     0.4278     3.5314 </r>
       <r>    16.2809     0.3325     3.5647 </r>
       <r>    16.3811     0.1795     3.5827 </r>
       <r>    16.4814     0.2380     3.6066 </r>
       <r>    16.5816     0.3545     3.6421 </r>
       <r>    16.6819     0.2687     3.6690 </r>
       <r>    16.7821     0.2162     3.6907 </r>
       <r>    16.8824     0.3366     3.7245 </r>
       <r>    16.9827     0.2758     3.7521 </r>
       <r>    17.0829     0.0695     3.7591 </r>
       <r>    17.1832     0.0962     3.7687 </r>
       <r>    17.2834     0.3016     3.7990 </r>
       <r>    17.3837     0.4156     3.8406 </r>
       <r>    17.4839     0.3574     3.8765 </r>
       <r>    17.5842     0.2183     3.8984 </r>
       <r>    17.6844     0.1250     3.9109 </r>
       <r>    17.7847     0.1787     3.9288 </r>
       <r>    17.8850     0.3862     3.9675 </r>
       <r>    17.9852     0.5139     4.0190 </r>
       <r>    18.0855     0.3885     4.0580 </r>
       <r>    18.1857     0.2149     4.0795 </r>
       <r>    18.2860     0.1866     4.0982 </r>
       <r>    18.3862     0.1870     4.1170 </r>
       <r>    18.4865     0.1535     4.1324 </r>
       <r>    18.5867     0.1261     4.1450 </r>
       <r>    18.6870     0.1300     4.1581 </r>
       <r>    18.7873     0.2856     4.1867 </r>
       <r>    18.8875     0.4507     4.2319 </r>
       <r>    18.9878     0.4032     4.2723 </r>
       <r>    19.0880     0.3245     4.3048 </r>
       <r>    19.1883     0.2702     4.3319 </r>
       <r>    19.2885     0.2056     4.3525 </r>
       <r>    19.3888     0.2732     4.3799 </r>
       <r>    19.4890     0.3662     4.4166 </r>
       <r>    19.5893     0.3070     4.4474 </r>
       <r>    19.6896     0.1891     4.4664 </r>
       <r>    19.7898     0.1707     4.4835 </r>
       <r>    19.8901     0.2224     4.5058 </r>
       <r>    19.9903     0.2837     4.5342 </r>
       <r>    20.0906     0.3823     4.5725 </r>
       <r>    20.1908     0.3611     4.6087 </r>
[...]
       </set>
      </set>
      <set comment="kpoint 58">
       <set comment="band 1">
        <r>  0.1494  0.0233  0.0787  0.0087  0.0000  0.0000  0.0000  0.0000  0.0000 </r>
       </set>
       <set comment="band 2">
        <r>  0.1193  0.0451  0.0069  0.0834  0.0000  0.0000  0.0000  0.0000  0.0000 </r>
       </set>
       <set comment="band 3">
        <r>  0.0349  0.0424  0.1108  0.0013  0.0000  0.0000  0.0000  0.0000  0.0000 </r>
       </set>
       <set comment="band 4">
        <r>  0.1106  0.0396  0.0467  0.1336  0.0000  0.0000  0.0000  0.0000  0.0000 </r>
       </set>
       <set comment="band 5">
        <r>  0.0619  0.0968  0.0225  0.0282  0.0000  0.0000  0.0000  0.0000  0.0000 </r>
       </set>
      </set>
      <set comment="kpoint 59">
       <set comment="band 1">
        <r>  0.0899  0.0524  0.0175  0.0808  0.0000  0.0000  0.0000  0.0000  0.0000 </r>
       </set>
       <set comment="band 2">
        <r>  0.1794  0.0150  0.0797  0.0024  0.0000  0.0000  0.0000  0.0000  0.0000 </r>
       </set>
       <set comment="band 3">
        <r>  0.0724  0.0373  0.1196  0.0043  0.0000  0.0000  0.0000  0.0000  0.0000 </r>
       </set>
       <set comment="band 4">
        <r>  0.0781  0.0399  0.0131  0.1574  0.0000  0.0000  0.0000  0.0000  0.0000 </r>
       </set>
       <set comment="band 5">
        <r>  0.0585  0.1265  0.0151  0.0161  0.0000  0.0000  0.0000  0.0000  0.0000 </r>
       </set>
      </set>
      <set comment="kpoint 60">
       <set comment="band 1">
        <r>  0.1631  0.0339  0.0038  0.0619  0.0000  0.0000  0.0000  0.0000  0.0000 </r>
       </set>
       <set comment="band 2">
        <r>  0.1000  0.0288  0.1077  0.0119  0.0000  0.0000  0.0000  0.0000  0.0000 </r>
       </set>
       <set comment="band 3">
        <r>  0.0894  0.0491  0.0983  0.0137  0.0000  0.0000  0.0000  0.0000  0.0000 </r>
       </set>
       <set comment="band 4">
        <r>  0.0634  0.0312  0.0047  0.1733  0.0000  0.0000  0.0000  0.0000  0.0000 </r>
       </set>
       <set comment="band 5">
        <r>  0.0473  0.1598  0.0094  0.0096  0.0000  0.0000  0.0000  0.0000  0.0000 </r>
       </set>
      </set>
      <set comment="kpoint 61">
       <set comment="band 1">
        <r>  0.1931  0.0245  0.0010  0.0490  0.0000  0.0000  0.0000  0.0000  0.0000 </r>
       </set>
       <set comment="band 2">
        <r>  0.0520  0.0251  0.1366  0.0114  0.0000  0.0000  0.0000  0.0000  0.0000 </r>
       </set>
       <set comment="band 3">
        <r>  0.1070  0.0728  0.0599  0.0279  0.0000  0.0000  0.0000  0.0000  0.0000 </r>
       </set>
       <set comment="band 4">
        <r>  0.0509  0.0234  0.0011  0.1852  0.0000  0.0000  0.0000  0.0000  0.0000 </r>
       </set>
       <set comment="band 5">
        <r>  0.0268  0.2062  0.0070  0.0093  0.0000  0.0000  0.0000  0.0000  0.0000 </r>
       </set>
      </set>
      <set comment="kpoint 62">
       <set comment="band 1">
        <r>  0.2164  0.0162  0.0000  0.0370  0.0000  0.0000  0.0000  0.0000  0.0000 </r>
       </set>
       <set comment="band 2">
        <r>  0.0000  0.0000  0.1838  0.0000  0.0000  0.0000  0.0000  0.0000  0.0000 </r>
       </set>
       <set comment="band 3">
        <r>  0.1260  0.1199  0.0000  0.0519  0.0000  0.0000  0.0000  0.0000  0.0000 </r>
       </set>
       <set comment="band 4">
        <r>  0.0387  0.0174  0.0000  0.1932  0.0000  0.0000  0.0000  0.0000  0.0000 </r>
       </set>
       <set comment="band 5">
        <r>  0.0000  0.0000  0.0877  0.0000  0.0000  0.0000  0.0000  0.0000  0.0000 </r>
       </set>
      </set>
      <set comment="kpoint 63">
       <set comment="band 1">
        <r>  0.1990  0.0039  0.0655  0.0000  0.0000  0.0000  0.0000  0.0000  0.0000 </r>
       </set>
       <set comment="band 2">
        <r>  0.0000  0.0000  0.0000  0.1738  0.0000  0.0000  0.0000  0.0000  0.0000 </r>
       </set>
       <set comment="band 3">
        <r>  0.0084  0.1600  0.0142  0.0000  0.0000  0.0000  0.0000  0.0000  0.0000 </r>
       </set>
       <set comment="band 4">
        <r>  0.1468  0.0552  0.1639  0.0000  0.0000  0.0000  0.0000  0.0000  0.0000 </r>
       </set>
       <set comment="band 5">
        <r>  0.0000  0.0000  0.0000  0.1440  0.0000  0.0000  0.0000  0.0000  0.0000 </r>
       </set>
      </set>
      <set comment="kpoint 64">
       <set comment="band 1">
        <r>  0.1750  0.0084  0.0813  0.0009  0.0000  0.0000  0.0000  0.0000  0.0000 </r>
       </set>
       <set comment="band 2">
        <r>  0.0385  0.0463  0.0016  0.1271  0.0000  0.0000  0.0000  0.0000  0.0000 </r>
       </set>
       <set comment="band 3">
        <r>  0.0392  0.0288  0.1132  0.0059  0.0000  0.0000  0.0000  0.0000  0.0000 </r>
       </set>
       <set comment="band 4">
        <r>  0.1429  0.1031  0.0508  0.0591  0.0000  0.0000  0.0000  0.0000  0.0000 </r>
       </set>
       <set comment="band 5">
        <r>  0.0411  0.0256  0.0101  0.0964  0.0000  0.0000  0.0000  0.0000  0.0000 </r>
       </set>
      </set>
      <set comment="kpoint 65">
       <set comment="band 1">
        <r>  0.1432  0.0142  0.0988  0.0037  0.0000  0.0000  0.0000  0.0000  0.0000 </r>
       </set>
       <set comment="band 2">
        <r>  0.0819  0.0533  0.0015  0.1027  0.0000  0.0000  0.0000  0.0000  0.0000 </r>
       </set>
       <set comment="band 3">
        <r>  0.0900  0.0177  0.1260  0.0000  0.0000  0.0000  0.0000  0.0000  0.0000 </r>
       </set>
       <set comment="band 4">
        <r>  0.1054  0.0812  0.0148  0.1069  0.0000  0.0000  0.0000  0.0000  0.0000 </r>
       </set>
       <set comment="band 5">
        <r>  0.0679  0.0635  0.0099  0.0554  0.0000  0.0000  0.0000  0.0000  0.0000 </r>
       </set>
      </set>
      <set comment="kpoint 66">
       <set comment="band 1">
        <r>  0.0715  0.0292  0.1190  0.0163  0.0000  0.0000  0.0000  0.0000  0.0000 </r>
       </set>
       <set comment="band 2">
        <r>  0.1537  0.0380  0.0009  0.0772  0.0000  0.0000  0.0000  0.0000  0.0000 </r>
       </set>
       <set comment="band 3">
        <r>  0.1179  0.0249  0.1062  0.0028  0.0000  0.0000  0.0000  0.0000  0.0000 </r>
       </set>
       <set comment="band 4">
        <r>  0.0897  0.0612  0.0052  0.1357  0.0000  0.0000  0.0000  0.0000  0.0000 </r>
       </set>
       <set comment="band 5">
        <r>  0.0737  0.0946  0.0054  0.0320  0.0000  0.0000  0.0000  0.0000  0.0000 </r>
       </set>
      </set>
      <set comment="kpoint 67">
       <set comment="band 1">
        <r>  0.1338  0.0446  0.0011  0.0765  0.0000  0.0000  0.0000  0.0000  0.0000 </r>
       </set>
       <set comment="band 2">
        <r>  0.0733  0.0139  0.1511  0.0043  0.0000  0.0000  0.0000  0.0000  0.0000 </r>
       </set>
       <set comment="band 3">
        <r>  0.1494  0.0415  0.0663  0.0107  0.0000  0.0000  0.0000  0.0000  0.0000 </r>
       </set>
       <set comment="band 4">
        <r>  0.0773  0.0457  0.0012  0.1574  0.0000  0.0000  0.0000  0.0000  0.0000 </r>
       </set>
       <set comment="band 5">
        <r>  0.0692  0.1223  0.0016  0.0173  0.0000  0.0000  0.0000  0.0000  0.0000 </r>
       </set>
      </set>
      <set comment="kpoint 68">
       <set comment="band 1">
        <r>  0.1676  0.0340  0.0000  0.0621  0.0000  0.0000  0.0000  0.0000  0.0000 </r>
       </set>
       <set comment="band 2">
        <r>  0.0000  0.0000  0.2080  0.0000  0.0000  0.0000  0.0000  0.0000  0.0000 </r>
       </set>
       <set comment="band 3">
        <r>  0.1916  0.0758  0.0000  0.0271  0.0000  0.0000  0.0000  0.0000  0.0000 </r>
       </set>
       <set comment="band 4">
        <r>  0.0647  0.0333  0.0000  0.1740  0.0000  0.0000  0.0000  0.0000  0.0000 </r>
       </set>
       <set comment="band 5">
        <r>  0.0568  0.1500  0.0000  0.0087  0.0000  0.0000  0.0000  0.0000  0.0000 </r>
       </set>
      </set>
      <set comment="kpoint 69">
       <set comment="band 1">
        <r>  0.1591  0.0036  0.1011  0.0000  0.0000  0.0000  0.0000  0.0000  0.0000 </r>
       </set>
       <set comment="band 2">
        <r>  0.0835  0.0099  0.1271  0.0000  0.0000  0.0000  0.0000  0.0000  0.0000 </r>
       </set>
       <set comment="band 3">
        <r>  0.0000  0.0000  0.0000  0.1778  0.0000  0.0000  0.0000  0.0000  0.0000 </r>
       </set>
       <set comment="band 4">
        <r>  0.1250  0.2154  0.0151  0.0000  0.0000  0.0000  0.0000  0.0000  0.0000 </r>
       </set>
       <set comment="band 5">
        <r>  0.0000  0.0000  0.0000  0.1564  0.0000  0.0000  0.0000  0.0000  0.0000 </r>
       </set>
      </set>
      <set comment="kpoint 70">
       <set comment="band 1">
        <r>  0.1259  0.0073  0.1239  0.0008  0.0000  0.0000  0.0000  0.0000  0.0000 </r>
       </set>
       <set comment="band 2">
        <r>  0.0494  0.0347  0.0864  0.0240  0.0000  0.0000  0.0000  0.0000  0.0000 </r>
       </set>
       <set comment="band 3">
        <r>  0.1166  0.0214  0.0254  0.1075  0.0000  0.0000  0.0000  0.0000  0.0000 </r>
       </set>
       <set comment="band 4">
        <r>  0.1175  0.1288  0.0060  0.0647  0.0000  0.0000  0.0000  0.0000  0.0000 </r>
       </set>
       <set comment="band 5">
        <r>  0.0450  0.0258  0.0025  0.1037  0.0000  0.0000  0.0000  0.0000  0.0000 </r>
       </set>
      </set>
      <set comment="kpoint 71">
       <set comment="band 1">
        <r>  0.0706  0.0106  0.1599  0.0033  0.0000  0.0000  0.0000  0.0000  0.0000 </r>
       </set>
       <set comment="band 2">
        <r>  0.0475  0.0626  0.0040  0.1046  0.0000  0.0000  0.0000  0.0000  0.0000 </r>
       </set>
       <set comment="band 3">
        <r>  0.2118  0.0083  0.0702  0.0006  0.0000  0.0000  0.0000  0.0000  0.0000 </r>
       </set>
       <set comment="band 4">
        <r>  0.1016  0.0877  0.0013  0.1078  0.0000  0.0000  0.0000  0.0000  0.0000 </r>
       </set>
       <set comment="band 5">
        <r>  0.0730  0.0636  0.0011  0.0589  0.0000  0.0000  0.0000  0.0000  0.0000 </r>
       </set>
      </set>
      <set comment="kpoint 72">
       <set comment="band 1">
        <r>  0.0927  0.0563  0.0000  0.0925  0.0000  0.0000  0.0000  0.0000  0.0000 </r>
       </set>
       <set comment="band 2">
        <r>  0.0000  0.0000  0.2274  0.0000  0.0000  0.0000  0.0000  0.0000  0.0000 </r>
       </set>
       <set comment="band 3">
        <r>  0.2567  0.0345  0.0000  0.0052  0.0000  0.0000  0.0000  0.0000  0.0000 </r>
       </set>
       <set comment="band 4">
        <r>  0.0897  0.0635  0.0000  0.1361  0.0000  0.0000  0.0000  0.0000  0.0000 </r>
       </set>
       <set comment="band 5">
        <r>  0.0772  0.0945  0.0000  0.0332  0.0000  0.0000  0.0000  0.0000  0.0000 </r>
       </set>
      </set>
      <set comment="kpoint 73">
       <set comment="band 1">
        <r>  0.0866  0.0024  0.1642  0.0000  0.0000  0.0000  0.0000  0.0000  0.0000 </r>
       </set>
       <set comment="band 2">
        <r>  0.1639  0.0073  0.0776  0.0000  0.0000  0.0000  0.0000  0.0000  0.0000 </r>
       </set>
       <set comment="band 3">
        <r>  0.0000  0.0000  0.0000  0.1797  0.0000  0.0000  0.0000  0.0000  0.0000 </r>
       </set>
       <set comment="band 4">
        <r>  0.1245  0.2238  0.0014  0.0000  0.0000  0.0000  0.0000  0.0000  0.0000 </r>
       </set>
       <set comment="band 5">
        <r>  0.0000  0.0000  0.0000  0.1626  0.0000  0.0000  0.0000  0.0000  0.0000 </r>
       </set>
      </set>
      <set comment="kpoint 74">
       <set comment="band 1">
        <r>  0.0000  0.0000  0.2399  0.0000  0.0000  0.0000  0.0000  0.0000  0.0000 </r>
       </set>
       <set comment="band 2">
        <r>  0.2268  0.0231  0.0000  0.0035  0.0000  0.0000  0.0000  0.0000  0.0000 </r>
       </set>
       <set comment="band 3">
        <r>  0.0705  0.0393  0.0000  0.1297  0.0000  0.0000  0.0000  0.0000  0.0000 </r>
       </set>
       <set comment="band 4">
        <r>  0.1170  0.1316  0.0000  0.0652  0.0000  0.0000  0.0000  0.0000  0.0000 </r>
       </set>
       <set comment="band 5">
        <r>  0.0462  0.0259  0.0000  0.1060  0.0000  0.0000  0.0000  0.0000  0.0000 </r>
       </set>
      </set>
      <set comment="kpoint 75">
       <set comment="band 1">
        <r>  0.1873  0.0154  0.0643  0.0000  0.0000  0.0000  0.0000  0.0000  0.0000 </r>
       </set>
       <set comment="band 2">
        <r>  0.0000  0.0000  0.0000  0.1930  0.0000  0.0000  0.0000  0.0000  0.0000 </r>
       </set>
       <set comment="band 3">
        <r>  0.1333  0.1348  0.0157  0.0000  0.0000  0.0000  0.0000  0.0000  0.0000 </r>
       </set>
       <set comment="band 4">
        <r>  0.0936  0.0045  0.1782  0.0000  0.0000  0.0000  0.0000  0.0000  0.0000 </r>
       </set>
       <set comment="band 5">
        <r>  0.0000  0.0000  0.0000  0.1175  0.0000  0.0000  0.0000  0.0000  0.0000 </r>
       </set>
      </set>
      <set comment="kpoint 76">
       <set comment="band 1">
        <r>  0.1593  0.0230  0.0793  0.0009  0.0000  0.0000  0.0000  0.0000  0.0000 </r>
       </set>
       <set comment="band 2">
        <r>  0.0574  0.0274  0.0036  0.1422  0.0000  0.0000  0.0000  0.0000  0.0000 </r>
       </set>
       <set comment="band 3">
        <r>  0.0993  0.0840  0.0036  0.0607  0.0000  0.0000  0.0000  0.0000  0.0000 </r>
       </set>
       <set comment="band 4">
        <r>  0.1215  0.0086  0.1630  0.0032  0.0000  0.0000  0.0000  0.0000  0.0000 </r>
       </set>
       <set comment="band 5">
        <r>  0.0202  0.0652  0.0112  0.0767  0.0000  0.0000  0.0000  0.0000  0.0000 </r>
       </set>
      </set>
      <set comment="kpoint 77">
       <set comment="band 1">
        <r>  0.1176  0.0328  0.0964  0.0048  0.0000  0.0000  0.0000  0.0000  0.0000 </r>
       </set>
       <set comment="band 2">
        <r>  0.1149  0.0287  0.0017  0.1100  0.0000  0.0000  0.0000  0.0000  0.0000 </r>
       </set>
       <set comment="band 3">
        <r>  0.0395  0.0694  0.0031  0.0806  0.0000  0.0000  0.0000  0.0000  0.0000 </r>
       </set>
       <set comment="band 4">
        <r>  0.1770  0.0068  0.1356  0.0268  0.0000  0.0000  0.0000  0.0000  0.0000 </r>
       </set>
       <set comment="band 5">
        <r>  0.0160  0.1563  0.0178  0.0489  0.0000  0.0000  0.0000  0.0000  0.0000 </r>
       </set>
      </set>
      <set comment="kpoint 78">
       <set comment="band 1">
        <r>  0.1477  0.0141  0.0993  0.0000  0.0000  0.0000  0.0000  0.0000  0.0000 </r>
       </set>
       <set comment="band 2">
        <r>  0.0000  0.0000  0.0000  0.1993  0.0000  0.0000  0.0000  0.0000  0.0000 </r>
       </set>
       <set comment="band 3">
        <r>  0.0041  0.1122  0.0364  0.0000  0.0000  0.0000  0.0000  0.0000  0.0000 </r>
       </set>
       <set comment="band 4">
        <r>  0.2843  0.0332  0.1086  0.0000  0.0000  0.0000  0.0000  0.0000  0.0000 </r>
       </set>
       <set comment="band 5">
        <r>  0.0000  0.0000  0.0000  0.1301  0.0000  0.0000  0.0000  0.0000  0.0000 </r>
       </set>
      </set>
      <set comment="kpoint 79">
       <set comment="band 1">
        <r>  0.1097  0.0203  0.1209  0.0010  0.0000  0.0000  0.0000  0.0000  0.0000 </r>
       </set>
       <set comment="band 2">
        <r>  0.0552  0.0305  0.0000  0.1447  0.0000  0.0000  0.0000  0.0000  0.0000 </r>
       </set>
       <set comment="band 3">
        <r>  0.0472  0.0513  0.0858  0.0086  0.0000  0.0000  0.0000  0.0000  0.0000 </r>
       </set>
       <set comment="band 4">
        <r>  0.2449  0.0429  0.0292  0.0578  0.0000  0.0000  0.0000  0.0000  0.0000 </r>
       </set>
       <set comment="band 5">
        <r>  0.0264  0.0560  0.0025  0.0852  0.0000  0.0000  0.0000  0.0000  0.0000 </r>
       </set>
      </set>
      <set comment="kpoint 80">
       <set comment="band 1">
        <r>  0.0618  0.0455  0.0074  0.1148  0.0000  0.0000  0.0000  0.0000  0.0000 </r>
       </set>
       <set comment="band 2">
        <r>  0.0999  0.0085  0.1480  0.0014  0.0000  0.0000  0.0000  0.0000  0.0000 </r>
       </set>
       <set comment="band 3">
        <r>  0.1294  0.0507  0.0665  0.0001  0.0000  0.0000  0.0000  0.0000  0.0000 </r>
       </set>
       <set comment="band 4">
        <r>  0.1727  0.0331  0.0037  0.1097  0.0000  0.0000  0.0000  0.0000  0.0000 </r>
       </set>
       <set comment="band 5">
        <r>  0.0354  0.1120  0.0014  0.0524  0.0000  0.0000  0.0000  0.0000  0.0000 </r>
       </set>
      </set>
      <set comment="kpoint 81">
       <set comment="band 1">
        <r>  0.1276  0.0314  0.0000  0.0962  0.0000  0.0000  0.0000  0.0000  0.0000 </r>
       </set>
       <set comment="band 2">
        <r>  0.0000  0.0000  0.2153  0.0000  0.0000  0.0000  0.0000  0.0000  0.0000 </r>
       </set>
       <set comment="band 3">
        <r>  0.1882  0.0857  0.0000  0.0028  0.0000  0.0000  0.0000  0.0000  0.0000 </r>
       </set>
       <set comment="band 4">
        <r>  0.1417  0.0199  0.0000  0.1400  0.0000  0.0000  0.0000  0.0000  0.0000 </r>
       </set>
       <set comment="band 5">
        <r>  0.0267  0.1657  0.0000  0.0357  0.0000  0.0000  0.0000  0.0000  0.0000 </r>
       </set>
      </set>
      <set comment="kpoint 82">
       <set comment="band 1">
        <r>  0.0771  0.0096  0.1612  0.0000  0.0000  0.0000  0.0000  0.0000  0.0000 </r>
       </set>
       <set comment="band 2">
        <r>  0.1250  0.0334  0.0724  0.0000  0.0000  0.0000  0.0000  0.0000  0.0000 </r>
       </set>
       <set comment="band 3">
        <r>  0.0000  0.0000  0.0000  0.2025  0.0000  0.0000  0.0000  0.0000  0.0000 </r>
       </set>
       <set comment="band 4">
        <r>  0.2453  0.1191  0.0039  0.0000  0.0000  0.0000  0.0000  0.0000  0.0000 </r>
       </set>
       <set comment="band 5">
        <r>  0.0000  0.0000  0.0000  0.1356  0.0000  0.0000  0.0000  0.0000  0.0000 </r>
       </set>
      </set>
      <set comment="kpoint 83">
       <set comment="band 1">
        <r>  0.0000  0.0000  0.2314  0.0000  0.0000  0.0000  0.0000  0.0000  0.0000 </r>
       </set>
       <set comment="band 2">
        <r>  0.0008  0.0697  0.0000  0.1080  0.0000  0.0000  0.0000  0.0000  0.0000 </r>
       </set>
       <set comment="band 3">
        <r>  0.2605  0.0121  0.0000  0.0412  0.0000  0.0000  0.0000  0.0000  0.0000 </r>
       </set>
       <set comment="band 4">
        <r>  0.2022  0.0640  0.0000  0.0647  0.0000  0.0000  0.0000  0.0000  0.0000 </r>
       </set>
       <set comment="band 5">
        <r>  0.0280  0.0544  0.0000  0.0878  0.0000  0.0000  0.0000  0.0000  0.0000 </r>
       </set>
      </set>
      <set comment="kpoint 84">
       <set comment="band 1">
        <r>  0.0587  0.0223  0.1552  0.0000  0.0000  0.0000  0.0000  0.0000  0.0000 </r>
       </set>
       <set comment="band 2">
        <r>  0.0000  0.0000  0.0000  0.2190  0.0000  0.0000  0.0000  0.0000  0.0000 </r>
       </set>
       <set comment="band 3">
        <r>  0.0092  0.1136  0.0302  0.0000  0.0000  0.0000  0.0000  0.0000  0.0000 </r>
       </set>
       <set comment="band 4">
        <r>  0.4046  0.0010  0.0421  0.0000  0.0000  0.0000  0.0000  0.0000  0.0000 </r>
       </set>
       <set comment="band 5">
        <r>  0.0000  0.0007  0.0001  0.1110  0.0000  0.0000  0.0000  0.0000  0.0000 </r>
       </set>
      </set>
     </set>
    </set>
   </array>
  </projected>
 </calculation>
 <structure name="finalpos" >
  <crystal>
   <varray name="basis" >
    <v>       0.00000000       2.01946500       2.01946500 </v>
    <v>       2.01946500       0.00000000       2.01946500 </v>
    <v>       2.01946500       2.01946500       0.00000000 </v>
   </varray>
   <i name="volume">     16.47172138 </i>
   <varray name="rec_basis" >
    <v>      -0.24759033       0.24759033       0.24759033 </v>
    <v>       0.24759033      -0.24759033       0.24759033 </v>
    <v>       0.24759033       0.24759033      -0.24759033 </v>
   </varray>
  </crystal>
  <varray name="positions" >
   <v>       0.00000000       0.00000000       0.00000000 </v>
  </varray>
 </structure>
</modeling>
