
Running Job 1 of 1 mol.qin
qchem mol.qin_132247.0 /tmp/scratch/ 0
/clusterfs/mp/software/qchem/exe/qcprog.exe_s mol.qin_132247.0 /tmp/scratch/
                  Welcome to Q-Chem
     A Quantum Leap Into The Future Of Chemistry


 Q-Chem 5.2, Q-Chem, Inc., Pleasanton, CA (2019)

 Yihan Shao,  Zhengting Gan,  E. Epifanovsky,  A. T. B. Gilbert,  M. Wormit,  
 J. Kussmann,  A. W. Lange,  A. Behn,  Jia Deng,  Xintian Feng,  D. Ghosh,  
 M. Goldey,  P. R. Horn,  L. D. Jacobson,  I. Kaliman,  T. Kus,  A. Landau,  
 Jie Liu,  E. I. Proynov,  R. M. Richard,  R. P. Steele,  E. J. Sundstrom,  
 H. L. Woodcock III,  P. M. Zimmerman,  D. Zuev,  B. Alam,  B. Albrecht,  
 E. Alguire,  S. A. Baeppler,  D. Barton,  Z. Benda,  Y. A. Bernard,  
 E. J. Berquist,  K. B. Bravaya,  H. Burton,  K. Carter-Fenk,  D. Casanova,  
 Chun-Min Chang,  Yunqing Chen,  A. Chien,  K. D. Closser,  M. P. Coons,  
 S. Coriani,  S. Dasgupta,  A. L. Dempwolff,  M. Diedenhofen,  Hainam Do,  
 R. G. Edgar,  Po-Tung Fang,  S. Faraji,  S. Fatehi,  Qingguo Feng,  
 J. Fosso-Tande,  J. Gayvert,  Qinghui Ge,  A. Ghysels,  G. Gidofalvi,  
 J. Gomes,  J. Gonthier,  A. Gunina,  D. Hait,  M. W. D. Hanson-Heine,  
 P. H. P. Harbach,  A. W. Hauser,  M. F. Herbst,  J. E. Herr,  
 E. G. Hohenstein,  Z. C. Holden,  Kerwin Hui,  B. C. Huynh,  T.-C. Jagau,  
 Hyunjun Ji,  B. Kaduk,  K. Khistyaev,  Jaehoon Kim,  P. Klunzinger,  K. Koh,  
 D. Kosenkov,  L. Koulias,  T. Kowalczyk,  C. M. Krauter,  A. Kunitsa,  
 Ka Un Lao,  A. Laurent,  K. V. Lawler,  Joonho Lee,  D. Lefrancois,  
 S. Lehtola,  D. S. Levine,  Yi-Pei Li,  You-Sheng Lin,  Fenglai Liu,  
 Kuan-Yu Liu,  E. Livshits,  M. Loipersberger,  A. Luenser,  P. Manohar,  
 E. Mansoor,  S. F. Manzer,  Shan-Ping Mao,  Yuezhi Mao,  N. Mardirossian,  
 A. V. Marenich,  T. Markovich,  L. A. Martinez-Martinez,  S. A. Maurer,  
 N. J. Mayhall,  S. C. McKenzie,  J.-M. Mewes,  P. Morgante,  A. F. Morrison,  
 J. W. Mullinax,  K. Nanda,  T. S. Nguyen-Beck,  R. Olivares-Amaya,  
 J. A. Parkhill,  S. K. Paul,  Zheng Pei,  T. M. Perrine,  F. Plasser,  
 P. Pokhilko,  S. Prager,  A. Prociuk,  E. Ramos,  B. Rana,  D. R. Rehn,  
 F. Rob,  M. Scheurer,  M. Schneider,  N. Sergueev,  S. M. Sharada,  
 S. Sharma,  D. W. Small,  T. Stauch,  C. J. Stein,  T. Stein,  Yu-Chuan Su,  
 S. P. Veccham,  A. J. W. Thom,  A. Tkatchenko,  T. Tsuchimochi,  
 N. M. Tubman,  L. Vogt,  M. L. Vidal,  O. Vydrov,  M. A. Watson,  J. Wenzel,  
 M. de Wergifosse,  T. A. Wesolowski,  A. White,  J. Witte,  A. Yamada,  
 Jun Yang,  K. Yao,  S. Yeganeh,  S. R. Yost,  Zhi-Qiang You,  A. Zech,  
 Igor Ying Zhang,  Xing Zhang,  Yan Zhao,  Ying Zhu,  B. R. Brooks,  
 G. K. L. Chan,  C. J. Cramer,  M. S. Gordon,  W. J. Hehre,  A. Klamt,  
 M. W. Schmidt,  C. D. Sherrill,  D. G. Truhlar,  A. Aspuru-Guzik,  R. Baer,  
 A. T. Bell,  N. A. Besley,  Jeng-Da Chai,  A. E. DePrince, III,  
 R. A. DiStasio Jr.,  A. Dreuw,  B. D. Dunietz,  T. R. Furlani,  
 Chao-Ping Hsu,  Yousung Jung,  Jing Kong,  D. S. Lambrecht,  WanZhen Liang,  
 C. Ochsenfeld,  V. A. Rassolov,  L. V. Slipchenko,  J. E. Subotnik,  
 T. Van Voorhis,  J. M. Herbert,  A. I. Krylov,  P. M. W. Gill,  M. Head-Gordon

 Contributors to earlier versions of Q-Chem not listed above: 
 R. D. Adamson,  B. Austin,  J. Baker,  G. J. O. Beran,  K. Brandhorst,  
 S. T. Brown,  E. F. C. Byrd,  A. K. Chakraborty,  C.-L. Cheng,  
 Siu Hung Chien,  D. M. Chipman,  D. L. Crittenden,  H. Dachsel,  
 R. J. Doerksen,  A. D. Dutoi,  L. Fusti-Molnar,  W. A. Goddard III,  
 A. Golubeva-Zadorozhnaya,  S. R. Gwaltney,  G. Hawkins,  A. Heyden,  
 S. Hirata,  G. Kedziora,  F. J. Keil,  C. Kelley,  Jihan Kim,  R. A. King,  
 R. Z. Khaliullin,  P. P. Korambath,  W. Kurlancheek,  A. M. Lee,  M. S. Lee,  
 S. V. Levchenko,  Ching Yeh Lin,  D. Liotard,  R. C. Lochan,  I. Lotan,  
 P. E. Maslen,  N. Nair,  D. P. O'Neill,  D. Neuhauser,  E. Neuscamman,  
 C. M. Oana,  R. Olson,  B. Peters,  R. Peverati,  P. A. Pieniazek,  
 Y. M. Rhee,  J. Ritchie,  M. A. Rohrdanz,  E. Rosta,  N. J. Russ,  
 H. F. Schaefer III,  N. E. Schultz,  N. Shenvi,  A. C. Simmonett,  A. Sodt,  
 D. Stuck,  K. S. Thanthiriwatte,  V. Vanovschi,  Tao Wang,  A. Warshel,  
 C. F. Williams,  Q. Wu,  X. Xu,  W. Zhang

 Please cite Q-Chem as follows:
 Y. Shao et al., Mol. Phys. 113, 184-215 (2015)
 DOI: 10.1080/00268976.2014.952696

 Q-Chem 5.2.2 for Intel X86 EM64T Linux

 Parts of Q-Chem use Armadillo 8.300.2 (Tropical Shenanigans).
 http://arma.sourceforge.net/

 Q-Chem begins on Thu Nov 12 08:26:15 2020  

Host: 
0

     Scratch files written to /tmp/scratch//
 Nov2519 |scratch|qcdevops|jenkins|workspace|build_RNUM 6829   
Processing $rem in /clusterfs/mp/software/qchem/config/preferences:
	 MEM_TOTAL  96000 
NAlpha2: 62
NElect   61
Mult     2
Symmetry turned off for PCM/SM12/SMD calculation

Checking the input file for inconsistencies... 	...done.

--------------------------------------------------------------
User input:
--------------------------------------------------------------
$molecule
0 2
O     -2.0503898163     -4.4070487241      1.3807016603
C     -1.5010721596     -4.8820463397      0.2291037975
C     -3.1143731743     -3.5920073101      1.0643986986
O     -0.5256776590     -5.5697624191      0.1953164526
O     -2.2241074447     -4.5089287328     -0.8277141075
C     -3.3246244737     -3.6763087178     -0.4077146393
H     -1.6651171651     -1.1818084655      1.2457074079
H     -3.8672603536     -3.4748017475      1.8313959802
H     -3.2508527480     -2.7149395528     -0.9245697203
H     -4.2631656839     -4.1644647767     -0.6913045082
C     -0.7568521341     -1.1419750734      0.6174365890
O     -0.3683393134     -2.1042232596      0.0017220660
H     -0.2199878742     -0.1776248810      0.5806003231
$end

$rem
job_type = freq
basis = def2-tzvppd
max_scf_cycles = 100
gen_scfman = true
xc_grid = 3
scf_algorithm = diis
resp_charges = true
symmetry = false
sym_ignore = true
method = wb97xv
geom_opt_max_cycles = 200
solvent_method = smd
ideriv = 1
thresh = 14
s2thresh = 16
$end

$smx
solvent other
$end
--------------------------------------------------------------
 ----------------------------------------------------------------
             Standard Nuclear Orientation (Angstroms)
    I     Atom           X                Y                Z
 ----------------------------------------------------------------
    1      O      -2.0503898163    -4.4070487241     1.3807016603
    2      C      -1.5010721596    -4.8820463397     0.2291037975
    3      C      -3.1143731743    -3.5920073101     1.0643986986
    4      O      -0.5256776590    -5.5697624191     0.1953164526
    5      O      -2.2241074447    -4.5089287328    -0.8277141075
    6      C      -3.3246244737    -3.6763087178    -0.4077146393
    7      H      -1.6651171651    -1.1818084655     1.2457074079
    8      H      -3.8672603536    -3.4748017475     1.8313959802
    9      H      -3.2508527480    -2.7149395528    -0.9245697203
   10      H      -4.2631656839    -4.1644647767    -0.6913045082
   11      C      -0.7568521341    -1.1419750734     0.6174365890
   12      O      -0.3683393134    -2.1042232596     0.0017220660
   13      H      -0.2199878742    -0.1776248810     0.5806003231
 ----------------------------------------------------------------
 Nuclear Repulsion Energy =         375.32818554 hartrees
 There are       31 alpha and       30 beta electrons
 Requested basis set is def2-TZVPPD
 There are 143 shells and 393 basis functions

 Total QAlloc Memory Limit  96000 MB
 Mega-Array Size       188 MB
 MEM_STATIC part       192 MB
 
 Citation of the SMD model:
 Marenich, A.V.; Cramer, C.J.; Truhlar, D.G.
 J. Phys. Chem. B 2009, 113, 6378-6396.
 iSolventCode=           0
 Solvent: other                                                           
 
 vradii
            1           2           3           4           5           6
    1   2.2940000   1.8500000   1.8500000   2.2940000   2.2940000   1.8500000
            7           8           9          10          11          12
    1   1.2000000   1.2000000   1.2000000   1.2000000   1.8500000   2.2940000
           13
    1   1.2000000
 Changing PCM_VDW_RADII to SMD_RADIUS
 Discretize the solute cavity surface with Lebedev spheres
	Using 110 Lebedev grid points for each H atom
	Using 194 Lebedev grid points for other atoms
	Atomic van der Waals radii will be scaled by 1.20
 Remove points where switching function is < 1.0e-08
 Keep 931 surface tesserae and discard 1171 interior tesserae
 Molecular Surface Area = 173.407 Angst**2

                       Distance Matrix (Angstroms)
             O (  1)   C (  2)   C (  3)   O (  4)   O (  5)   C (  6)
   C (  2)  1.361452
   C (  3)  1.377099  2.228151
   O (  4)  2.254282  1.193939  3.371671
   O (  5)  2.217579  1.333739  2.283289  2.248694
   C (  6)  2.314322  2.276990  1.489439  3.432625  1.442496
   H (  7)  3.250974  3.840853  2.818204  4.653577  3.959959  3.422032
   H (  8)  2.091227  3.185361  1.081139  4.269870  3.292451  2.312720
   H (  9)  3.101390  3.014805  2.178043  4.102528  2.069296  1.093989
   H ( 10)  3.041124  2.998539  2.174839  4.090205  2.072443  1.095253
   C ( 11)  3.593956  3.833119  3.429335  4.453867  3.946856  3.750632
   O ( 12)  3.167631  3.008502  3.299013  3.474507  3.148722  3.373235
   H ( 13)  4.677452  4.888385  4.502170  5.414521  4.975946  4.780829
             H (  7)   H (  8)   H (  9)   H ( 10)   C ( 11)   O ( 12)
   H (  8)  3.232690
   H (  9)  3.094374  2.924499
   H ( 10)  4.404329  2.645070  1.783343
   C ( 11)  1.105105  4.073134  3.327467  4.810663
   O ( 12)  2.019896  4.179550  3.088669  4.460331  1.206635
   H ( 13)  1.881263  5.073309  4.229615  5.818928  1.104333  2.017149

 
 A cutoff of  1.0D-14 yielded   9643 shell pairs
 There are     73759 function pairs (     95014 Cartesian)
 Smallest overlap matrix eigenvalue = 7.37E-06
 Guess from superposition of atomic densities
 Warning:  Energy on first SCF cycle will be non-variational
 SAD guess density has 61.000000 electrons

 -----------------------------------------------------------------------
  General SCF calculation program by
  Eric Jon Sundstrom, Paul Horn, Yuezhi Mao, Dmitri Zuev, Alec White,
  David Stuck, Shaama M.S., Shane Yost, Joonho Lee, David Small,
  Daniel Levine, Susi Lehtola, Hugh Burton, Evgeny Epifanovsky,
  Bang C. Huynh
 -----------------------------------------------------------------------
 Exchange:     0.1670 Hartree-Fock + 1.0000 wB97X-V + LR-HF
 Correlation:  1.0000 wB97X-V
 Using SG-3 standard quadrature grid
 Nonlocal Correlation:  VV10 with C = 0.0100 and b = 6.00 and scale = 1.00000
 Grid used for NLC:  SG-1 standard quadrature
 
 Citation of the SMD model:
 Marenich, A.V.; Cramer, C.J.; Truhlar, D.G.
 J. Phys. Chem. B 2009, 113, 6378-6396.
 iSolventCode=           0
 Solvent: other                                                           
 
 vradii
            1           2           3           4           5           6
    1   2.2940000   1.8500000   1.8500000   2.2940000   2.2940000   1.8500000
            7           8           9          10          11          12
    1   1.2000000   1.2000000   1.2000000   1.2000000   1.8500000   2.2940000
           13
    1   1.2000000
 using 40 threads for integral computing
 -------------------------------------------------------
 OpenMP Integral computing Module                
 Release: version 1.0, May 2013, Q-Chem Inc. Pittsburgh 
 -------------------------------------------------------
 using 40 threads for integral computing
 -------------------------------------------------------
 OpenMP Integral computing Module                
 Release: version 1.0, May 2013, Q-Chem Inc. Pittsburgh 
 -------------------------------------------------------
 -------------------------------------------------------
 OpenMP BLAS3 based DFT computing Module                
 Release: version 1.0, May 2013, Q-Chem Inc. Pittsburgh 
 -------------------------------------------------------
 -------------------------------------------------------
 OpenMP BLAS3 based DFT computing Module                
 Release: version 1.0, May 2013, Q-Chem Inc. Pittsburgh 
 -------------------------------------------------------
 -------------------------------------------------------
 OpenMP BLAS3 based DFT computing Module                
 Release: version 1.0, May 2013, Q-Chem Inc. Pittsburgh 
 -------------------------------------------------------
 A unrestricted SCF calculation will be
 performed using DIIS
 SCF converges when DIIS error is below 1.0e-08
 ---------------------------------------
  Cycle       Energy         DIIS error
 ---------------------------------------
    1    -457.9810081187      1.19e-02  
    2    -456.1102746199      1.80e-03  
    3    -456.0473314426      2.27e-03  
    4    -456.3055317737      1.67e-04  
    5    -456.3068411080      1.16e-04  
    6    -456.3076143213      2.09e-05  
    7    -456.3076796985      8.94e-06  
    8    -456.3076912180      5.62e-06  
    9    -456.3076949260      1.75e-06  
   10    -456.3076953949      5.49e-07  
   11    -456.3076954598      1.82e-07  
   12    -456.3076954672      8.76e-08  
   13    -456.3076954686      4.31e-08  
   14    -456.3076954690      2.29e-08  
   15    -456.3076954691      9.08e-09  Convergence criterion met
 ---------------------------------------
 SCF time:   CPU 3015.22s  wall 121.00s 
<S^2> =          0.753529426
(3)  G-ENP(liq) elect-nuc-pol free energy of system     -456.307695469 a.u.
(4)  G-CDS(liq) cavity-dispersion-solvent structure 
     free energy                                               -2.3896 kcal/mol
(6)  G-S(liq) free energy of system                     -456.311503480 a.u.
 SCF   energy in the final basis set =     -456.3076954691
 Total energy in the final basis set =     -456.3115034795
 
 --------------------------------------------------------------
 
                    Orbital Energies (a.u.)
 --------------------------------------------------------------
 
 Alpha MOs
 -- Occupied --
-19.2903 -19.2765 -19.2250 -19.2068 -10.4521 -10.3583 -10.3416 -10.3363
 -1.3094  -1.1944  -1.1874  -1.1788  -0.9065  -0.8007  -0.7471  -0.7374
 -0.6576  -0.6426  -0.6099  -0.6018  -0.5640  -0.5625  -0.5550  -0.5114
 -0.5067  -0.5023  -0.4933  -0.4214  -0.4183  -0.3721  -0.2965
 -- Virtual --
  0.0492   0.0588   0.0769   0.0797   0.0829   0.1048   0.1079   0.1175
  0.1184   0.1244   0.1317   0.1505   0.1585   0.1619   0.1641   0.1730
  0.1799   0.1898   0.1961   0.2066   0.2130   0.2230   0.2332   0.2484
  0.2524   0.2630   0.2728   0.2777   0.2826   0.2890   0.2917   0.3092
  0.3111   0.3202   0.3233   0.3282   0.3335   0.3427   0.3505   0.3560
  0.3627   0.3711   0.3762   0.3837   0.3856   0.3936   0.4023   0.4091
  0.4154   0.4199   0.4271   0.4308   0.4372   0.4464   0.4526   0.4583
  0.4611   0.4660   0.4746   0.4890   0.4943   0.5016   0.5102   0.5193
  0.5281   0.5356   0.5398   0.5539   0.5612   0.5641   0.5786   0.5833
  0.5998   0.6050   0.6113   0.6193   0.6320   0.6383   0.6490   0.6559
  0.6752   0.6834   0.6873   0.6971   0.7045   0.7088   0.7182   0.7348
  0.7488   0.7558   0.7624   0.7710   0.7753   0.7832   0.7873   0.8042
  0.8066   0.8123   0.8210   0.8264   0.8363   0.8459   0.8529   0.8728
  0.8944   0.9006   0.9228   0.9355   0.9429   0.9512   0.9706   0.9758
  0.9845   1.0062   1.0275   1.0342   1.0482   1.0582   1.0624   1.0751
  1.0972   1.1183   1.1373   1.1407   1.1498   1.1719   1.2045   1.2093
  1.2212   1.2254   1.2464   1.2620   1.2685   1.2959   1.3034   1.3174
  1.3234   1.3321   1.3411   1.3526   1.3803   1.3830   1.4180   1.4209
  1.4440   1.4533   1.4795   1.4935   1.5304   1.5360   1.5576   1.5626
  1.6130   1.6481   1.6617   1.7052   1.7092   1.7216   1.7252   1.7692
  1.7981   1.8279   1.8643   1.8905   1.9081   1.9130   1.9477   1.9646
  1.9741   1.9969   2.0195   2.0322   2.0640   2.0792   2.0964   2.1440
  2.1566   2.1943   2.2242   2.2404   2.2639   2.2973   2.3085   2.3311
  2.3511   2.3668   2.3943   2.4282   2.4620   2.4723   2.4999   2.5293
  2.5617   2.6033   2.6667   2.7149   2.7859   2.8213   2.8378   2.8411
  2.8846   2.8982   2.9096   2.9260   2.9319   2.9465   2.9827   3.0099
  3.0179   3.0373   3.0578   3.0751   3.0994   3.1209   3.1359   3.1458
  3.1785   3.1962   3.1991   3.2265   3.2363   3.2614   3.2661   3.2784
  3.3026   3.3194   3.3229   3.3539   3.3831   3.3944   3.3992   3.4296
  3.4564   3.4641   3.5013   3.5126   3.5192   3.5309   3.5351   3.5431
  3.5555   3.5722   3.5885   3.6072   3.6326   3.6460   3.6515   3.6686
  3.6744   3.7164   3.7409   3.7614   3.8022   3.8175   3.8378   3.8532
  3.8704   3.8922   3.9164   3.9558   3.9700   3.9924   4.0218   4.1224
  4.1363   4.1447   4.1490   4.1527   4.1910   4.2466   4.2666   4.2727
  4.3327   4.3767   4.4016   4.4377   4.4687   4.5955   4.6301   4.6382
  4.6435   4.6735   4.7381   4.7829   4.8158   4.8321   4.8450   4.8703
  4.8796   4.9386   4.9578   5.0301   5.0538   5.0668   5.1135   5.1484
  5.1576   5.2595   5.2816   5.3192   5.3437   5.3540   5.3647   5.3726
  5.4654   5.5023   5.5180   5.5288   5.5830   5.6078   5.6332   5.6346
  5.6772   5.7389   5.7769   5.7957   5.8141   5.9136   5.9279   5.9862
  5.9982   6.0919   6.1199   6.2385   6.2658   6.2689   6.3254   6.3897
  6.4752   6.5643   6.5754   6.6284   6.6350   6.6952   6.7012   6.7386
  6.8386   6.8631   6.9077   6.9417   6.9678   7.0143   7.0456   7.1003
  7.1434   7.1783   7.2419   7.2970   7.3445   7.4136   7.4696   7.5769
  7.6270   7.6913  23.2181  23.4904  23.8199  23.9052  44.1718  44.4215
 44.4610  44.5920
 
 Beta MOs
 -- Occupied --
-19.2876 -19.2764 -19.2250 -19.2064 -10.4521 -10.3582 -10.3421 -10.3251
 -1.3056  -1.1897  -1.1874  -1.1778  -0.8939  -0.7886  -0.7467  -0.7321
 -0.6477  -0.6375  -0.6026  -0.5969  -0.5626  -0.5610  -0.5448  -0.5064
 -0.5013  -0.4926  -0.4772  -0.4173  -0.4162  -0.3716
 -- Virtual --
  0.0282   0.0492   0.0593   0.0781   0.0803   0.0836   0.1054   0.1087
  0.1185   0.1192   0.1283   0.1336   0.1514   0.1598   0.1629   0.1648
  0.1739   0.1808   0.1911   0.2002   0.2078   0.2136   0.2237   0.2336
  0.2493   0.2569   0.2646   0.2747   0.2799   0.2858   0.2899   0.2953
  0.3102   0.3138   0.3220   0.3260   0.3298   0.3351   0.3440   0.3533
  0.3575   0.3640   0.3726   0.3775   0.3842   0.3876   0.3959   0.4035
  0.4119   0.4163   0.4204   0.4290   0.4366   0.4386   0.4476   0.4538
  0.4589   0.4634   0.4668   0.4760   0.4915   0.4970   0.5022   0.5116
  0.5222   0.5300   0.5358   0.5406   0.5550   0.5643   0.5659   0.5796
  0.5851   0.6002   0.6073   0.6122   0.6208   0.6329   0.6390   0.6499
  0.6571   0.6769   0.6856   0.6880   0.6986   0.7062   0.7097   0.7200
  0.7357   0.7511   0.7572   0.7638   0.7724   0.7795   0.7853   0.7892
  0.8061   0.8086   0.8133   0.8219   0.8273   0.8367   0.8472   0.8540
  0.8735   0.8954   0.9016   0.9254   0.9373   0.9435   0.9525   0.9709
  0.9778   0.9852   1.0083   1.0285   1.0354   1.0513   1.0602   1.0660
  1.0777   1.0986   1.1201   1.1382   1.1431   1.1527   1.1794   1.2060
  1.2117   1.2227   1.2268   1.2504   1.2660   1.2719   1.2997   1.3050
  1.3185   1.3275   1.3332   1.3442   1.3549   1.3827   1.3844   1.4188
  1.4257   1.4453   1.4555   1.4821   1.5000   1.5318   1.5413   1.5594
  1.5677   1.6162   1.6501   1.6674   1.7083   1.7114   1.7270   1.7295
  1.7712   1.8034   1.8287   1.8664   1.8960   1.9108   1.9155   1.9514
  1.9662   1.9766   1.9990   2.0219   2.0379   2.0670   2.0833   2.1008
  2.1466   2.1658   2.2010   2.2290   2.2468   2.2688   2.3050   2.3119
  2.3335   2.3559   2.3696   2.3979   2.4318   2.4641   2.4751   2.5017
  2.5326   2.5677   2.6079   2.6688   2.7181   2.7928   2.8272   2.8415
  2.8466   2.8939   2.9000   2.9156   2.9290   2.9359   2.9535   2.9891
  3.0121   3.0216   3.0415   3.0657   3.0860   3.1004   3.1227   3.1381
  3.1486   3.1829   3.1975   3.2052   3.2284   3.2393   3.2651   3.2708
  3.2824   3.3138   3.3272   3.3372   3.3695   3.3884   3.4010   3.4101
  3.4340   3.4638   3.4750   3.5027   3.5175   3.5221   3.5343   3.5397
  3.5529   3.5619   3.5785   3.5899   3.6143   3.6356   3.6504   3.6564
  3.6726   3.6780   3.7199   3.7430   3.7675   3.8078   3.8214   3.8417
  3.8569   3.8743   3.8941   3.9215   3.9655   3.9705   4.0003   4.0275
  4.1231   4.1402   4.1479   4.1499   4.1562   4.1989   4.2489   4.2704
  4.2749   4.3360   4.3821   4.4063   4.4399   4.4719   4.6017   4.6342
  4.6392   4.6449   4.6738   4.7407   4.7831   4.8204   4.8396   4.8467
  4.8760   4.8800   4.9513   4.9607   5.0329   5.0584   5.0725   5.1215
  5.1493   5.1625   5.2649   5.2830   5.3235   5.3440   5.3550   5.3660
  5.3729   5.4689   5.5032   5.5217   5.5340   5.5860   5.6100   5.6372
  5.6396   5.6803   5.7441   5.7801   5.7958   5.8181   5.9219   5.9321
  5.9884   5.9985   6.0937   6.1256   6.2399   6.2670   6.2701   6.3296
  6.3913   6.4760   6.5652   6.5784   6.6284   6.6368   6.6966   6.7030
  6.7389   6.8475   6.8638   6.9078   6.9451   6.9773   7.0158   7.0461
  7.1012   7.1474   7.1790   7.2434   7.2977   7.3447   7.4148   7.4717
  7.5785   7.6281   7.6919  23.2291  23.4926  23.8201  23.9057  44.1718
 44.4229  44.4618  44.5936
 --------------------------------------------------------------
 
          Ground-State Mulliken Net Atomic Charges

     Atom                 Charge (a.u.)    Spin (a.u.)
  --------------------------------------------------------
      1 O                    -0.212620       0.061808
      2 C                     0.538146       0.009800
      3 C                    -0.167787       0.844096
      4 O                    -0.454274       0.018255
      5 O                    -0.268802       0.006456
      6 C                     0.458891      -0.051605
      7 H                     0.069768      -0.010717
      8 H                     0.030399       0.018116
      9 H                     0.014016       0.039237
     10 H                     0.057555       0.048599
     11 C                     0.290479       0.012503
     12 O                    -0.405313       0.001744
     13 H                     0.049541       0.001707
  --------------------------------------------------------
  Sum of atomic charges =     0.000000
  Sum of spin   charges =     1.000000

  Building new vdw surfaces
         Merz-Kollman RESP Net Atomic Charges

     Atom                 Charge (a.u.)
  ----------------------------------------
      1 O                    -0.325180
      2 C                     0.899074
      3 C                    -0.020507
      4 O                    -0.612433
      5 O                    -0.365861
      6 C                    -0.047163
      7 H                     0.000243
      8 H                     0.167998
      9 H                     0.153755
     10 H                     0.153755
     11 C                     0.421112
     12 O                    -0.469953
     13 H                     0.045160
  ----------------------------------------
  Sum of atomic charges =     0.000000

  Related Dipole Moment =     8.5934 (X -6.1840 Y  5.8106 Z  1.3572)

 -----------------------------------------------------------------
                    Cartesian Multipole Moments
 -----------------------------------------------------------------
    Charge (ESU x 10^10)
                 0.0000
    Dipole Moment (Debye)
         X      -6.1592      Y       5.7605      Z       1.3972
       Tot       8.5482
    Quadrupole Moments (Debye-Ang)
        XX     -21.8202     XY      18.1044     YY     -83.6035
        XZ      -2.3146     YZ      -1.3944     ZZ     -45.8976
    Octopole Moments (Debye-Ang^2)
       XXX     150.0623    XXY      83.9753    XYY      22.6553
       YYY     732.3491    XXZ      -5.5866    XYZ       6.9710
       YYZ     -13.6899    XZZ      76.4557    YZZ     174.7842
       ZZZ     -37.5128
    Hexadecapole Moments (Debye-Ang^3)
      XXXX    -889.2626   XXXY    -598.5413   XXYY    -618.0111
      XYYY    -743.1220   YYYY   -5652.1809   XXXZ      39.4805
      XXYZ      16.4883   XYYZ      -1.5131   YYYZ     145.0475
      XXZZ    -214.4915   XYZZ    -306.5700   YYZZ    -798.1899
      XZZZ      55.6109   YZZZ     123.4419   ZZZZ    -207.8531
 -----------------------------------------------------------------
 Calculating analytic gradient of the SCF energy
 Gradient of CDS energy
            1           2           3           4           5           6
    1   0.0006361   0.0009966  -0.0014727   0.0003290  -0.0004433  -0.0007502
    2   0.0001511  -0.0017339   0.0008025   0.0000389   0.0010230  -0.0000553
    3   0.0005022  -0.0003821   0.0013135   0.0000655  -0.0000660  -0.0014623
            7           8           9          10          11          12
    1   0.0002401   0.0002087   0.0003958   0.0002555   0.0007527  -0.0009483
    2  -0.0004529  -0.0000325  -0.0002177  -0.0000413   0.0016243  -0.0007472
    3  -0.0004271  -0.0002126   0.0001533   0.0000882   0.0004347  -0.0000210
           13
    1  -0.0001998
    2  -0.0003590
    3   0.0000137
 Gradient of SCF Energy
            1           2           3           4           5           6
    1   0.0018753   0.0025099   0.0100196  -0.0042055   0.0022478   0.0082646
    2  -0.0008580  -0.0033018  -0.0019886   0.0040056  -0.0009960  -0.0019100
    3  -0.0000459   0.0008521  -0.0125572  -0.0000624  -0.0005860   0.0117002
            7           8           9          10          11          12
    1  -0.0099915  -0.0104102  -0.0005522  -0.0103115  -0.0000950   0.0047842
    2  -0.0001733   0.0005836   0.0088823  -0.0038319  -0.0027193  -0.0071244
    3   0.0067757   0.0100065  -0.0064746  -0.0026203  -0.0028088  -0.0036060
           13
    1   0.0058645
    2   0.0094318
    3  -0.0005732
 Max gradient component =       1.256E-02
 RMS gradient           =       5.910E-03
 Computing fast CPCM-SWIG gradient
 Updating gradient with PCM contributions...
 -- total gradient after adding PCM contribution --
---------------------------------------------------
  Atom         X              Y              Z     
---------------------------------------------------
   1      -0.000008       0.000000      -0.000005
   2      -0.000007      -0.000005      -0.000039
   3      -0.000007      -0.000072       0.000009
   4       0.000015       0.000002      -0.000012
   5       0.000018      -0.000011       0.000021
   6      -0.000020       0.000023       0.000018
   7      -0.000019       0.000021      -0.000037
   8       0.000024       0.000027       0.000016
   9      -0.000005       0.000002       0.000008
  10      -0.000004       0.000003       0.000008
  11       0.000011       0.000018       0.000026
  12      -0.000013       0.000001      -0.000030
  13       0.000014      -0.000009       0.000015
---------------------------------------------------
 Number of fixed atoms: 0
 Gradient time:  CPU 575.07 s  wall 27.23 s
 ######################################################
 ######################################################
 # Starting finite difference calculation for IDERIV  #
 Finite diff step size:  1.88973e-03 a.u.
 ----------------------------------------------------------------
             Standard Nuclear Orientation (Angstroms)
    I     Atom           X                Y                Z
 ----------------------------------------------------------------
    1      O      -2.0493898163    -4.4070487241     1.3807016603
    2      C      -1.5010721596    -4.8820463397     0.2291037975
    3      C      -3.1143731743    -3.5920073101     1.0643986986
    4      O      -0.5256776590    -5.5697624191     0.1953164526
    5      O      -2.2241074447    -4.5089287328    -0.8277141075
    6      C      -3.3246244737    -3.6763087178    -0.4077146393
    7      H      -1.6651171651    -1.1818084655     1.2457074079
    8      H      -3.8672603536    -3.4748017475     1.8313959802
    9      H      -3.2508527480    -2.7149395528    -0.9245697203
   10      H      -4.2631656839    -4.1644647767    -0.6913045082
   11      C      -0.7568521341    -1.1419750734     0.6174365890
   12      O      -0.3683393134    -2.1042232596     0.0017220660
   13      H      -0.2199878742    -0.1776248810     0.5806003231
 ----------------------------------------------------------------
 Nuclear Repulsion Energy =         375.32600213 hartrees
 There are       31 alpha and       30 beta electrons
 Discretize the solute cavity surface with Lebedev spheres
	Using 110 Lebedev grid points for each H atom
	Using 194 Lebedev grid points for other atoms
	Atomic van der Waals radii will be scaled by 1.20
 Remove points where switching function is < 1.0e-08
 Keep 931 surface tesserae and discard 1171 interior tesserae
 Molecular Surface Area = 173.403 Angst**2

                       Distance Matrix (Angstroms)
             O (  1)   C (  2)   C (  3)   O (  4)   O (  5)   C (  6)
   C (  2)  1.361048
   C (  3)  1.377871  2.228151
   O (  4)  2.253606  1.193939  3.371671
   O (  5)  2.217658  1.333739  2.283289  2.248694
   C (  6)  2.314873  2.276990  1.489439  3.432625  1.442496
   H (  7)  3.250856  3.840853  2.818204  4.653577  3.959959  3.422032
   H (  8)  2.092095  3.185361  1.081139  4.269870  3.292451  2.312720
   H (  9)  3.101777  3.014805  2.178043  4.102528  2.069296  1.093989
   H ( 10)  3.041851  2.998539  2.174839  4.090205  2.072443  1.095253
   C ( 11)  3.593596  3.833119  3.429335  4.453867  3.946856  3.750632
   O ( 12)  3.167100  3.008502  3.299013  3.474507  3.148722  3.373235
   H ( 13)  4.677061  4.888385  4.502170  5.414521  4.975946  4.780829
             H (  7)   H (  8)   H (  9)   H ( 10)   C ( 11)   O ( 12)
   H (  8)  3.232690
   H (  9)  3.094374  2.924499
   H ( 10)  4.404329  2.645070  1.783343
   C ( 11)  1.105105  4.073134  3.327467  4.810663
   O ( 12)  2.019896  4.179550  3.088669  4.460331  1.206635
   H ( 13)  1.881263  5.073309  4.229615  5.818928  1.104333  2.017149

 
 Requested basis set is def2-TZVPPD
 There are 143 shells and 393 basis functions
 A cutoff of  1.0D-14 yielded   9643 shell pairs
 There are     73759 function pairs (     95014 Cartesian)
 Smallest overlap matrix eigenvalue = 7.38E-06
 Guess MOs from SCF MO coefficient file

 -----------------------------------------------------------------------
  General SCF calculation program by
  Eric Jon Sundstrom, Paul Horn, Yuezhi Mao, Dmitri Zuev, Alec White,
  David Stuck, Shaama M.S., Shane Yost, Joonho Lee, David Small,
  Daniel Levine, Susi Lehtola, Hugh Burton, Evgeny Epifanovsky,
  Bang C. Huynh
 -----------------------------------------------------------------------
 Exchange:     0.1670 Hartree-Fock + 1.0000 wB97X-V + LR-HF
 Correlation:  1.0000 wB97X-V
 Using SG-3 standard quadrature grid
 Nonlocal Correlation:  VV10 with C = 0.0100 and b = 6.00 and scale = 1.00000
 Grid used for NLC:  SG-1 standard quadrature
 
 Citation of the SMD model:
 Marenich, A.V.; Cramer, C.J.; Truhlar, D.G.
 J. Phys. Chem. B 2009, 113, 6378-6396.
 iSolventCode=           0
 Solvent: other                                                           
 
 vradii
            1           2           3           4           5           6
    1   2.2940000   1.8500000   1.8500000   2.2940000   2.2940000   1.8500000
            7           8           9          10          11          12
    1   1.2000000   1.2000000   1.2000000   1.2000000   1.8500000   2.2940000
           13
    1   1.2000000
 using 40 threads for integral computing
 -------------------------------------------------------
 OpenMP Integral computing Module                
 Release: version 1.0, May 2013, Q-Chem Inc. Pittsburgh 
 -------------------------------------------------------
 using 40 threads for integral computing
 -------------------------------------------------------
 OpenMP Integral computing Module                
 Release: version 1.0, May 2013, Q-Chem Inc. Pittsburgh 
 -------------------------------------------------------
 -------------------------------------------------------
 OpenMP BLAS3 based DFT computing Module                
 Release: version 1.0, May 2013, Q-Chem Inc. Pittsburgh 
 -------------------------------------------------------
 -------------------------------------------------------
 OpenMP BLAS3 based DFT computing Module                
 Release: version 1.0, May 2013, Q-Chem Inc. Pittsburgh 
 -------------------------------------------------------
 -------------------------------------------------------
 OpenMP BLAS3 based DFT computing Module                
 Release: version 1.0, May 2013, Q-Chem Inc. Pittsburgh 
 -------------------------------------------------------
 A unrestricted SCF calculation will be
 performed using Roothaan-Hall, DIIS
 SCF converges when DIIS error is below 1.0e-08
 ---------------------------------------
  Cycle       Energy         DIIS error
 ---------------------------------------
    1    -456.6138073061      1.56e-04  Roothaan Step
 ---------------------------------------
  Cycle       Energy         DIIS error
 ---------------------------------------
    1    -456.3029749344      1.99e-04  
    2    -456.3050250958      2.24e-04  
    3    -456.3075847114      2.78e-05  
    4    -456.3076712890      1.54e-05  
    5    -456.3076919705      5.31e-06  
    6    -456.3076955132      2.05e-06  
    7    -456.3076959526      7.64e-07  
    8    -456.3076960596      2.59e-07  
    9    -456.3076960789      1.05e-07  
   10    -456.3076960816      5.09e-08  
   11    -456.3076960820      2.43e-08  
   12    -456.3076960821      7.41e-09  Convergence criterion met
 ---------------------------------------
 SCF time:   CPU 2678.85s  wall 109.00s 
<S^2> =          0.753531754
(3)  G-ENP(liq) elect-nuc-pol free energy of system     -456.307696082 a.u.
(4)  G-CDS(liq) cavity-dispersion-solvent structure 
     free energy                                               -2.3888 kcal/mol
(6)  G-S(liq) free energy of system                     -456.311502886 a.u.
 SCF   energy in the final basis set =     -456.3076960821
 Total energy in the final basis set =     -456.3115028855
 
 --------------------------------------------------------------
 
                    Orbital Energies (a.u.)
 --------------------------------------------------------------
 
 Alpha MOs
 -- Occupied --
-19.2903 -19.2765 -19.2250 -19.2067 -10.4520 -10.3583 -10.3416 -10.3365
 -1.3094  -1.1943  -1.1874  -1.1788  -0.9065  -0.8006  -0.7471  -0.7374
 -0.6575  -0.6426  -0.6099  -0.6018  -0.5640  -0.5625  -0.5550  -0.5113
 -0.5066  -0.5023  -0.4932  -0.4214  -0.4182  -0.3721  -0.2967
 -- Virtual --
  0.0492   0.0588   0.0769   0.0797   0.0829   0.1047   0.1079   0.1175
  0.1184   0.1245   0.1318   0.1505   0.1585   0.1619   0.1641   0.1730
  0.1799   0.1898   0.1961   0.2066   0.2130   0.2230   0.2332   0.2484
  0.2524   0.2630   0.2728   0.2777   0.2826   0.2890   0.2917   0.3093
  0.3111   0.3202   0.3232   0.3282   0.3335   0.3427   0.3505   0.3560
  0.3627   0.3711   0.3762   0.3837   0.3856   0.3936   0.4023   0.4091
  0.4154   0.4199   0.4271   0.4307   0.4373   0.4464   0.4526   0.4583
  0.4611   0.4660   0.4746   0.4890   0.4943   0.5016   0.5102   0.5193
  0.5280   0.5356   0.5398   0.5539   0.5612   0.5641   0.5786   0.5833
  0.5998   0.6050   0.6113   0.6193   0.6320   0.6383   0.6490   0.6559
  0.6752   0.6834   0.6873   0.6971   0.7045   0.7088   0.7182   0.7348
  0.7488   0.7558   0.7624   0.7710   0.7753   0.7832   0.7873   0.8042
  0.8065   0.8123   0.8210   0.8263   0.8363   0.8459   0.8528   0.8728
  0.8944   0.9006   0.9228   0.9355   0.9429   0.9512   0.9706   0.9758
  0.9845   1.0062   1.0275   1.0342   1.0482   1.0582   1.0624   1.0751
  1.0971   1.1182   1.1373   1.1407   1.1498   1.1718   1.2046   1.2093
  1.2212   1.2254   1.2464   1.2620   1.2684   1.2959   1.3034   1.3173
  1.3234   1.3321   1.3411   1.3527   1.3803   1.3830   1.4180   1.4209
  1.4441   1.4534   1.4795   1.4935   1.5304   1.5360   1.5576   1.5626
  1.6130   1.6481   1.6617   1.7052   1.7091   1.7217   1.7251   1.7692
  1.7981   1.8279   1.8643   1.8904   1.9081   1.9130   1.9477   1.9646
  1.9741   1.9969   2.0194   2.0322   2.0641   2.0792   2.0963   2.1439
  2.1566   2.1944   2.2241   2.2404   2.2639   2.2972   2.3086   2.3311
  2.3510   2.3668   2.3943   2.4281   2.4619   2.4724   2.5000   2.5293
  2.5617   2.6032   2.6668   2.7146   2.7860   2.8212   2.8378   2.8411
  2.8845   2.8982   2.9095   2.9260   2.9319   2.9464   2.9827   3.0099
  3.0179   3.0373   3.0576   3.0751   3.0994   3.1209   3.1359   3.1458
  3.1785   3.1962   3.1990   3.2266   3.2364   3.2614   3.2661   3.2785
  3.3026   3.3194   3.3229   3.3540   3.3830   3.3943   3.3991   3.4296
  3.4566   3.4641   3.5014   3.5125   3.5193   3.5308   3.5350   3.5431
  3.5554   3.5721   3.5885   3.6071   3.6325   3.6460   3.6515   3.6686
  3.6743   3.7164   3.7409   3.7613   3.8022   3.8176   3.8378   3.8531
  3.8703   3.8922   3.9164   3.9557   3.9700   3.9922   4.0217   4.1224
  4.1362   4.1448   4.1490   4.1527   4.1909   4.2466   4.2663   4.2727
  4.3327   4.3765   4.4015   4.4377   4.4687   4.5955   4.6300   4.6381
  4.6436   4.6736   4.7379   4.7829   4.8158   4.8320   4.8450   4.8702
  4.8796   4.9387   4.9577   5.0301   5.0537   5.0668   5.1135   5.1484
  5.1576   5.2595   5.2817   5.3191   5.3437   5.3540   5.3648   5.3726
  5.4654   5.5022   5.5179   5.5289   5.5831   5.6078   5.6333   5.6345
  5.6772   5.7387   5.7769   5.7957   5.8138   5.9128   5.9278   5.9863
  5.9982   6.0917   6.1194   6.2383   6.2658   6.2689   6.3250   6.3898
  6.4752   6.5643   6.5753   6.6284   6.6350   6.6951   6.7013   6.7386
  6.8384   6.8631   6.9077   6.9416   6.9677   7.0144   7.0456   7.1003
  7.1436   7.1783   7.2420   7.2970   7.3445   7.4135   7.4696   7.5773
  7.6271   7.6917  23.2168  23.4902  23.8199  23.9062  44.1718  44.4216
 44.4610  44.5918
 
 Beta MOs
 -- Occupied --
-19.2876 -19.2764 -19.2250 -19.2063 -10.4520 -10.3582 -10.3421 -10.3252
 -1.3056  -1.1897  -1.1874  -1.1777  -0.8939  -0.7885  -0.7467  -0.7321
 -0.6477  -0.6375  -0.6026  -0.5970  -0.5626  -0.5609  -0.5448  -0.5064
 -0.5012  -0.4927  -0.4771  -0.4172  -0.4162  -0.3716
 -- Virtual --
  0.0281   0.0492   0.0593   0.0781   0.0803   0.0836   0.1054   0.1087
  0.1185   0.1192   0.1283   0.1336   0.1514   0.1598   0.1629   0.1648
  0.1739   0.1808   0.1911   0.2002   0.2078   0.2137   0.2237   0.2336
  0.2493   0.2569   0.2646   0.2747   0.2799   0.2858   0.2899   0.2953
  0.3102   0.3138   0.3220   0.3259   0.3298   0.3351   0.3440   0.3533
  0.3575   0.3641   0.3726   0.3775   0.3842   0.3876   0.3959   0.4034
  0.4119   0.4163   0.4204   0.4291   0.4365   0.4386   0.4475   0.4539
  0.4589   0.4634   0.4668   0.4760   0.4915   0.4970   0.5022   0.5116
  0.5222   0.5299   0.5358   0.5406   0.5550   0.5643   0.5659   0.5796
  0.5851   0.6003   0.6073   0.6122   0.6208   0.6329   0.6390   0.6499
  0.6571   0.6769   0.6856   0.6880   0.6986   0.7062   0.7097   0.7200
  0.7358   0.7511   0.7572   0.7638   0.7724   0.7795   0.7853   0.7892
  0.8061   0.8086   0.8133   0.8219   0.8272   0.8367   0.8472   0.8540
  0.8735   0.8954   0.9016   0.9254   0.9373   0.9435   0.9525   0.9709
  0.9778   0.9852   1.0083   1.0285   1.0354   1.0513   1.0603   1.0660
  1.0777   1.0986   1.1201   1.1383   1.1431   1.1527   1.1793   1.2060
  1.2117   1.2226   1.2268   1.2504   1.2660   1.2719   1.2997   1.3050
  1.3185   1.3275   1.3332   1.3441   1.3550   1.3826   1.3844   1.4188
  1.4257   1.4453   1.4555   1.4821   1.5000   1.5318   1.5413   1.5594
  1.5677   1.6162   1.6501   1.6674   1.7082   1.7114   1.7270   1.7295
  1.7712   1.8035   1.8286   1.8664   1.8959   1.9108   1.9155   1.9514
  1.9662   1.9766   1.9990   2.0219   2.0379   2.0670   2.0833   2.1007
  2.1465   2.1658   2.2011   2.2289   2.2468   2.2688   2.3050   2.3119
  2.3334   2.3558   2.3697   2.3979   2.4317   2.4641   2.4751   2.5017
  2.5326   2.5677   2.6078   2.6689   2.7178   2.7929   2.8272   2.8415
  2.8466   2.8938   2.8999   2.9155   2.9290   2.9359   2.9534   2.9891
  3.0121   3.0216   3.0415   3.0655   3.0859   3.1004   3.1227   3.1381
  3.1486   3.1829   3.1975   3.2051   3.2285   3.2393   3.2650   3.2707
  3.2824   3.3137   3.3271   3.3372   3.3695   3.3883   3.4009   3.4100
  3.4340   3.4641   3.4750   3.5027   3.5174   3.5221   3.5343   3.5397
  3.5528   3.5618   3.5785   3.5899   3.6142   3.6356   3.6504   3.6563
  3.6725   3.6779   3.7199   3.7430   3.7675   3.8078   3.8215   3.8417
  3.8568   3.8743   3.8940   3.9215   3.9654   3.9705   4.0002   4.0274
  4.1231   4.1402   4.1479   4.1499   4.1562   4.1988   4.2489   4.2702
  4.2749   4.3359   4.3819   4.4063   4.4399   4.4719   4.6016   4.6341
  4.6392   4.6450   4.6738   4.7406   4.7832   4.8204   4.8396   4.8467
  4.8759   4.8800   4.9514   4.9606   5.0330   5.0582   5.0725   5.1215
  5.1493   5.1626   5.2649   5.2831   5.3234   5.3440   5.3550   5.3660
  5.3729   5.4689   5.5032   5.5216   5.5341   5.5861   5.6100   5.6373
  5.6395   5.6803   5.7439   5.7801   5.7958   5.8178   5.9212   5.9318
  5.9885   5.9985   6.0934   6.1251   6.2398   6.2670   6.2702   6.3291
  6.3914   6.4760   6.5652   6.5783   6.6284   6.6369   6.6965   6.7032
  6.7389   6.8473   6.8638   6.9078   6.9451   6.9771   7.0158   7.0461
  7.1012   7.1476   7.1790   7.2435   7.2976   7.3446   7.4147   7.4717
  7.5788   7.6282   7.6922  23.2278  23.4923  23.8201  23.9067  44.1719
 44.4230  44.4617  44.5934
 --------------------------------------------------------------
 
          Ground-State Mulliken Net Atomic Charges

     Atom                 Charge (a.u.)    Spin (a.u.)
  --------------------------------------------------------
      1 O                    -0.212624       0.061588
      2 C                     0.538419       0.009789
      3 C                    -0.168016       0.844359
      4 O                    -0.454491       0.018232
      5 O                    -0.268803       0.006448
      6 C                     0.459026      -0.051588
      7 H                     0.069746      -0.010699
      8 H                     0.030416       0.018069
      9 H                     0.014042       0.039265
     10 H                     0.057564       0.048602
     11 C                     0.290483       0.012486
     12 O                    -0.405298       0.001744
     13 H                     0.049534       0.001706
  --------------------------------------------------------
  Sum of atomic charges =     0.000000
  Sum of spin   charges =     1.000000

  Building new vdw surfaces
         Merz-Kollman RESP Net Atomic Charges

     Atom                 Charge (a.u.)
  ----------------------------------------
      1 O                    -0.325162
      2 C                     0.899098
      3 C                    -0.020625
      4 O                    -0.612668
      5 O                    -0.366009
      6 C                    -0.046903
      7 H                     0.000354
      8 H                     0.168133
      9 H                     0.153748
     10 H                     0.153748
     11 C                     0.420984
     12 O                    -0.469859
     13 H                     0.045158
  ----------------------------------------
  Sum of atomic charges =     0.000000

  Related Dipole Moment =     8.5992 (X -6.1890 Y  5.8136 Z  1.3581)

 -----------------------------------------------------------------
                    Cartesian Multipole Moments
 -----------------------------------------------------------------
    Charge (ESU x 10^10)
                 0.0000
    Dipole Moment (Debye)
         X      -6.1642      Y       5.7636      Z       1.3982
       Tot       8.5541
    Quadrupole Moments (Debye-Ang)
        XX     -21.7993     XY      18.1197     YY     -83.6317
        XZ      -2.3198     YZ      -1.3975     ZZ     -45.8958
    Octopole Moments (Debye-Ang^2)
       XXX     149.9644    XXY      83.9062    XYY      22.6047
       YYY     732.5467    XXZ      -5.5668    XYZ       6.9888
       YYZ     -13.6794    XZZ      76.4384    YZZ     174.7808
       ZZZ     -37.5099
    Hexadecapole Moments (Debye-Ang^3)
      XXXX    -888.8095   XXXY    -598.1940   XXYY    -617.7563
      XYYY    -742.9352   YYYY   -5653.4657   XXXZ      39.3870
      XXYZ      16.4215   XYYZ      -1.5841   YYYZ     145.0055
      XXZZ    -214.4217   XYZZ    -306.5080   YYZZ    -798.1910
      XZZZ      55.5740   YZZZ     123.4330   ZZZZ    -207.8458
 -----------------------------------------------------------------
 Calculating analytic gradient of the SCF energy
 Gradient of CDS energy
            1           2           3           4           5           6
    1   0.0006413   0.0009932  -0.0014745   0.0003290  -0.0004433  -0.0007503
    2   0.0001481  -0.0017324   0.0008037   0.0000392   0.0010230  -0.0000553
    3   0.0005005  -0.0003813   0.0013128   0.0000670  -0.0000660  -0.0014624
            7           8           9          10          11          12
    1   0.0002401   0.0002087   0.0003958   0.0002555   0.0007527  -0.0009483
    2  -0.0004529  -0.0000325  -0.0002177  -0.0000413   0.0016244  -0.0007474
    3  -0.0004271  -0.0002126   0.0001533   0.0000882   0.0004346  -0.0000207
           13
    1  -0.0001998
    2  -0.0003590
    3   0.0000137
 Gradient of SCF Energy
            1           2           3           4           5           6
    1   0.0025240   0.0023374   0.0096891  -0.0042796   0.0022741   0.0082232
    2  -0.0012769  -0.0032656  -0.0017647   0.0040926  -0.0009837  -0.0018700
    3  -0.0000405   0.0009114  -0.0126642   0.0000335  -0.0005781   0.0116695
            7           8           9          10          11          12
    1  -0.0099953  -0.0104600  -0.0005524  -0.0103169  -0.0000953   0.0047863
    2  -0.0001744   0.0006137   0.0088834  -0.0038394  -0.0027149  -0.0071324
    3   0.0067775   0.0099924  -0.0064836  -0.0026304  -0.0028084  -0.0036050
           13
    1   0.0058654
    2   0.0094322
    3  -0.0005742
 Max gradient component =       1.266E-02
 RMS gradient           =       5.909E-03
 Computing fast CPCM-SWIG gradient
 Updating gradient with PCM contributions...
 -- total gradient after adding PCM contribution --
---------------------------------------------------
  Atom         X              Y              Z     
---------------------------------------------------
   1       0.000636      -0.000416      -0.000001
   2      -0.000178       0.000027       0.000017
   3      -0.000348       0.000159      -0.000085
   4      -0.000062       0.000092       0.000088
   5       0.000044       0.000001       0.000029
   6      -0.000064       0.000061      -0.000020
   7      -0.000019       0.000021      -0.000038
   8      -0.000012       0.000052      -0.000009
   9      -0.000006      -0.000003       0.000003
  10      -0.000002      -0.000002       0.000000
  11       0.000009       0.000022       0.000029
  12      -0.000013      -0.000005      -0.000028
  13       0.000014      -0.000010       0.000014
---------------------------------------------------
 Number of fixed atoms: 0
 Gradient time:  CPU 579.81 s  wall 27.58 s
 ----------------------------------------------------------------
             Standard Nuclear Orientation (Angstroms)
    I     Atom           X                Y                Z
 ----------------------------------------------------------------
    1      O      -2.0513898163    -4.4070487241     1.3807016603
    2      C      -1.5010721596    -4.8820463397     0.2291037975
    3      C      -3.1143731743    -3.5920073101     1.0643986986
    4      O      -0.5256776590    -5.5697624191     0.1953164526
    5      O      -2.2241074447    -4.5089287328    -0.8277141075
    6      C      -3.3246244737    -3.6763087178    -0.4077146393
    7      H      -1.6651171651    -1.1818084655     1.2457074079
    8      H      -3.8672603536    -3.4748017475     1.8313959802
    9      H      -3.2508527480    -2.7149395528    -0.9245697203
   10      H      -4.2631656839    -4.1644647767    -0.6913045082
   11      C      -0.7568521341    -1.1419750734     0.6174365890
   12      O      -0.3683393134    -2.1042232596     0.0017220660
   13      H      -0.2199878742    -0.1776248810     0.5806003231
 ----------------------------------------------------------------
 Nuclear Repulsion Energy =         375.33036931 hartrees
 There are       31 alpha and       30 beta electrons
 Discretize the solute cavity surface with Lebedev spheres
	Using 110 Lebedev grid points for each H atom
	Using 194 Lebedev grid points for other atoms
	Atomic van der Waals radii will be scaled by 1.20
 Remove points where switching function is < 1.0e-08
 Keep 931 surface tesserae and discard 1171 interior tesserae
 Molecular Surface Area = 173.410 Angst**2

                       Distance Matrix (Angstroms)
             O (  1)   C (  2)   C (  3)   O (  4)   O (  5)   C (  6)
   C (  2)  1.361855
   C (  3)  1.376326  2.228151
   O (  4)  2.254959  1.193939  3.371671
   O (  5)  2.217501  1.333739  2.283289  2.248694
   C (  6)  2.313772  2.276990  1.489439  3.432625  1.442496
   H (  7)  3.251093  3.840853  2.818204  4.653577  3.959959  3.422032
   H (  8)  2.090358  3.185361  1.081139  4.269870  3.292451  2.312720
   H (  9)  3.101003  3.014805  2.178043  4.102528  2.069296  1.093989
   H ( 10)  3.040396  2.998539  2.174839  4.090205  2.072443  1.095253
   C ( 11)  3.594316  3.833119  3.429335  4.453867  3.946856  3.750632
   O ( 12)  3.168162  3.008502  3.299013  3.474507  3.148722  3.373235
   H ( 13)  4.677844  4.888385  4.502170  5.414521  4.975946  4.780829
             H (  7)   H (  8)   H (  9)   H ( 10)   C ( 11)   O ( 12)
   H (  8)  3.232690
   H (  9)  3.094374  2.924499
   H ( 10)  4.404329  2.645070  1.783343
   C ( 11)  1.105105  4.073134  3.327467  4.810663
   O ( 12)  2.019896  4.179550  3.088669  4.460331  1.206635
   H ( 13)  1.881263  5.073309  4.229615  5.818928  1.104333  2.017149

 
 Requested basis set is def2-TZVPPD
 There are 143 shells and 393 basis functions
 A cutoff of  1.0D-14 yielded   9643 shell pairs
 There are     73759 function pairs (     95014 Cartesian)
 Smallest overlap matrix eigenvalue = 7.37E-06
 Guess MOs from SCF MO coefficient file

 -----------------------------------------------------------------------
  General SCF calculation program by
  Eric Jon Sundstrom, Paul Horn, Yuezhi Mao, Dmitri Zuev, Alec White,
  David Stuck, Shaama M.S., Shane Yost, Joonho Lee, David Small,
  Daniel Levine, Susi Lehtola, Hugh Burton, Evgeny Epifanovsky,
  Bang C. Huynh
 -----------------------------------------------------------------------
 Exchange:     0.1670 Hartree-Fock + 1.0000 wB97X-V + LR-HF
 Correlation:  1.0000 wB97X-V
 Using SG-3 standard quadrature grid
 Nonlocal Correlation:  VV10 with C = 0.0100 and b = 6.00 and scale = 1.00000
 Grid used for NLC:  SG-1 standard quadrature
 
 Citation of the SMD model:
 Marenich, A.V.; Cramer, C.J.; Truhlar, D.G.
 J. Phys. Chem. B 2009, 113, 6378-6396.
 iSolventCode=           0
 Solvent: other                                                           
 
 vradii
            1           2           3           4           5           6
    1   2.2940000   1.8500000   1.8500000   2.2940000   2.2940000   1.8500000
            7           8           9          10          11          12
    1   1.2000000   1.2000000   1.2000000   1.2000000   1.8500000   2.2940000
           13
    1   1.2000000
 using 40 threads for integral computing
 -------------------------------------------------------
 OpenMP Integral computing Module                
 Release: version 1.0, May 2013, Q-Chem Inc. Pittsburgh 
 -------------------------------------------------------
 using 40 threads for integral computing
 -------------------------------------------------------
 OpenMP Integral computing Module                
 Release: version 1.0, May 2013, Q-Chem Inc. Pittsburgh 
 -------------------------------------------------------
 -------------------------------------------------------
 OpenMP BLAS3 based DFT computing Module                
 Release: version 1.0, May 2013, Q-Chem Inc. Pittsburgh 
 -------------------------------------------------------
 -------------------------------------------------------
 OpenMP BLAS3 based DFT computing Module                
 Release: version 1.0, May 2013, Q-Chem Inc. Pittsburgh 
 -------------------------------------------------------
 -------------------------------------------------------
 OpenMP BLAS3 based DFT computing Module                
 Release: version 1.0, May 2013, Q-Chem Inc. Pittsburgh 
 -------------------------------------------------------
 A unrestricted SCF calculation will be
 performed using Roothaan-Hall, DIIS
 SCF converges when DIIS error is below 1.0e-08
 ---------------------------------------
  Cycle       Energy         DIIS error
 ---------------------------------------
    1    -456.6139723848      1.56e-04  Roothaan Step
 ---------------------------------------
  Cycle       Energy         DIIS error
 ---------------------------------------
    1    -456.3029835825      1.99e-04  
    2    -456.3050312887      2.24e-04  
    3    -456.3075828464      2.79e-05  
    4    -456.3076689929      1.54e-05  
    5    -456.3076895996      5.27e-06  
    6    -456.3076930916      2.04e-06  
    7    -456.3076935221      7.56e-07  
    8    -456.3076936262      2.56e-07  
    9    -456.3076936450      1.03e-07  
   10    -456.3076936477      4.89e-08  
   11    -456.3076936480      2.42e-08  
   12    -456.3076936481      7.45e-09  Convergence criterion met
 ---------------------------------------
 SCF time:   CPU 2654.85s  wall 107.00s 
<S^2> =          0.753527239
(3)  G-ENP(liq) elect-nuc-pol free energy of system     -456.307693648 a.u.
(4)  G-CDS(liq) cavity-dispersion-solvent structure 
     free energy                                               -2.3903 kcal/mol
(6)  G-S(liq) free energy of system                     -456.311502855 a.u.
 SCF   energy in the final basis set =     -456.3076936481
 Total energy in the final basis set =     -456.3115028553
 
 --------------------------------------------------------------
 
                    Orbital Energies (a.u.)
 --------------------------------------------------------------
 
 Alpha MOs
 -- Occupied --
-19.2903 -19.2765 -19.2250 -19.2069 -10.4521 -10.3583 -10.3416 -10.3362
 -1.3095  -1.1945  -1.1874  -1.1789  -0.9065  -0.8007  -0.7471  -0.7375
 -0.6576  -0.6426  -0.6099  -0.6018  -0.5641  -0.5625  -0.5549  -0.5115
 -0.5067  -0.5022  -0.4933  -0.4215  -0.4184  -0.3721  -0.2964
 -- Virtual --
  0.0492   0.0588   0.0769   0.0797   0.0829   0.1048   0.1079   0.1175
  0.1184   0.1244   0.1317   0.1505   0.1585   0.1619   0.1641   0.1730
  0.1799   0.1899   0.1961   0.2066   0.2130   0.2230   0.2332   0.2484
  0.2524   0.2630   0.2727   0.2777   0.2826   0.2890   0.2917   0.3092
  0.3111   0.3202   0.3233   0.3282   0.3336   0.3427   0.3504   0.3560
  0.3626   0.3711   0.3762   0.3837   0.3856   0.3936   0.4023   0.4091
  0.4154   0.4199   0.4271   0.4309   0.4372   0.4464   0.4526   0.4583
  0.4611   0.4660   0.4746   0.4890   0.4943   0.5016   0.5102   0.5193
  0.5281   0.5356   0.5397   0.5539   0.5613   0.5640   0.5785   0.5833
  0.5998   0.6050   0.6112   0.6193   0.6321   0.6383   0.6490   0.6559
  0.6752   0.6834   0.6873   0.6971   0.7045   0.7088   0.7183   0.7348
  0.7488   0.7558   0.7624   0.7710   0.7753   0.7832   0.7873   0.8042
  0.8066   0.8122   0.8210   0.8264   0.8363   0.8460   0.8529   0.8728
  0.8944   0.9007   0.9228   0.9354   0.9429   0.9511   0.9705   0.9758
  0.9845   1.0062   1.0275   1.0342   1.0482   1.0582   1.0624   1.0751
  1.0972   1.1183   1.1372   1.1407   1.1498   1.1721   1.2045   1.2093
  1.2212   1.2254   1.2465   1.2620   1.2685   1.2959   1.3034   1.3174
  1.3234   1.3321   1.3411   1.3525   1.3804   1.3830   1.4180   1.4209
  1.4440   1.4533   1.4795   1.4935   1.5304   1.5360   1.5576   1.5627
  1.6130   1.6481   1.6617   1.7053   1.7092   1.7215   1.7252   1.7692
  1.7981   1.8279   1.8644   1.8905   1.9080   1.9129   1.9477   1.9646
  1.9741   1.9970   2.0195   2.0322   2.0640   2.0792   2.0964   2.1440
  2.1566   2.1943   2.2243   2.2404   2.2639   2.2974   2.3085   2.3311
  2.3513   2.3667   2.3942   2.4282   2.4620   2.4722   2.4999   2.5294
  2.5617   2.6033   2.6666   2.7151   2.7857   2.8214   2.8378   2.8412
  2.8848   2.8982   2.9096   2.9260   2.9319   2.9465   2.9827   3.0098
  3.0179   3.0373   3.0580   3.0751   3.0994   3.1208   3.1359   3.1458
  3.1785   3.1962   3.1991   3.2264   3.2363   3.2614   3.2662   3.2784
  3.3027   3.3195   3.3230   3.3539   3.3831   3.3945   3.3994   3.4296
  3.4563   3.4640   3.5012   3.5126   3.5191   3.5309   3.5351   3.5432
  3.5555   3.5723   3.5885   3.6073   3.6326   3.6460   3.6516   3.6687
  3.6744   3.7164   3.7409   3.7614   3.8022   3.8174   3.8378   3.8534
  3.8704   3.8922   3.9165   3.9558   3.9700   3.9925   4.0219   4.1224
  4.1364   4.1446   4.1490   4.1527   4.1911   4.2466   4.2668   4.2727
  4.3328   4.3769   4.4016   4.4377   4.4687   4.5956   4.6303   4.6382
  4.6434   4.6735   4.7382   4.7829   4.8158   4.8321   4.8450   4.8703
  4.8796   4.9385   4.9579   5.0301   5.0540   5.0667   5.1136   5.1483
  5.1575   5.2595   5.2815   5.3193   5.3437   5.3540   5.3647   5.3726
  5.4655   5.5023   5.5180   5.5288   5.5830   5.6078   5.6332   5.6347
  5.6773   5.7391   5.7769   5.7957   5.8143   5.9144   5.9281   5.9861
  5.9982   6.0922   6.1203   6.2386   6.2657   6.2688   6.3259   6.3896
  6.4751   6.5643   6.5755   6.6284   6.6349   6.6952   6.7010   6.7386
  6.8388   6.8631   6.9077   6.9417   6.9680   7.0142   7.0456   7.1003
  7.1433   7.1782   7.2419   7.2970   7.3445   7.4136   7.4696   7.5766
  7.6269   7.6910  23.2194  23.4907  23.8200  23.9043  44.1718  44.4214
 44.4611  44.5922
 
 Beta MOs
 -- Occupied --
-19.2876 -19.2764 -19.2250 -19.2065 -10.4521 -10.3582 -10.3420 -10.3250
 -1.3056  -1.1898  -1.1874  -1.1779  -0.8939  -0.7886  -0.7467  -0.7321
 -0.6477  -0.6375  -0.6025  -0.5969  -0.5627  -0.5610  -0.5448  -0.5064
 -0.5013  -0.4926  -0.4773  -0.4174  -0.4163  -0.3716
 -- Virtual --
  0.0283   0.0492   0.0593   0.0781   0.0803   0.0836   0.1054   0.1087
  0.1185   0.1192   0.1283   0.1335   0.1514   0.1598   0.1629   0.1648
  0.1739   0.1808   0.1911   0.2002   0.2078   0.2136   0.2238   0.2336
  0.2493   0.2569   0.2646   0.2746   0.2799   0.2858   0.2899   0.2953
  0.3102   0.3139   0.3220   0.3260   0.3298   0.3352   0.3440   0.3533
  0.3575   0.3640   0.3726   0.3775   0.3842   0.3876   0.3959   0.4035
  0.4119   0.4163   0.4205   0.4290   0.4366   0.4386   0.4476   0.4538
  0.4589   0.4634   0.4668   0.4760   0.4915   0.4970   0.5022   0.5116
  0.5222   0.5300   0.5358   0.5406   0.5550   0.5643   0.5659   0.5796
  0.5851   0.6002   0.6072   0.6122   0.6207   0.6329   0.6390   0.6499
  0.6571   0.6769   0.6856   0.6880   0.6986   0.7062   0.7097   0.7200
  0.7357   0.7510   0.7572   0.7638   0.7725   0.7795   0.7853   0.7892
  0.8061   0.8086   0.8132   0.8219   0.8273   0.8367   0.8472   0.8540
  0.8735   0.8954   0.9016   0.9253   0.9373   0.9435   0.9524   0.9709
  0.9778   0.9852   1.0083   1.0285   1.0353   1.0513   1.0602   1.0660
  1.0777   1.0987   1.1202   1.1381   1.1431   1.1527   1.1795   1.2060
  1.2116   1.2227   1.2268   1.2504   1.2661   1.2720   1.2997   1.3050
  1.3185   1.3275   1.3332   1.3442   1.3548   1.3828   1.3844   1.4188
  1.4258   1.4453   1.4555   1.4821   1.5000   1.5318   1.5413   1.5594
  1.5678   1.6161   1.6501   1.6674   1.7083   1.7114   1.7269   1.7296
  1.7712   1.8034   1.8287   1.8665   1.8960   1.9108   1.9154   1.9514
  1.9662   1.9767   1.9990   2.0220   2.0379   2.0670   2.0833   2.1008
  2.1466   2.1657   2.2009   2.2292   2.2468   2.2688   2.3051   2.3118
  2.3335   2.3560   2.3695   2.3978   2.4318   2.4642   2.4750   2.5017
  2.5326   2.5677   2.6080   2.6687   2.7183   2.7926   2.8272   2.8415
  2.8467   2.8941   2.9000   2.9156   2.9290   2.9359   2.9535   2.9891
  3.0120   3.0216   3.0415   3.0658   3.0860   3.1004   3.1227   3.1381
  3.1486   3.1829   3.1975   3.2053   3.2284   3.2393   3.2651   3.2708
  3.2824   3.3139   3.3272   3.3372   3.3694   3.3884   3.4011   3.4102
  3.4340   3.4636   3.4750   3.5026   3.5175   3.5220   3.5344   3.5398
  3.5529   3.5619   3.5786   3.5899   3.6144   3.6357   3.6504   3.6565
  3.6726   3.6781   3.7198   3.7429   3.7676   3.8078   3.8213   3.8417
  3.8570   3.8744   3.8941   3.9216   3.9656   3.9705   4.0005   4.0276
  4.1231   4.1403   4.1478   4.1500   4.1562   4.1991   4.2490   4.2706
  4.2750   4.3360   4.3823   4.4064   4.4399   4.4719   4.6018   4.6343
  4.6392   4.6448   4.6738   4.7409   4.7831   4.8204   4.8396   4.8467
  4.8760   4.8800   4.9512   4.9609   5.0329   5.0585   5.0724   5.1216
  5.1493   5.1624   5.2649   5.2829   5.3237   5.3440   5.3550   5.3659
  5.3729   5.4690   5.5032   5.5217   5.5340   5.5860   5.6100   5.6372
  5.6397   5.6803   5.7443   5.7801   5.7958   5.8183   5.9226   5.9325
  5.9883   5.9985   6.0939   6.1261   6.2400   6.2670   6.2700   6.3300
  6.3912   6.4759   6.5653   6.5785   6.6284   6.6368   6.6967   6.7029
  6.7389   6.8477   6.8637   6.9078   6.9452   6.9774   7.0157   7.0461
  7.1012   7.1472   7.1789   7.2434   7.2977   7.3447   7.4148   7.4717
  7.5781   7.6281   7.6915  23.2303  23.4928  23.8201  23.9048  44.1718
 44.4229  44.4618  44.5938
 --------------------------------------------------------------
 
          Ground-State Mulliken Net Atomic Charges

     Atom                 Charge (a.u.)    Spin (a.u.)
  --------------------------------------------------------
      1 O                    -0.212615       0.062032
      2 C                     0.537875       0.009796
      3 C                    -0.167558       0.843828
      4 O                    -0.454058       0.018295
      5 O                    -0.268802       0.006460
      6 C                     0.458758      -0.051620
      7 H                     0.069790      -0.010735
      8 H                     0.030381       0.018165
      9 H                     0.013990       0.039209
     10 H                     0.057546       0.048596
     11 C                     0.290475       0.012528
     12 O                    -0.405328       0.001737
     13 H                     0.049547       0.001708
  --------------------------------------------------------
  Sum of atomic charges =     0.000000
  Sum of spin   charges =     1.000000

  Building new vdw surfaces
         Merz-Kollman RESP Net Atomic Charges

     Atom                 Charge (a.u.)
  ----------------------------------------
      1 O                    -0.325196
      2 C                     0.899049
      3 C                    -0.020394
      4 O                    -0.612198
      5 O                    -0.365713
      6 C                    -0.047421
      7 H                     0.000132
      8 H                     0.167864
      9 H                     0.153761
     10 H                     0.153761
     11 C                     0.421240
     12 O                    -0.470047
     13 H                     0.045163
  ----------------------------------------
  Sum of atomic charges =     0.000000

  Related Dipole Moment =     8.5876 (X -6.1790 Y  5.8076 Z  1.3563)

 -----------------------------------------------------------------
                    Cartesian Multipole Moments
 -----------------------------------------------------------------
    Charge (ESU x 10^10)
                 0.0000
    Dipole Moment (Debye)
         X      -6.1542      Y       5.7573      Z       1.3962
       Tot       8.5423
    Quadrupole Moments (Debye-Ang)
        XX     -21.8412     XY      18.0891     YY     -83.5751
        XZ      -2.3094     YZ      -1.3914     ZZ     -45.8994
    Octopole Moments (Debye-Ang^2)
       XXX     150.1604    XXY      84.0445    XYY      22.7056
       YYY     732.1510    XXZ      -5.6066    XYZ       6.9533
       YYZ     -13.7004    XZZ      76.4730    YZZ     174.7876
       ZZZ     -37.5158
    Hexadecapole Moments (Debye-Ang^3)
      XXXX    -889.7169   XXXY    -598.8890   XXYY    -618.2657
      XYYY    -743.3078   YYYY   -5650.8936   XXXZ      39.5741
      XXYZ      16.5551   XYYZ      -1.4421   YYYZ     145.0892
      XXZZ    -214.5615   XYZZ    -306.6321   YYZZ    -798.1884
      XZZZ      55.6477   YZZZ     123.4507   ZZZZ    -207.8604
 -----------------------------------------------------------------
 Calculating analytic gradient of the SCF energy
 Gradient of CDS energy
            1           2           3           4           5           6
    1   0.0006304   0.0009999  -0.0014705   0.0003290  -0.0004433  -0.0007502
    2   0.0001545  -0.0017354   0.0008009   0.0000385   0.0010230  -0.0000553
    3   0.0005039  -0.0003828   0.0013142   0.0000639  -0.0000660  -0.0014622
            7           8           9          10          11          12
    1   0.0002401   0.0002087   0.0003958   0.0002555   0.0007527  -0.0009483
    2  -0.0004529  -0.0000325  -0.0002177  -0.0000413   0.0016241  -0.0007470
    3  -0.0004271  -0.0002126   0.0001533   0.0000882   0.0004348  -0.0000213
           13
    1  -0.0001998
    2  -0.0003590
    3   0.0000137
 Gradient of SCF Energy
            1           2           3           4           5           6
    1   0.0012249   0.0026825   0.0103517  -0.0041315   0.0022214   0.0083062
    2  -0.0004375  -0.0033381  -0.0022142   0.0039188  -0.0010083  -0.0019502
    3  -0.0000525   0.0007933  -0.0124494  -0.0001583  -0.0005943   0.0117311
            7           8           9          10          11          12
    1  -0.0099875  -0.0103603  -0.0005520  -0.0103062  -0.0000947   0.0047820
    2  -0.0001721   0.0005533   0.0088813  -0.0038244  -0.0027239  -0.0071164
    3   0.0067740   0.0100205  -0.0064657  -0.0026102  -0.0028092  -0.0036069
           13
    1   0.0058635
    2   0.0094315
    3  -0.0005724
 Max gradient component =       1.245E-02
 RMS gradient           =       5.916E-03
 Computing fast CPCM-SWIG gradient
 Updating gradient with PCM contributions...
 -- total gradient after adding PCM contribution --
---------------------------------------------------
  Atom         X              Y              Z     
---------------------------------------------------
   1      -0.000653       0.000418      -0.000011
   2       0.000164      -0.000037      -0.000093
   3       0.000337      -0.000304       0.000105
   4       0.000092      -0.000087      -0.000112
   5      -0.000007      -0.000024       0.000012
   6       0.000024      -0.000016       0.000057
   7      -0.000020       0.000022      -0.000037
   8       0.000059       0.000002       0.000041
   9      -0.000004       0.000007       0.000013
  10      -0.000006       0.000007       0.000016
  11       0.000013       0.000014       0.000024
  12      -0.000012       0.000008      -0.000031
  13       0.000013      -0.000009       0.000016
---------------------------------------------------
 Number of fixed atoms: 0
 Gradient time:  CPU 574.15 s  wall 27.00 s
 ----------------------------------------------------------------
             Standard Nuclear Orientation (Angstroms)
    I     Atom           X                Y                Z
 ----------------------------------------------------------------
    1      O      -2.0503898163    -4.4060487241     1.3807016603
    2      C      -1.5010721596    -4.8820463397     0.2291037975
    3      C      -3.1143731743    -3.5920073101     1.0643986986
    4      O      -0.5256776590    -5.5697624191     0.1953164526
    5      O      -2.2241074447    -4.5089287328    -0.8277141075
    6      C      -3.3246244737    -3.6763087178    -0.4077146393
    7      H      -1.6651171651    -1.1818084655     1.2457074079
    8      H      -3.8672603536    -3.4748017475     1.8313959802
    9      H      -3.2508527480    -2.7149395528    -0.9245697203
   10      H      -4.2631656839    -4.1644647767    -0.6913045082
   11      C      -0.7568521341    -1.1419750734     0.6174365890
   12      O      -0.3683393134    -2.1042232596     0.0017220660
   13      H      -0.2199878742    -0.1776248810     0.5806003231
 ----------------------------------------------------------------
 Nuclear Repulsion Energy =         375.33459144 hartrees
 There are       31 alpha and       30 beta electrons
 Discretize the solute cavity surface with Lebedev spheres
	Using 110 Lebedev grid points for each H atom
	Using 194 Lebedev grid points for other atoms
	Atomic van der Waals radii will be scaled by 1.20
 Remove points where switching function is < 1.0e-08
 Keep 931 surface tesserae and discard 1171 interior tesserae
 Molecular Surface Area = 173.403 Angst**2

                       Distance Matrix (Angstroms)
             O (  1)   C (  2)   C (  3)   O (  4)   O (  5)   C (  6)
   C (  2)  1.361801
   C (  3)  1.376507  2.228151
   O (  4)  2.254798  1.193939  3.371671
   O (  5)  2.217625  1.333739  2.283289  2.248694
   C (  6)  2.314007  2.276990  1.489439  3.432625  1.442496
   H (  7)  3.249982  3.840853  2.818204  4.653577  3.959959  3.422032
   H (  8)  2.090781  3.185361  1.081139  4.269870  3.292451  2.312720
   H (  9)  3.100845  3.014805  2.178043  4.102528  2.069296  1.093989
   H ( 10)  3.041044  2.998539  2.174839  4.090205  2.072443  1.095253
   C ( 11)  3.593047  3.833119  3.429335  4.453867  3.946856  3.750632
   O ( 12)  3.166904  3.008502  3.299013  3.474507  3.148722  3.373235
   H ( 13)  4.676548  4.888385  4.502170  5.414521  4.975946  4.780829
             H (  7)   H (  8)   H (  9)   H ( 10)   C ( 11)   O ( 12)
   H (  8)  3.232690
   H (  9)  3.094374  2.924499
   H ( 10)  4.404329  2.645070  1.783343
   C ( 11)  1.105105  4.073134  3.327467  4.810663
   O ( 12)  2.019896  4.179550  3.088669  4.460331  1.206635
   H ( 13)  1.881263  5.073309  4.229615  5.818928  1.104333  2.017149

 
 Requested basis set is def2-TZVPPD
 There are 143 shells and 393 basis functions
 A cutoff of  1.0D-14 yielded   9643 shell pairs
 There are     73759 function pairs (     95014 Cartesian)
 Smallest overlap matrix eigenvalue = 7.37E-06
 Guess MOs from SCF MO coefficient file

 -----------------------------------------------------------------------
  General SCF calculation program by
  Eric Jon Sundstrom, Paul Horn, Yuezhi Mao, Dmitri Zuev, Alec White,
  David Stuck, Shaama M.S., Shane Yost, Joonho Lee, David Small,
  Daniel Levine, Susi Lehtola, Hugh Burton, Evgeny Epifanovsky,
  Bang C. Huynh
 -----------------------------------------------------------------------
 Exchange:     0.1670 Hartree-Fock + 1.0000 wB97X-V + LR-HF
 Correlation:  1.0000 wB97X-V
 Using SG-3 standard quadrature grid
 Nonlocal Correlation:  VV10 with C = 0.0100 and b = 6.00 and scale = 1.00000
 Grid used for NLC:  SG-1 standard quadrature
 
 Citation of the SMD model:
 Marenich, A.V.; Cramer, C.J.; Truhlar, D.G.
 J. Phys. Chem. B 2009, 113, 6378-6396.
 iSolventCode=           0
 Solvent: other                                                           
 
 vradii
            1           2           3           4           5           6
    1   2.2940000   1.8500000   1.8500000   2.2940000   2.2940000   1.8500000
            7           8           9          10          11          12
    1   1.2000000   1.2000000   1.2000000   1.2000000   1.8500000   2.2940000
           13
    1   1.2000000
 using 40 threads for integral computing
 -------------------------------------------------------
 OpenMP Integral computing Module                
 Release: version 1.0, May 2013, Q-Chem Inc. Pittsburgh 
 -------------------------------------------------------
 using 40 threads for integral computing
 -------------------------------------------------------
 OpenMP Integral computing Module                
 Release: version 1.0, May 2013, Q-Chem Inc. Pittsburgh 
 -------------------------------------------------------
 -------------------------------------------------------
 OpenMP BLAS3 based DFT computing Module                
 Release: version 1.0, May 2013, Q-Chem Inc. Pittsburgh 
 -------------------------------------------------------
 -------------------------------------------------------
 OpenMP BLAS3 based DFT computing Module                
 Release: version 1.0, May 2013, Q-Chem Inc. Pittsburgh 
 -------------------------------------------------------
 -------------------------------------------------------
 OpenMP BLAS3 based DFT computing Module                
 Release: version 1.0, May 2013, Q-Chem Inc. Pittsburgh 
 -------------------------------------------------------
 A unrestricted SCF calculation will be
 performed using Roothaan-Hall, DIIS
 SCF converges when DIIS error is below 1.0e-08
 ---------------------------------------
  Cycle       Energy         DIIS error
 ---------------------------------------
    1    -456.6136775422      1.56e-04  Roothaan Step
 ---------------------------------------
  Cycle       Energy         DIIS error
 ---------------------------------------
    1    -456.3029843293      1.99e-04  
    2    -456.3050298749      2.24e-04  
    3    -456.3075843868      2.78e-05  
    4    -456.3076706894      1.54e-05  
    5    -456.3076913081      5.29e-06  
    6    -456.3076948267      2.04e-06  
    7    -456.3076952622      7.61e-07  
    8    -456.3076953679      2.58e-07  
    9    -456.3076953870      1.04e-07  
   10    -456.3076953898      4.95e-08  
   11    -456.3076953901      2.42e-08  
   12    -456.3076953902      7.42e-09  Convergence criterion met
 ---------------------------------------
 SCF time:   CPU 2662.73s  wall 107.00s 
<S^2> =          0.753529336
(3)  G-ENP(liq) elect-nuc-pol free energy of system     -456.307695390 a.u.
(4)  G-CDS(liq) cavity-dispersion-solvent structure 
     free energy                                               -2.3894 kcal/mol
(6)  G-S(liq) free energy of system                     -456.311503111 a.u.
 SCF   energy in the final basis set =     -456.3076953902
 Total energy in the final basis set =     -456.3115031110
 
 --------------------------------------------------------------
 
                    Orbital Energies (a.u.)
 --------------------------------------------------------------
 
 Alpha MOs
 -- Occupied --
-19.2903 -19.2765 -19.2250 -19.2069 -10.4521 -10.3583 -10.3416 -10.3363
 -1.3094  -1.1944  -1.1874  -1.1789  -0.9065  -0.8007  -0.7471  -0.7375
 -0.6576  -0.6426  -0.6099  -0.6018  -0.5641  -0.5625  -0.5549  -0.5115
 -0.5066  -0.5023  -0.4933  -0.4215  -0.4184  -0.3721  -0.2964
 -- Virtual --
  0.0492   0.0588   0.0769   0.0797   0.0829   0.1048   0.1079   0.1175
  0.1184   0.1244   0.1317   0.1505   0.1585   0.1619   0.1641   0.1730
  0.1799   0.1899   0.1961   0.2066   0.2130   0.2231   0.2332   0.2484
  0.2524   0.2630   0.2728   0.2777   0.2826   0.2890   0.2917   0.3092
  0.3111   0.3203   0.3233   0.3282   0.3336   0.3427   0.3505   0.3560
  0.3627   0.3711   0.3761   0.3837   0.3856   0.3936   0.4023   0.4091
  0.4154   0.4199   0.4271   0.4309   0.4372   0.4464   0.4526   0.4583
  0.4611   0.4660   0.4746   0.4890   0.4943   0.5016   0.5102   0.5193
  0.5281   0.5356   0.5398   0.5539   0.5612   0.5641   0.5786   0.5833
  0.5998   0.6050   0.6113   0.6193   0.6321   0.6383   0.6490   0.6559
  0.6752   0.6834   0.6872   0.6970   0.7045   0.7088   0.7182   0.7348
  0.7487   0.7558   0.7624   0.7710   0.7753   0.7832   0.7873   0.8042
  0.8066   0.8123   0.8210   0.8263   0.8363   0.8459   0.8529   0.8728
  0.8944   0.9007   0.9228   0.9355   0.9429   0.9512   0.9705   0.9758
  0.9845   1.0062   1.0275   1.0343   1.0482   1.0583   1.0624   1.0752
  1.0972   1.1182   1.1373   1.1407   1.1498   1.1719   1.2045   1.2093
  1.2211   1.2254   1.2465   1.2621   1.2684   1.2959   1.3034   1.3173
  1.3234   1.3321   1.3411   1.3527   1.3804   1.3830   1.4180   1.4209
  1.4441   1.4534   1.4796   1.4935   1.5304   1.5360   1.5576   1.5627
  1.6130   1.6480   1.6617   1.7052   1.7092   1.7216   1.7252   1.7692
  1.7980   1.8279   1.8643   1.8905   1.9081   1.9129   1.9478   1.9645
  1.9742   1.9970   2.0195   2.0322   2.0641   2.0792   2.0964   2.1440
  2.1565   2.1944   2.2244   2.2404   2.2639   2.2974   2.3084   2.3311
  2.3512   2.3667   2.3942   2.4281   2.4620   2.4723   2.4999   2.5294
  2.5616   2.6034   2.6667   2.7151   2.7859   2.8213   2.8379   2.8411
  2.8846   2.8981   2.9096   2.9260   2.9319   2.9465   2.9828   3.0099
  3.0179   3.0373   3.0580   3.0751   3.0993   3.1209   3.1358   3.1458
  3.1785   3.1962   3.1991   3.2265   3.2364   3.2614   3.2663   3.2784
  3.3027   3.3194   3.3229   3.3539   3.3832   3.3944   3.3992   3.4296
  3.4564   3.4641   3.5012   3.5125   3.5191   3.5309   3.5351   3.5431
  3.5554   3.5723   3.5885   3.6073   3.6325   3.6460   3.6515   3.6686
  3.6744   3.7164   3.7410   3.7614   3.8022   3.8175   3.8378   3.8532
  3.8704   3.8922   3.9164   3.9558   3.9700   3.9925   4.0219   4.1224
  4.1364   4.1448   4.1490   4.1527   4.1910   4.2466   4.2667   4.2727
  4.3328   4.3768   4.4017   4.4377   4.4687   4.5955   4.6302   4.6382
  4.6434   4.6735   4.7381   4.7829   4.8159   4.8321   4.8450   4.8703
  4.8796   4.9385   4.9579   5.0301   5.0539   5.0668   5.1134   5.1484
  5.1577   5.2595   5.2815   5.3189   5.3437   5.3540   5.3647   5.3726
  5.4655   5.5023   5.5180   5.5289   5.5831   5.6078   5.6332   5.6345
  5.6771   5.7390   5.7768   5.7957   5.8143   5.9143   5.9281   5.9863
  5.9982   6.0921   6.1203   6.2386   6.2657   6.2688   6.3258   6.3896
  6.4751   6.5643   6.5754   6.6284   6.6349   6.6952   6.7010   6.7386
  6.8387   6.8631   6.9077   6.9418   6.9679   7.0142   7.0456   7.1003
  7.1434   7.1782   7.2419   7.2970   7.3445   7.4136   7.4696   7.5767
  7.6269   7.6912  23.2191  23.4907  23.8200  23.9044  44.1718  44.4213
 44.4610  44.5922
 
 Beta MOs
 -- Occupied --
-19.2876 -19.2764 -19.2250 -19.2065 -10.4521 -10.3582 -10.3421 -10.3250
 -1.3056  -1.1898  -1.1874  -1.1779  -0.8939  -0.7886  -0.7467  -0.7321
 -0.6477  -0.6375  -0.6025  -0.5969  -0.5627  -0.5610  -0.5448  -0.5064
 -0.5013  -0.4926  -0.4772  -0.4173  -0.4162  -0.3716
 -- Virtual --
  0.0283   0.0492   0.0593   0.0781   0.0803   0.0836   0.1054   0.1087
  0.1185   0.1192   0.1283   0.1335   0.1514   0.1598   0.1629   0.1648
  0.1739   0.1808   0.1911   0.2002   0.2078   0.2137   0.2238   0.2336
  0.2492   0.2569   0.2646   0.2747   0.2799   0.2858   0.2899   0.2953
  0.3102   0.3138   0.3220   0.3260   0.3298   0.3352   0.3440   0.3533
  0.3575   0.3640   0.3726   0.3774   0.3842   0.3876   0.3960   0.4035
  0.4119   0.4163   0.4204   0.4290   0.4366   0.4386   0.4476   0.4538
  0.4589   0.4634   0.4668   0.4760   0.4915   0.4970   0.5022   0.5116
  0.5222   0.5300   0.5358   0.5406   0.5550   0.5643   0.5659   0.5796
  0.5851   0.6002   0.6073   0.6122   0.6208   0.6329   0.6390   0.6499
  0.6571   0.6769   0.6856   0.6880   0.6985   0.7063   0.7097   0.7200
  0.7358   0.7510   0.7572   0.7638   0.7725   0.7795   0.7853   0.7892
  0.8061   0.8086   0.8133   0.8219   0.8272   0.8367   0.8472   0.8540
  0.8735   0.8954   0.9016   0.9254   0.9373   0.9435   0.9524   0.9709
  0.9778   0.9852   1.0083   1.0285   1.0354   1.0513   1.0603   1.0661
  1.0777   1.0987   1.1201   1.1382   1.1431   1.1527   1.1794   1.2059
  1.2117   1.2226   1.2268   1.2504   1.2661   1.2719   1.2997   1.3051
  1.3184   1.3276   1.3332   1.3442   1.3549   1.3827   1.3845   1.4187
  1.4258   1.4453   1.4555   1.4821   1.5001   1.5318   1.5414   1.5594
  1.5678   1.6161   1.6501   1.6674   1.7083   1.7114   1.7270   1.7296
  1.7712   1.8034   1.8286   1.8665   1.8960   1.9108   1.9154   1.9514
  1.9661   1.9767   1.9990   2.0220   2.0379   2.0670   2.0833   2.1008
  2.1466   2.1657   2.2011   2.2292   2.2467   2.2689   2.3050   2.3118
  2.3335   2.3560   2.3696   2.3978   2.4317   2.4641   2.4750   2.5017
  2.5327   2.5677   2.6080   2.6687   2.7183   2.7927   2.8272   2.8416
  2.8466   2.8939   2.8999   2.9156   2.9290   2.9359   2.9535   2.9892
[...]
 H          0.236 -0.272  0.370    0.211 -0.374  0.206   -0.241  0.291 -0.482
 H         -0.031  0.042 -0.050   -0.191 -0.239  0.018    0.015  0.024  0.023
 H         -0.101 -0.132 -0.121   -0.192  0.016  0.088   -0.311 -0.215 -0.095
 H         -0.052 -0.147  0.007   -0.026 -0.118 -0.039   -0.125 -0.310  0.129
 C          0.149 -0.151  0.251   -0.001 -0.198 -0.089    0.086  0.108 -0.021
 O         -0.087  0.040 -0.197    0.147 -0.203  0.013    0.185  0.042  0.145
 H          0.285 -0.216  0.560   -0.355 -0.016 -0.482    0.319 -0.009  0.284
 TransDip   0.046 -0.079  0.101   -0.060 -0.058 -0.026   -0.061 -0.032 -0.030

 Mode:                 4                      5                      6
 Frequency:        87.76                  93.16                 128.12
 Force Cnst:      0.0139                 0.0193                 0.0152
 Red. Mass:       3.0615                 3.7719                 1.5707
 IR Active:          YES                    YES                    YES
 IR Intens:       13.190                  6.717                  6.872
 Raman Active:       YES                    YES                    YES
               X      Y      Z        X      Y      Z        X      Y      Z
 O         -0.047 -0.054  0.012   -0.129 -0.172  0.034   -0.025 -0.038  0.024
 C         -0.038 -0.052  0.015   -0.009 -0.010  0.023   -0.001  0.006  0.015
 C         -0.047 -0.054  0.007   -0.126 -0.165  0.039   -0.031 -0.041  0.037
 O         -0.053 -0.073  0.023    0.033  0.049  0.028    0.002  0.011  0.012
 O         -0.002 -0.007  0.006    0.057  0.071  0.009    0.020  0.046  0.017
 C         -0.027 -0.037  0.003   -0.004 -0.012  0.012    0.030  0.056  0.022
 H          0.271 -0.418  0.426    0.287  0.463  0.009   -0.439 -0.078 -0.547
 H         -0.056 -0.062 -0.001   -0.196 -0.283 -0.012   -0.062 -0.104  0.016
 H         -0.041 -0.027  0.019    0.005  0.047  0.125    0.086  0.084  0.081
 H         -0.013 -0.053 -0.016    0.035 -0.014 -0.117    0.026  0.107 -0.048
 C         -0.014  0.039  0.043    0.258  0.172 -0.051   -0.074 -0.077 -0.019
 O          0.220  0.228 -0.106   -0.095  0.050 -0.082    0.074  0.034 -0.100
 H         -0.527  0.315 -0.198    0.567 -0.001 -0.083    0.153 -0.180  0.594
 TransDip  -0.084 -0.071  0.039    0.082  0.011 -0.007   -0.063 -0.050  0.023

 Mode:                 7                      8                      9
 Frequency:       182.93                 232.31                 518.61
 Force Cnst:      0.0536                 0.1703                 0.2173
 Red. Mass:       2.7194                 5.3544                 1.3713
 IR Active:          YES                    YES                    YES
 IR Intens:        2.185                  0.903                 52.757
 Raman Active:       YES                    YES                    YES
               X      Y      Z        X      Y      Z        X      Y      Z
 O         -0.048 -0.064  0.008    0.209  0.278 -0.025    0.024  0.021  0.035
 C          0.009  0.011  0.004    0.043  0.057 -0.008    0.006  0.008  0.033
 C          0.094  0.117 -0.017   -0.178 -0.209  0.031   -0.067 -0.130 -0.045
 O         -0.046 -0.069  0.018   -0.151 -0.224  0.019   -0.005 -0.006 -0.040
 O          0.143  0.199 -0.019    0.106  0.140 -0.016    0.009  0.016  0.034
 C         -0.090 -0.138  0.025   -0.033 -0.053  0.001   -0.016 -0.002 -0.029
 H         -0.045 -0.026 -0.042   -0.006  0.091 -0.032    0.000  0.006 -0.002
 H          0.181  0.363  0.031   -0.294 -0.721 -0.002    0.361  0.844  0.197
 H         -0.541 -0.183 -0.112   -0.100  0.021  0.127    0.093  0.063  0.093
 H          0.047 -0.541  0.235    0.049 -0.123 -0.140    0.005  0.077 -0.246
 C         -0.012 -0.029  0.007    0.016  0.022 -0.006    0.001  0.001 -0.001
 O         -0.029 -0.008 -0.035   -0.032 -0.009  0.012   -0.001 -0.000  0.000
 H          0.038 -0.053  0.095    0.084 -0.016  0.006    0.005 -0.001  0.001
 TransDip  -0.030 -0.028  0.023    0.007 -0.026 -0.015    0.057  0.201  0.101

 Mode:                10                     11                     12
 Frequency:       543.41                 738.22                 785.38
 Force Cnst:      1.1929                 3.9121                 4.5171
 Red. Mass:       6.8564                12.1841                12.4295
 IR Active:          YES                    YES                    YES
 IR Intens:        2.976                  9.739                 53.045
 Raman Active:       YES                    YES                    YES
               X      Y      Z        X      Y      Z        X      Y      Z
 O          0.096 -0.063 -0.234   -0.143  0.058 -0.287   -0.137 -0.172 -0.003
 C         -0.010 -0.005 -0.199    0.307 -0.197  0.005    0.507  0.742 -0.084
 C          0.080 -0.143  0.068   -0.236  0.173 -0.069    0.005  0.012  0.026
 O          0.032  0.018  0.427    0.411 -0.296 -0.028   -0.166 -0.207  0.016
 O         -0.097  0.044 -0.221   -0.062  0.077  0.321   -0.101 -0.183  0.021
 C         -0.125  0.095  0.106   -0.301  0.220  0.059    0.014 -0.028  0.012
 H          0.001  0.003  0.001   -0.002  0.005 -0.002   -0.003 -0.001 -0.002
 H          0.449  0.274  0.351   -0.066 -0.001  0.131    0.033  0.091  0.038
 H         -0.107  0.181  0.267   -0.192  0.125 -0.108    0.085 -0.039  0.000
 H         -0.160  0.182  0.081   -0.223  0.131 -0.061   -0.006  0.026  0.001
 C         -0.000  0.001 -0.000    0.000 -0.001 -0.000   -0.003  0.008  0.005
 O          0.000 -0.001  0.002   -0.004 -0.001 -0.000    0.004  0.007 -0.005
 H          0.001  0.001 -0.002    0.005 -0.002  0.004    0.004 -0.000  0.007
 TransDip  -0.004  0.055 -0.004   -0.083  0.055 -0.007    0.127  0.196 -0.002

 Mode:                13                     14                     15
 Frequency:       803.57                 932.69                 987.67
 Force Cnst:      2.2613                 4.0701                 0.9897
 Red. Mass:       5.9439                 7.9412                 1.7220
 IR Active:          YES                    YES                    YES
 IR Intens:        4.354                  8.358                  6.951
 Raman Active:       YES                    YES                    YES
               X      Y      Z        X      Y      Z        X      Y      Z
 O         -0.185  0.145 -0.114   -0.000  0.037  0.438   -0.019  0.026 -0.006
 C         -0.008 -0.042 -0.124    0.136 -0.071 -0.055    0.009 -0.005 -0.014
 C         -0.212  0.123  0.268   -0.071  0.051  0.047   -0.032 -0.111 -0.101
 O          0.023 -0.014 -0.067    0.172 -0.128 -0.009    0.008 -0.005  0.003
 O          0.166 -0.126 -0.159   -0.001 -0.051 -0.376   -0.048  0.001  0.007
 C          0.181 -0.113  0.246   -0.209  0.160 -0.053    0.139  0.087  0.096
 H          0.001  0.001  0.001   -0.001  0.002 -0.002    0.000 -0.001 -0.001
 H         -0.072  0.479  0.366   -0.370  0.222 -0.253   -0.188  0.239 -0.331
 H          0.269 -0.103  0.300   -0.335  0.203  0.008   -0.365 -0.047 -0.222
 H          0.223 -0.072  0.081   -0.258  0.148  0.126    0.102 -0.214  0.702
 C         -0.000  0.000 -0.000    0.001  0.001 -0.000    0.001  0.001  0.000
 O          0.000 -0.000  0.001   -0.002  0.000  0.001   -0.000  0.000  0.000
 H         -0.000  0.000 -0.001    0.004 -0.001  0.000   -0.001  0.001 -0.003
 TransDip   0.014  0.007  0.065    0.052 -0.034 -0.069    0.083 -0.009  0.010

 Mode:                16                     17                     18
 Frequency:      1018.41                1095.08                1183.06
 Force Cnst:      1.1441                 3.8283                 2.5592
 Red. Mass:       1.8723                 5.4184                 3.1034
 IR Active:          YES                    YES                    YES
 IR Intens:       32.129                 92.630                281.979
 Raman Active:       YES                    YES                    YES
               X      Y      Z        X      Y      Z        X      Y      Z
 O         -0.032  0.027  0.020   -0.067  0.038 -0.081   -0.041  0.015 -0.057
 C          0.022 -0.010 -0.024   -0.038  0.044  0.178    0.046  0.002  0.314
 C          0.064  0.014 -0.144    0.126 -0.094 -0.150   -0.028  0.017 -0.029
 O          0.021 -0.016  0.008   -0.084  0.052 -0.068    0.045 -0.034 -0.032
 O         -0.053  0.063 -0.006    0.289 -0.196 -0.029   -0.113  0.058 -0.149
 C          0.008 -0.144  0.136   -0.248  0.168  0.158    0.118 -0.073 -0.063
 H          0.001  0.001  0.002    0.001  0.001  0.002    0.003  0.005  0.006
 H         -0.245  0.078 -0.468    0.227 -0.230 -0.059    0.445 -0.282  0.478
 H          0.276  0.124  0.653   -0.164  0.267  0.366   -0.203  0.163  0.317
 H         -0.121  0.283 -0.164   -0.350  0.269  0.343   -0.126  0.153  0.336
 C         -0.002  0.000 -0.001   -0.001 -0.001 -0.001   -0.002 -0.000 -0.001
 O          0.001 -0.000 -0.000    0.000 -0.000 -0.001    0.001  0.000 -0.001
 H          0.004 -0.003  0.005    0.000 -0.001  0.009    0.005 -0.004  0.010
 TransDip   0.135 -0.118 -0.026   -0.210  0.161  0.158    0.206 -0.071  0.492

 Mode:                19                     20                     21
 Frequency:      1203.07                1203.92                1228.84
 Force Cnst:      1.1084                 2.3753                 1.2107
 Red. Mass:       1.2997                 2.7814                 1.3608
 IR Active:          YES                    YES                    YES
 IR Intens:       58.143                264.762                 10.153
 Raman Active:       YES                    YES                    YES
               X      Y      Z        X      Y      Z        X      Y      Z
 O          0.066 -0.052 -0.016    0.196 -0.143 -0.065   -0.002  0.001  0.001
 C         -0.003  0.014  0.031   -0.024  0.022  0.102    0.000 -0.000 -0.003
 C         -0.082  0.033 -0.008   -0.178  0.150 -0.018    0.001 -0.002  0.001
 O         -0.010  0.004  0.003   -0.030  0.023  0.004    0.000 -0.000  0.000
 O          0.034  0.035 -0.018    0.017 -0.058 -0.019    0.001  0.002  0.001
 C         -0.030 -0.050  0.018    0.008  0.035  0.025   -0.001 -0.001 -0.002
 H         -0.009  0.004 -0.013    0.015  0.005  0.025    0.387 -0.231  0.532
 H         -0.108  0.116 -0.043   -0.422  0.274 -0.257    0.004 -0.001  0.004
 H          0.446 -0.302 -0.372   -0.391  0.291  0.427    0.019 -0.013 -0.021
 H         -0.406  0.425  0.419    0.203 -0.198 -0.205   -0.013  0.009  0.019
 C          0.003 -0.001  0.003   -0.005 -0.000 -0.006   -0.089  0.052 -0.138
 O         -0.001  0.000 -0.001    0.002 -0.000  0.001    0.020 -0.014  0.035
 H         -0.011  0.006 -0.011    0.015 -0.009  0.024    0.366 -0.174  0.562
 TransDip  -0.203  0.091  0.100   -0.367  0.316  0.194    0.067 -0.031  0.070

 Mode:                22                     23                     24
 Frequency:      1262.21                1381.06                1422.59
 Force Cnst:      1.2571                 2.6456                 2.0107
 Red. Mass:       1.3392                 2.3542                 1.6863
 IR Active:          YES                    YES                    YES
 IR Intens:       19.494                 45.173                 56.842
 Raman Active:       YES                    YES                    YES
               X      Y      Z        X      Y      Z        X      Y      Z
 O         -0.001  0.000  0.000   -0.035  0.037 -0.096    0.003 -0.002  0.034
 C         -0.001 -0.001 -0.001    0.013  0.003  0.100   -0.008 -0.010 -0.136
 C          0.001 -0.001  0.000    0.128 -0.085  0.223   -0.045  0.029  0.002
 O          0.000  0.000  0.000    0.010 -0.009 -0.016   -0.010  0.008  0.015
 O          0.001  0.000  0.001   -0.005  0.009  0.001    0.043 -0.019  0.082
 C         -0.001  0.000 -0.001   -0.027 -0.023 -0.145    0.029 -0.038 -0.153
 H          0.006  0.644  0.273   -0.001 -0.001 -0.001   -0.004 -0.007 -0.007
 H          0.001 -0.000  0.001   -0.578  0.421 -0.525    0.100 -0.032  0.169
 H          0.004 -0.003 -0.006   -0.112  0.109  0.081   -0.115  0.347  0.556
 H         -0.002 -0.000  0.006   -0.190  0.142  0.088   -0.272  0.113  0.611
 C         -0.118 -0.076  0.045   -0.000  0.000  0.000    0.001  0.001  0.001
 O          0.062  0.042 -0.026   -0.000  0.000 -0.001   -0.000  0.000  0.001
 H          0.417 -0.395 -0.392    0.001 -0.001  0.000    0.002 -0.001 -0.008
 TransDip  -0.105 -0.079  0.053    0.071 -0.051  0.197   -0.051  0.004 -0.236

 Mode:                25                     26                     27
 Frequency:      1498.68                1522.77                1814.06
 Force Cnst:      1.4547                 1.5098                14.1509
 Red. Mass:       1.0993                 1.1051                 7.2984
 IR Active:          YES                    YES                    YES
 IR Intens:       28.810                 38.016                177.230
 Raman Active:       YES                    YES                    YES
               X      Y      Z        X      Y      Z        X      Y      Z
 O          0.003 -0.001 -0.007   -0.001  0.000  0.001    0.002 -0.000 -0.000
 C         -0.003  0.005  0.032   -0.001  0.000 -0.004   -0.009  0.001  0.001
 C          0.003 -0.004 -0.002    0.001  0.000  0.000   -0.002  0.001 -0.001
 O          0.007 -0.005 -0.003    0.000 -0.000  0.000    0.005 -0.002 -0.000
 O         -0.018  0.010 -0.020    0.001 -0.000  0.002    0.002  0.000 -0.000
 C         -0.061  0.037 -0.028    0.003 -0.002 -0.000   -0.000  0.001  0.001
 H          0.001  0.029  0.006    0.077  0.672  0.190   -0.289 -0.399  0.060
 H         -0.024  0.024 -0.032    0.002 -0.001  0.002   -0.001  0.002  0.001
 H          0.674  0.073  0.185   -0.031 -0.002 -0.008   -0.008 -0.002 -0.003
 H          0.207 -0.609  0.283   -0.011  0.027 -0.008   -0.002  0.004 -0.005
 C          0.000  0.001  0.001   -0.002  0.004  0.002   -0.187  0.465  0.297
 O          0.001 -0.003 -0.002    0.025 -0.064 -0.041    0.133 -0.329 -0.210
 H         -0.023  0.015  0.019   -0.464  0.302  0.437    0.411  0.083 -0.261
 TransDip   0.036  0.012  0.168   -0.051  0.169  0.089   -0.130  0.348  0.208

 Mode:                28                     29                     30
 Frequency:      1878.68                2960.91                3038.34
 Force Cnst:     26.8238                 5.4097                 6.0909
 Red. Mass:      12.8993                 1.0473                 1.1198
 IR Active:          YES                    YES                    YES
 IR Intens:     1089.363                 65.377                 97.445
 Raman Active:       YES                    YES                    YES
               X      Y      Z        X      Y      Z        X      Y      Z
 O         -0.018  0.014 -0.009    0.000  0.000 -0.000    0.000 -0.000 -0.000
 C          0.697 -0.488  0.009   -0.000 -0.000  0.000   -0.000  0.000  0.000
 C         -0.033  0.023  0.010   -0.000  0.000 -0.000    0.000 -0.000 -0.000
 O         -0.415  0.290  0.013   -0.000  0.000 -0.000    0.000 -0.000 -0.000
 O         -0.038  0.027 -0.016    0.000  0.000 -0.000    0.000 -0.000 -0.000
 C         -0.033  0.023 -0.003    0.000  0.000  0.000   -0.000  0.000 -0.000
 H         -0.004  0.007  0.004    0.621  0.045 -0.423    0.534  0.023 -0.370
 H         -0.045  0.036  0.029   -0.001  0.000  0.001   -0.001 -0.000  0.000
 H          0.054  0.021 -0.028   -0.000 -0.002  0.001   -0.000 -0.002  0.001
 H         -0.003 -0.063 -0.013   -0.002 -0.001 -0.001    0.004  0.002  0.001
 C         -0.003  0.008  0.005   -0.024  0.044  0.033   -0.076 -0.057  0.034
 O          0.001 -0.006 -0.004    0.000 -0.000 -0.000    0.000  0.000 -0.000
 H          0.006  0.007  0.003   -0.332 -0.564  0.034    0.370  0.656 -0.029
 TransDip   0.859 -0.616  0.011   -0.082  0.205  0.135   -0.235 -0.191  0.092

 Mode:                31                     32                     33
 Frequency:      3062.88                3108.01                3259.31
 Force Cnst:      5.8478                 6.3077                 6.8488
 Red. Mass:       1.0580                 1.1083                 1.0942
 IR Active:          YES                    YES                    YES
 IR Intens:       21.734                  7.830                  1.870
 Raman Active:       YES                    YES                    YES
               X      Y      Z        X      Y      Z        X      Y      Z
 O          0.000 -0.000  0.000   -0.000 -0.000 -0.000   -0.001  0.001  0.000
 C          0.002 -0.001  0.001   -0.000  0.000 -0.000   -0.001  0.001  0.001
 C          0.001 -0.001 -0.001    0.001 -0.000 -0.001    0.059 -0.013 -0.064
 O         -0.000  0.000 -0.000    0.000 -0.000  0.000    0.000 -0.000 -0.000
 O         -0.001  0.001  0.000    0.001  0.001 -0.000   -0.000  0.000  0.000
 C         -0.052  0.013 -0.040   -0.047 -0.081  0.019    0.001  0.002  0.003
 H         -0.002  0.000  0.001    0.002  0.000 -0.001   -0.001  0.000  0.001
 H         -0.005  0.006  0.002   -0.010  0.002  0.011   -0.686  0.118  0.712
 H         -0.059 -0.527  0.273    0.055  0.701 -0.387    0.000 -0.008  0.002
 H          0.679  0.373  0.198    0.503  0.259  0.162   -0.010 -0.006 -0.005
 C          0.000  0.000 -0.000   -0.000  0.000  0.000    0.000 -0.000 -0.000
 O          0.000 -0.000  0.000   -0.000 -0.000 -0.000   -0.000  0.000  0.000
 H         -0.002 -0.004  0.000   -0.001 -0.002  0.000   -0.000  0.000  0.000
 TransDip  -0.118  0.044 -0.080   -0.035 -0.080  0.018    0.007 -0.043 -0.001

 STANDARD THERMODYNAMIC QUANTITIES AT   298.15 K  AND     1.00 ATM

   This Molecule has  0 Imaginary Frequencies
   Zero point vibrational energy:       56.238 kcal/mol

   Atom    1 Element O  Has Mass   15.99491
   Atom    2 Element C  Has Mass   12.00000
   Atom    3 Element C  Has Mass   12.00000
   Atom    4 Element O  Has Mass   15.99491
   Atom    5 Element O  Has Mass   15.99491
   Atom    6 Element C  Has Mass   12.00000
   Atom    7 Element H  Has Mass    1.00783
   Atom    8 Element H  Has Mass    1.00783
   Atom    9 Element H  Has Mass    1.00783
   Atom   10 Element H  Has Mass    1.00783
   Atom   11 Element C  Has Mass   12.00000
   Atom   12 Element O  Has Mass   15.99491
   Atom   13 Element H  Has Mass    1.00783
   Molecular Mass:   117.018790 amu
   Principal axes and moments of inertia in amu*Bohr^2:
                             1           2           3
    Eigenvalues --      663.37699  1088.48378  1325.17139
          X               0.33799     0.94079     0.02605
          Y               0.93895    -0.33518    -0.07767
          Z               0.06434    -0.05071     0.99664
   Rotational Symmetry Number is   1
   The Molecule is an Asymmetric Top
   Translational Enthalpy:        0.889 kcal/mol
   Rotational Enthalpy:           0.889 kcal/mol
   Vibrational Enthalpy:         60.432 kcal/mol
   gas constant (RT):             0.592 kcal/mol
   Translational Entropy:        40.186  cal/mol.K
   Rotational Entropy:           28.350  cal/mol.K
   Vibrational Entropy:          32.023  cal/mol.K

   Total Enthalpy:               62.802 kcal/mol
   Total Entropy:               100.559  cal/mol.K
Archival summary:
1\1\n0098.lr6\FREQ\ProcedureUnspecified\BasisUnspecified\445(2)\ewcspott\ThuNov1211:26:012020ThuNov1211:26:012020\0\\#,FREQ,ProcedureUnspecified,BasisUnspecified,\\0,2\O\C,1,1.36145\O,2,1.19394,1,123.678\O,2,1.33374,1,110.726,3,178.015,0\C,1,1.3771,2,108.902,3,176.686,0\H,5,1.08114,1,116.057,2,156.025,0\C,4,1.4425,2,110.143,1,2.3214,0\H,7,1.09399,4,108.556,2,122.183,0\H,7,1.09525,4,108.73,2,-119.25,0\H,5,2.8182,1,95.3978,2,-97.0031,0\C,10,1.1051,5,114.639,1,54.7469,0\H,11,1.10433,10,116.743,5,173.861,0\O,11,1.20664,10,121.735,5,-6.19323,0\\\@

 Total job time:  10786.01s(wall), 260167.51s(cpu) 
 Thu Nov 12 11:26:01 2020

        *************************************************************
        *                                                           *
        *  Thank you very much for using Q-Chem.  Have a nice day.  *
        *                                                           *
        *************************************************************


