
Running Job 1 of 1 mol.qin
qchem mol.qin_131891.0 /tmp/scratch/ 0
/clusterfs/mp/software/qchem/exe/qcprog.exe_s mol.qin_131891.0 /tmp/scratch/
                  Welcome to Q-Chem
     A Quantum Leap Into The Future Of Chemistry


 Q-Chem 5.2, Q-Chem, Inc., Pleasanton, CA (2019)

 Yihan Shao,  Zhengting Gan,  E. Epifanovsky,  A. T. B. Gilbert,  M. Wormit,  
 J. Kussmann,  A. W. Lange,  A. Behn,  Jia Deng,  Xintian Feng,  D. Ghosh,  
 M. Goldey,  P. R. Horn,  L. D. Jacobson,  I. Kaliman,  T. Kus,  A. Landau,  
 Jie Liu,  E. I. Proynov,  R. M. Richard,  R. P. Steele,  E. J. Sundstrom,  
 H. L. Woodcock III,  P. M. Zimmerman,  D. Zuev,  B. Alam,  B. Albrecht,  
 E. Alguire,  S. A. Baeppler,  D. Barton,  Z. Benda,  Y. A. Bernard,  
 E. J. Berquist,  K. B. Bravaya,  H. Burton,  K. Carter-Fenk,  D. Casanova,  
 Chun-Min Chang,  Yunqing Chen,  A. Chien,  K. D. Closser,  M. P. Coons,  
 S. Coriani,  S. Dasgupta,  A. L. Dempwolff,  M. Diedenhofen,  Hainam Do,  
 R. G. Edgar,  Po-Tung Fang,  S. Faraji,  S. Fatehi,  Qingguo Feng,  
 J. Fosso-Tande,  J. Gayvert,  Qinghui Ge,  A. Ghysels,  G. Gidofalvi,  
 J. Gomes,  J. Gonthier,  A. Gunina,  D. Hait,  M. W. D. Hanson-Heine,  
 P. H. P. Harbach,  A. W. Hauser,  M. F. Herbst,  J. E. Herr,  
 E. G. Hohenstein,  Z. C. Holden,  Kerwin Hui,  B. C. Huynh,  T.-C. Jagau,  
 Hyunjun Ji,  B. Kaduk,  K. Khistyaev,  Jaehoon Kim,  P. Klunzinger,  K. Koh,  
 D. Kosenkov,  L. Koulias,  T. Kowalczyk,  C. M. Krauter,  A. Kunitsa,  
 Ka Un Lao,  A. Laurent,  K. V. Lawler,  Joonho Lee,  D. Lefrancois,  
 S. Lehtola,  D. S. Levine,  Yi-Pei Li,  You-Sheng Lin,  Fenglai Liu,  
 Kuan-Yu Liu,  E. Livshits,  M. Loipersberger,  A. Luenser,  P. Manohar,  
 E. Mansoor,  S. F. Manzer,  Shan-Ping Mao,  Yuezhi Mao,  N. Mardirossian,  
 A. V. Marenich,  T. Markovich,  L. A. Martinez-Martinez,  S. A. Maurer,  
 N. J. Mayhall,  S. C. McKenzie,  J.-M. Mewes,  P. Morgante,  A. F. Morrison,  
 J. W. Mullinax,  K. Nanda,  T. S. Nguyen-Beck,  R. Olivares-Amaya,  
 J. A. Parkhill,  S. K. Paul,  Zheng Pei,  T. M. Perrine,  F. Plasser,  
 P. Pokhilko,  S. Prager,  A. Prociuk,  E. Ramos,  B. Rana,  D. R. Rehn,  
 F. Rob,  M. Scheurer,  M. Schneider,  N. Sergueev,  S. M. Sharada,  
 S. Sharma,  D. W. Small,  T. Stauch,  C. J. Stein,  T. Stein,  Yu-Chuan Su,  
 S. P. Veccham,  A. J. W. Thom,  A. Tkatchenko,  T. Tsuchimochi,  
 N. M. Tubman,  L. Vogt,  M. L. Vidal,  O. Vydrov,  M. A. Watson,  J. Wenzel,  
 M. de Wergifosse,  T. A. Wesolowski,  A. White,  J. Witte,  A. Yamada,  
 Jun Yang,  K. Yao,  S. Yeganeh,  S. R. Yost,  Zhi-Qiang You,  A. Zech,  
 Igor Ying Zhang,  Xing Zhang,  Yan Zhao,  Ying Zhu,  B. R. Brooks,  
 G. K. L. Chan,  C. J. Cramer,  M. S. Gordon,  W. J. Hehre,  A. Klamt,  
 M. W. Schmidt,  C. D. Sherrill,  D. G. Truhlar,  A. Aspuru-Guzik,  R. Baer,  
 A. T. Bell,  N. A. Besley,  Jeng-Da Chai,  A. E. DePrince, III,  
 R. A. DiStasio Jr.,  A. Dreuw,  B. D. Dunietz,  T. R. Furlani,  
 Chao-Ping Hsu,  Yousung Jung,  Jing Kong,  D. S. Lambrecht,  WanZhen Liang,  
 C. Ochsenfeld,  V. A. Rassolov,  L. V. Slipchenko,  J. E. Subotnik,  
 T. Van Voorhis,  J. M. Herbert,  A. I. Krylov,  P. M. W. Gill,  M. Head-Gordon

 Contributors to earlier versions of Q-Chem not listed above: 
 R. D. Adamson,  B. Austin,  J. Baker,  G. J. O. Beran,  K. Brandhorst,  
 S. T. Brown,  E. F. C. Byrd,  A. K. Chakraborty,  C.-L. Cheng,  
 Siu Hung Chien,  D. M. Chipman,  D. L. Crittenden,  H. Dachsel,  
 R. J. Doerksen,  A. D. Dutoi,  L. Fusti-Molnar,  W. A. Goddard III,  
 A. Golubeva-Zadorozhnaya,  S. R. Gwaltney,  G. Hawkins,  A. Heyden,  
 S. Hirata,  G. Kedziora,  F. J. Keil,  C. Kelley,  Jihan Kim,  R. A. King,  
 R. Z. Khaliullin,  P. P. Korambath,  W. Kurlancheek,  A. M. Lee,  M. S. Lee,  
 S. V. Levchenko,  Ching Yeh Lin,  D. Liotard,  R. C. Lochan,  I. Lotan,  
 P. E. Maslen,  N. Nair,  D. P. O'Neill,  D. Neuhauser,  E. Neuscamman,  
 C. M. Oana,  R. Olson,  B. Peters,  R. Peverati,  P. A. Pieniazek,  
 Y. M. Rhee,  J. Ritchie,  M. A. Rohrdanz,  E. Rosta,  N. J. Russ,  
 H. F. Schaefer III,  N. E. Schultz,  N. Shenvi,  A. C. Simmonett,  A. Sodt,  
 D. Stuck,  K. S. Thanthiriwatte,  V. Vanovschi,  Tao Wang,  A. Warshel,  
 C. F. Williams,  Q. Wu,  X. Xu,  W. Zhang

 Please cite Q-Chem as follows:
 Y. Shao et al., Mol. Phys. 113, 184-215 (2015)
 DOI: 10.1080/00268976.2014.952696

 Q-Chem 5.2.2 for Intel X86 EM64T Linux

 Parts of Q-Chem use Armadillo 8.300.2 (Tropical Shenanigans).
 http://arma.sourceforge.net/

 Q-Chem begins on Thu Nov 12 07:31:37 2020  

Host: 
0

     Scratch files written to /tmp/scratch//
 Nov2519 |scratch|qcdevops|jenkins|workspace|build_RNUM 6829   
Processing $rem in /clusterfs/mp/software/qchem/config/preferences:
	 MEM_TOTAL  96000 
NAlpha2: 62
NElect   61
Mult     2
Symmetry turned off for PCM/SM12/SMD calculation

Checking the input file for inconsistencies... 	...done.

--------------------------------------------------------------
User input:
--------------------------------------------------------------
$molecule
0 2
O     -1.9351170103     -4.3096774174      1.3400474306
C     -1.5661825504     -4.9710915330      0.2083949447
C     -2.8339166195     -3.3092228285      1.0003650609
O     -0.7320331758     -5.8221507995      0.1741347022
O     -2.2742140125     -4.5382521363     -0.8386508077
C     -3.2666933425     -3.5882799742     -0.3991280389
H     -1.5596006406     -1.7078404594      0.8387319203
H     -3.5207902237     -3.0348144473      1.7970117190
H     -3.2569638000     -2.7293641132     -1.0755409980
H     -4.2534590539     -4.0678056370     -0.4296719689
C     -0.9611052060     -1.3717295518      0.6510771153
O      0.0360758643     -1.8501715526      0.1398350598
H     -1.0078202290     -0.2955395498      0.8884738605
$end

$rem
job_type = opt
basis = def2-tzvppd
max_scf_cycles = 100
gen_scfman = true
xc_grid = 3
scf_algorithm = diis
resp_charges = true
symmetry = false
sym_ignore = true
method = wb97xv
geom_opt_max_cycles = 200
solvent_method = smd
ideriv = 1
thresh = 14
s2thresh = 16
$end

$smx
solvent other
$end
--------------------------------------------------------------
 ----------------------------------------------------------------
             Standard Nuclear Orientation (Angstroms)
    I     Atom           X                Y                Z
 ----------------------------------------------------------------
    1      O      -1.9351170103    -4.3096774174     1.3400474306
    2      C      -1.5661825504    -4.9710915330     0.2083949447
    3      C      -2.8339166195    -3.3092228285     1.0003650609
    4      O      -0.7320331758    -5.8221507995     0.1741347022
    5      O      -2.2742140125    -4.5382521363    -0.8386508077
    6      C      -3.2666933425    -3.5882799742    -0.3991280389
    7      H      -1.5596006406    -1.7078404594     0.8387319203
    8      H      -3.5207902237    -3.0348144473     1.7970117190
    9      H      -3.2569638000    -2.7293641132    -1.0755409980
   10      H      -4.2534590539    -4.0678056370    -0.4296719689
   11      C      -0.9611052060    -1.3717295518     0.6510771153
   12      O       0.0360758643    -1.8501715526     0.1398350598
   13      H      -1.0078202290    -0.2955395498     0.8884738605
 ----------------------------------------------------------------
 Nuclear Repulsion Energy =         376.82732456 hartrees
 There are       31 alpha and       30 beta electrons
 Requested basis set is def2-TZVPPD
 There are 143 shells and 393 basis functions

 Total QAlloc Memory Limit  96000 MB
 Mega-Array Size       188 MB
 MEM_STATIC part       192 MB
 
 Citation of the SMD model:
 Marenich, A.V.; Cramer, C.J.; Truhlar, D.G.
 J. Phys. Chem. B 2009, 113, 6378-6396.
 iSolventCode=           0
 Solvent: other                                                           
 
 vradii
            1           2           3           4           5           6
    1   2.2940000   1.8500000   1.8500000   2.2940000   2.2940000   1.8500000
            7           8           9          10          11          12
    1   1.2000000   1.2000000   1.2000000   1.2000000   1.8500000   2.2940000
           13
    1   1.2000000
 Changing PCM_VDW_RADII to SMD_RADIUS
 Discretize the solute cavity surface with Lebedev spheres
	Using 110 Lebedev grid points for each H atom
	Using 194 Lebedev grid points for other atoms
	Atomic van der Waals radii will be scaled by 1.20
 Remove points where switching function is < 1.0e-08
 Keep 913 surface tesserae and discard 1189 interior tesserae
 Molecular Surface Area = 177.312 Angst**2
 A cutoff of  1.0D-14 yielded   9698 shell pairs
 There are     74050 function pairs (     95303 Cartesian)
 Smallest overlap matrix eigenvalue = 2.00E-06

 Scale SEOQF with 1.000000e-01/1.000000e-02/1.000000e-01

 Standard Electronic Orientation quadrupole field applied
 Nucleus-field energy     =     0.0000000119 hartrees
 Guess from superposition of atomic densities
 Warning:  Energy on first SCF cycle will be non-variational
 SAD guess density has 61.000000 electrons

 -----------------------------------------------------------------------
  General SCF calculation program by
  Eric Jon Sundstrom, Paul Horn, Yuezhi Mao, Dmitri Zuev, Alec White,
  David Stuck, Shaama M.S., Shane Yost, Joonho Lee, David Small,
  Daniel Levine, Susi Lehtola, Hugh Burton, Evgeny Epifanovsky,
  Bang C. Huynh
 -----------------------------------------------------------------------
 Exchange:     0.1670 Hartree-Fock + 1.0000 wB97X-V + LR-HF
 Correlation:  1.0000 wB97X-V
 Using SG-3 standard quadrature grid
 Nonlocal Correlation:  VV10 with C = 0.0100 and b = 6.00 and scale = 1.00000
 Grid used for NLC:  SG-1 standard quadrature
 
 Citation of the SMD model:
 Marenich, A.V.; Cramer, C.J.; Truhlar, D.G.
 J. Phys. Chem. B 2009, 113, 6378-6396.
 iSolventCode=           0
 Solvent: other                                                           
 
 vradii
            1           2           3           4           5           6
    1   2.2940000   1.8500000   1.8500000   2.2940000   2.2940000   1.8500000
            7           8           9          10          11          12
    1   1.2000000   1.2000000   1.2000000   1.2000000   1.8500000   2.2940000
           13
    1   1.2000000
 using 40 threads for integral computing
 -------------------------------------------------------
 OpenMP Integral computing Module                
 Release: version 1.0, May 2013, Q-Chem Inc. Pittsburgh 
 -------------------------------------------------------
 using 40 threads for integral computing
 -------------------------------------------------------
 OpenMP Integral computing Module                
 Release: version 1.0, May 2013, Q-Chem Inc. Pittsburgh 
 -------------------------------------------------------
 -------------------------------------------------------
 OpenMP BLAS3 based DFT computing Module                
 Release: version 1.0, May 2013, Q-Chem Inc. Pittsburgh 
 -------------------------------------------------------
 -------------------------------------------------------
 OpenMP BLAS3 based DFT computing Module                
 Release: version 1.0, May 2013, Q-Chem Inc. Pittsburgh 
 -------------------------------------------------------
 -------------------------------------------------------
 OpenMP BLAS3 based DFT computing Module                
 Release: version 1.0, May 2013, Q-Chem Inc. Pittsburgh 
 -------------------------------------------------------
 A unrestricted SCF calculation will be
 performed using DIIS
 SCF converges when DIIS error is below 1.0e-08
 ---------------------------------------
  Cycle       Energy         DIIS error
 ---------------------------------------
    1    -458.1049496393      1.25e-02  
    2    -455.9059188909      1.70e-03  
    3    -455.8617873875      2.10e-03  
    4    -456.0811969059      1.79e-04  
    5    -456.0827829940      1.20e-04  
    6    -456.0836180029      2.33e-05  
    7    -456.0836997508      8.98e-06  
    8    -456.0837135096      5.47e-06  
    9    -456.0837171896      2.20e-06  
   10    -456.0837177969      5.86e-07  
   11    -456.0837178702      2.12e-07  
   12    -456.0837178800      1.05e-07  
   13    -456.0837178826      5.79e-08  
   14    -456.0837178835      3.41e-08  
   15    -456.0837178839      1.58e-08  
   16    -456.0837178840      7.47e-09  Convergence criterion met
 ---------------------------------------
 SCF time:   CPU 3240.64s  wall 131.00s 
<S^2> =          0.753302066
(3)  G-ENP(liq) elect-nuc-pol free energy of system     -456.083717884 a.u.
(4)  G-CDS(liq) cavity-dispersion-solvent structure 
     free energy                                               -2.5522 kcal/mol
(6)  G-S(liq) free energy of system                     -456.087785102 a.u.
 SCF   energy in the final basis set =     -456.0837178840
 Total energy in the final basis set =     -456.0877851019
 
 --------------------------------------------------------------
 
                    Orbital Energies (a.u.)
 --------------------------------------------------------------
 
 Alpha MOs
 -- Occupied --
-19.2948 -19.2814 -19.2267 -19.2124 -10.4567 -10.3451 -10.3403 -10.3252
 -1.3138  -1.1980  -1.1849  -1.1815  -0.9136  -0.8479  -0.8026  -0.7411
 -0.6638  -0.6460  -0.6258  -0.6116  -0.5690  -0.5660  -0.5600  -0.5124
 -0.5066  -0.5027  -0.4980  -0.4283  -0.4218  -0.3813  -0.3056
 -- Virtual --
  0.0416   0.0560   0.0744   0.0797   0.0810   0.1032   0.1069   0.1147
  0.1177   0.1218   0.1248   0.1487   0.1536   0.1586   0.1643   0.1658
  0.1734   0.1927   0.1968   0.2113   0.2212   0.2298   0.2345   0.2384
  0.2460   0.2602   0.2707   0.2769   0.2806   0.2887   0.2937   0.3077
  0.3154   0.3187   0.3289   0.3362   0.3376   0.3462   0.3561   0.3636
  0.3672   0.3704   0.3807   0.3825   0.3911   0.3934   0.3988   0.4100
  0.4187   0.4302   0.4339   0.4399   0.4490   0.4518   0.4544   0.4635
  0.4698   0.4776   0.4831   0.4982   0.5045   0.5162   0.5276   0.5325
  0.5329   0.5456   0.5511   0.5638   0.5672   0.5729   0.5864   0.5923
  0.6006   0.6150   0.6167   0.6272   0.6399   0.6530   0.6605   0.6692
  0.6714   0.6820   0.6891   0.6927   0.6973   0.7072   0.7222   0.7234
  0.7401   0.7499   0.7554   0.7658   0.7763   0.7856   0.7901   0.7998
  0.8045   0.8173   0.8265   0.8386   0.8525   0.8577   0.8706   0.8862
  0.8943   0.9073   0.9152   0.9292   0.9580   0.9611   0.9621   0.9800
  0.9910   1.0076   1.0133   1.0302   1.0413   1.0614   1.0781   1.0977
  1.1174   1.1363   1.1382   1.1531   1.1726   1.1987   1.2123   1.2164
  1.2235   1.2372   1.2483   1.2683   1.2757   1.2915   1.3099   1.3215
  1.3312   1.3428   1.3587   1.3663   1.3922   1.4117   1.4137   1.4288
  1.4593   1.4688   1.4749   1.5227   1.5439   1.5568   1.5876   1.6035
  1.6109   1.6384   1.6594   1.6709   1.6920   1.7195   1.7590   1.7789
  1.7832   1.8405   1.8784   1.8967   1.8995   1.9256   1.9473   1.9566
  1.9850   2.0112   2.0282   2.0469   2.0793   2.0969   2.1108   2.1564
  2.1696   2.2126   2.2340   2.2866   2.2934   2.3093   2.3425   2.3506
  2.3869   2.4030   2.4257   2.4398   2.4685   2.4928   2.5084   2.5674
  2.5941   2.6670   2.6773   2.7305   2.7840   2.8108   2.8400   2.8712
  2.8881   2.9182   2.9345   2.9528   2.9602   2.9749   3.0031   3.0163
  3.0293   3.0506   3.0825   3.1173   3.1366   3.1536   3.1800   3.1867
  3.2019   3.2185   3.2360   3.2531   3.2636   3.2677   3.2772   3.3110
  3.3411   3.3670   3.3731   3.3928   3.4064   3.4166   3.4251   3.4554
  3.4659   3.4819   3.4979   3.5074   3.5360   3.5517   3.5550   3.5647
  3.5845   3.6174   3.6436   3.6491   3.6752   3.6771   3.7040   3.7236
  3.7457   3.7696   3.7794   3.8066   3.8374   3.8508   3.8572   3.9288
  3.9369   3.9568   4.0032   4.0286   4.0516   4.0804   4.1448   4.1643
  4.2104   4.2137   4.2458   4.2953   4.3421   4.3661   4.3927   4.4064
  4.4436   4.4766   4.4873   4.5334   4.5952   4.6414   4.6529   4.7094
  4.7526   4.7851   4.8202   4.8299   4.8599   4.8869   4.9387   4.9668
  5.0112   5.0311   5.0451   5.1158   5.1356   5.1609   5.1802   5.2580
  5.2754   5.3022   5.3166   5.3302   5.3542   5.4555   5.5034   5.5094
  5.5676   5.6049   5.6202   5.6281   5.6450   5.7016   5.7285   5.7722
  5.7894   5.8479   5.8862   5.9229   5.9871   6.0613   6.0922   6.1095
  6.1114   6.2120   6.2603   6.3132   6.3885   6.4098   6.4951   6.5617
  6.5809   6.6255   6.6402   6.6888   6.6953   6.8030   6.8479   6.8657
  6.9229   6.9435   6.9695   6.9934   7.0133   7.0847   7.1347   7.1603
  7.1858   7.3026   7.3839   7.3938   7.4588   7.5718   7.6352   7.6749
  7.7255   7.8907  23.1982  23.5065  23.8978  24.4097  44.2092  44.3940
 44.4505  44.5758
 
 Beta MOs
 -- Occupied --
-19.2922 -19.2813 -19.2267 -19.2121 -10.4567 -10.3454 -10.3285 -10.3245
 -1.3103  -1.1935  -1.1840  -1.1813  -0.9007  -0.8434  -0.7909  -0.7361
 -0.6537  -0.6416  -0.6233  -0.6001  -0.5672  -0.5653  -0.5499  -0.5052
 -0.5034  -0.4909  -0.4840  -0.4246  -0.4195  -0.3780
 -- Virtual --
  0.0251   0.0421   0.0568   0.0752   0.0801   0.0819   0.1039   0.1081
  0.1153   0.1189   0.1253   0.1272   0.1494   0.1547   0.1595   0.1648
  0.1669   0.1738   0.1946   0.1978   0.2122   0.2223   0.2322   0.2360
  0.2390   0.2488   0.2634   0.2722   0.2783   0.2850   0.2903   0.2962
  0.3091   0.3163   0.3216   0.3299   0.3374   0.3398   0.3488   0.3580
  0.3646   0.3689   0.3721   0.3822   0.3835   0.3934   0.3960   0.4003
  0.4112   0.4257   0.4311   0.4374   0.4405   0.4508   0.4537   0.4557
  0.4640   0.4713   0.4786   0.4858   0.4990   0.5068   0.5180   0.5287
  0.5347   0.5392   0.5467   0.5518   0.5649   0.5701   0.5757   0.5887
  0.5937   0.6016   0.6155   0.6179   0.6282   0.6416   0.6542   0.6615
  0.6706   0.6723   0.6844   0.6915   0.6939   0.6987   0.7086   0.7248
  0.7254   0.7419   0.7524   0.7571   0.7704   0.7789   0.7864   0.7905
  0.8021   0.8068   0.8181   0.8287   0.8403   0.8536   0.8589   0.8737
  0.8867   0.8969   0.9106   0.9169   0.9305   0.9586   0.9626   0.9642
  0.9808   0.9921   1.0109   1.0150   1.0321   1.0423   1.0631   1.0841
  1.0990   1.1213   1.1369   1.1398   1.1550   1.1761   1.1994   1.2159
  1.2201   1.2261   1.2414   1.2516   1.2701   1.2771   1.2951   1.3119
  1.3234   1.3340   1.3442   1.3616   1.3678   1.3955   1.4136   1.4161
  1.4361   1.4613   1.4712   1.4780   1.5282   1.5469   1.5597   1.5905
  1.6084   1.6139   1.6401   1.6619   1.6759   1.6948   1.7212   1.7614
  1.7836   1.7858   1.8476   1.8813   1.9034   1.9052   1.9307   1.9488
  1.9585   1.9876   2.0130   2.0285   2.0501   2.0822   2.1033   2.1147
  2.1655   2.1746   2.2178   2.2387   2.2904   2.2963   2.3123   2.3478
  2.3561   2.3906   2.4062   2.4293   2.4418   2.4709   2.4938   2.5132
  2.5697   2.6004   2.6712   2.6861   2.7352   2.7922   2.8215   2.8467
  2.8786   2.8933   2.9214   2.9392   2.9572   2.9629   2.9805   3.0056
  3.0213   3.0328   3.0586   3.0865   3.1232   3.1400   3.1566   3.1846
  3.1907   3.2035   3.2215   3.2431   3.2609   3.2698   3.2742   3.2859
  3.3160   3.3474   3.3710   3.3822   3.3972   3.4135   3.4202   3.4353
  3.4575   3.4754   3.4867   3.5033   3.5141   3.5402   3.5542   3.5660
  3.5684   3.5937   3.6202   3.6490   3.6550   3.6770   3.6814   3.7086
  3.7307   3.7477   3.7770   3.7852   3.8110   3.8447   3.8574   3.8632
  3.9379   3.9470   3.9677   4.0083   4.0346   4.0546   4.0815   4.1514
  4.1714   4.2137   4.2193   4.2500   4.2997   4.3464   4.3700   4.3946
  4.4105   4.4465   4.4805   4.4882   4.5350   4.6005   4.6443   4.6568
  4.7102   4.7547   4.7867   4.8235   4.8324   4.8648   4.8964   4.9425
  4.9755   5.0152   5.0360   5.0486   5.1222   5.1372   5.1617   5.1861
  5.2646   5.2770   5.3027   5.3167   5.3345   5.3562   5.4596   5.5071
  5.5139   5.5685   5.6066   5.6226   5.6326   5.6519   5.7055   5.7325
  5.7761   5.7929   5.8485   5.8948   5.9258   5.9894   6.0620   6.0936
  6.1107   6.1171   6.2135   6.2627   6.3171   6.3899   6.4100   6.4961
  6.5660   6.5815   6.6265   6.6407   6.6903   6.6970   6.8033   6.8547
  6.8677   6.9261   6.9443   6.9716   7.0016   7.0153   7.0854   7.1378
  7.1613   7.1884   7.3032   7.3842   7.3950   7.4605   7.5730   7.6366
  7.6754   7.7270   7.8929  23.2097  23.5087  23.8983  24.4105  44.2091
 44.3955  44.4509  44.5775
 --------------------------------------------------------------
 
          Ground-State Mulliken Net Atomic Charges

     Atom                 Charge (a.u.)    Spin (a.u.)
  --------------------------------------------------------
      1 O                    -0.223433       0.064263
      2 C                     0.471926       0.009430
      3 C                     0.064523       0.807764
      4 O                    -0.438443       0.016698
      5 O                    -0.254361       0.005476
      6 C                     0.266650      -0.020660
      7 H                     0.607239      -0.076233
      8 H                     0.072144       0.016363
      9 H                     0.052291       0.026210
     10 H                     0.061637       0.046047
     11 C                    -0.294724       0.107341
     12 O                    -0.408261      -0.002126
     13 H                     0.022811      -0.000575
  --------------------------------------------------------
  Sum of atomic charges =    -0.000000
  Sum of spin   charges =     1.000000

  Building new vdw surfaces
         Merz-Kollman RESP Net Atomic Charges

     Atom                 Charge (a.u.)
  ----------------------------------------
      1 O                    -0.347453
      2 C                     0.879078
      3 C                     0.061225
      4 O                    -0.600166
      5 O                    -0.365286
      6 C                    -0.053617
      7 H                    -0.056226
      8 H                     0.146194
      9 H                     0.154322
     10 H                     0.154322
     11 C                     0.555336
     12 O                    -0.519230
     13 H                    -0.008499
  ----------------------------------------
  Sum of atomic charges =     0.000000

  Related Dipole Moment =     9.1974 (X -7.5058 Y  5.1588 Z  1.2813)

 -----------------------------------------------------------------
                    Cartesian Multipole Moments
 -----------------------------------------------------------------
    Charge (ESU x 10^10)
                -0.0000
    Dipole Moment (Debye)
         X      -7.4798      Y       5.0973      Z       1.3111
       Tot       9.1460
    Quadrupole Moments (Debye-Ang)
        XX     -20.7485     XY      18.0731     YY     -85.3313
        XZ      -3.1549     YZ      -1.7043     ZZ     -45.0541
    Octopole Moments (Debye-Ang^2)
       XXX     146.0366    XXY      87.3105    XYY      34.2565
       YYY     765.0788    XXZ      -4.6837    XYZ       8.7777
       YYZ     -11.2344    XZZ      74.1786    YZZ     173.1588
       ZZZ     -36.7677
    Hexadecapole Moments (Debye-Ang^3)
      XXXX    -850.5107   XXXY    -599.7717   XXYY    -641.9701
      XYYY    -819.1735   YYYY   -5960.9894   XXXZ      31.4257
      XXYZ      11.9930   XYYZ     -12.2338   YYYZ     120.0887
      XXZZ    -207.1266   XYZZ    -302.5695   YYZZ    -797.7338
      XZZZ      45.7658   YZZZ     113.0341   ZZZZ    -195.4604
 -----------------------------------------------------------------
 Calculating analytic gradient of the SCF energy
 Gradient of CDS energy
            1           2           3           4           5           6
    1   0.0006058   0.0009993  -0.0013124   0.0001977  -0.0006094  -0.0007902
    2   0.0001141  -0.0017124   0.0010172  -0.0001907   0.0008671  -0.0000649
    3   0.0004614  -0.0003145   0.0011229   0.0000538  -0.0000570  -0.0013572
            7           8           9          10          11          12
    1   0.0009845   0.0001817   0.0001764   0.0002618  -0.0006967  -0.0000161
    2  -0.0003850  -0.0000726  -0.0002528  -0.0000401   0.0018458  -0.0007212
    3  -0.0005613  -0.0002107   0.0001595   0.0000720   0.0008739  -0.0001534
           13
    1   0.0000176
    2  -0.0004047
    3  -0.0000893
 Gradient of SCF Energy
            1           2           3           4           5           6
    1   0.0019238   0.0019413   0.0268525  -0.0033196   0.0019683   0.0138203
    2  -0.0038085  -0.0059735   0.0150379   0.0047139   0.0000933  -0.0031697
    3   0.0012270   0.0018525  -0.0197158  -0.0008373  -0.0005340   0.0112321
            7           8           9          10          11          12
    1   0.6807573  -0.0148531  -0.0011929  -0.0148872  -0.7068388   0.0205746
    2   0.4101500   0.0024923   0.0111650  -0.0062297  -0.4315919   0.0011016
    3  -0.2097981   0.0132036  -0.0107533   0.0016090   0.2139269  -0.0064717
           13
    1  -0.0067466
    2   0.0060191
    3   0.0050591
 Max gradient component =       7.068E-01
 RMS gradient           =       1.902E-01
 Computing fast CPCM-SWIG gradient
 Updating gradient with PCM contributions...
 -- total gradient after adding PCM contribution --
---------------------------------------------------
  Atom         X              Y              Z     
---------------------------------------------------
   1      -0.000590      -0.002847       0.000832
   2       0.001284      -0.001912       0.000847
   3       0.015039       0.017488      -0.005021
   4      -0.001466       0.000927      -0.000670
   5       0.000223       0.001069       0.000653
   6       0.000143      -0.000194       0.000250
   7       0.709492       0.421131      -0.217875
   8      -0.003107      -0.001638       0.000883
   9      -0.000609      -0.000017      -0.001237
  10      -0.000411      -0.000451       0.001929
  11      -0.726784      -0.431509       0.221414
  12       0.013514       0.004090      -0.004096
  13      -0.006728      -0.006137       0.002093
---------------------------------------------------
 Number of fixed atoms: 0
 Gradient time:  CPU 596.73 s  wall 37.40 s
 Geometry Optimization Parameters
   NAtoms,    NIC,     NZ,  NCons,   NDum,   NFix, NCnnct, MaxDiis
       13      84       0       0       0       0       0       0


** GEOMETRY OPTIMIZATION IN DELOCALIZED INTERNAL COORDINATES **
   Searching for a Minimum

   Optimization Cycle:   1

                       Coordinates (Angstroms)
     ATOM                X               Y               Z
      1  O        -1.9351170103   -4.3096774174    1.3400474306
      2  C        -1.5661825504   -4.9710915330    0.2083949447
      3  C        -2.8339166195   -3.3092228285    1.0003650609
      4  O        -0.7320331758   -5.8221507995    0.1741347022
      5  O        -2.2742140125   -4.5382521363   -0.8386508077
      6  C        -3.2666933425   -3.5882799742   -0.3991280389
      7  H        -1.5596006406   -1.7078404594    0.8387319203
      8  H        -3.5207902237   -3.0348144473    1.7970117190
      9  H        -3.2569638000   -2.7293641132   -1.0755409980
     10  H        -4.2534590539   -4.0678056370   -0.4296719689
     11  C        -0.9611052060   -1.3717295518    0.6510771153
     12  O         0.0360758643   -1.8501715526    0.1398350598
     13  H        -1.0078202290   -0.2955395498    0.8884738605
   Point Group: c1    Number of degrees of freedom:    33


   Energy is   -456.087785102


 Attempting to generate delocalized internal coordinates
 Initial Hessian constructed with Jon Baker's OPTIMIZE code

 ** Taking Steepest Descent Step **
 Calculated Step too Large.  Step scaled by  0.345264
 Step Taken.  Stepsize is  0.300000

                             Maximum     Tolerance    Cnvgd?
         Gradient           0.507970      0.000300      NO
         Displacement       0.175384      0.001200      NO
         Energy change     *********      0.000001      NO


 New Cartesian Coordinates Obtained by Inverse Iteration

 Displacement from previous Coordinates is:  0.422135
 ----------------------------------------------------------------
             Standard Nuclear Orientation (Angstroms)
    I     Atom           X                Y                Z
 ----------------------------------------------------------------
    1      O      -1.9621724817    -4.3334534458     1.3421984793
    2      C      -1.5789623322    -4.9823067319     0.2080220761
    3      C      -2.8688258220    -3.3400029411     1.0044900270
    4      O      -0.7355314721    -5.8245800473     0.1732644084
    5      O      -2.2841425205    -4.5485718521    -0.8405750245
    6      C      -3.2892861738    -3.6122161443    -0.4003016252
    7      H      -1.6077095568    -1.7225158849     0.8629839501
    8      H      -3.5629882928    -3.0786679855     1.7986638156
    9      H      -3.2834507256    -2.7477487815    -1.0694251196
   10      H      -4.2708221859    -4.1013206032    -0.4420646785
   11      C      -0.8783626067    -1.3028297802     0.6411291241
   12      O       0.1210598147    -1.7746594083     0.1329874055
   13      H      -0.9306256445    -0.2270663940     0.8837071614
 ----------------------------------------------------------------
 Nuclear Repulsion Energy =         372.53097610 hartrees
 There are       31 alpha and       30 beta electrons
 Discretize the solute cavity surface with Lebedev spheres
	Using 110 Lebedev grid points for each H atom
	Using 194 Lebedev grid points for other atoms
	Atomic van der Waals radii will be scaled by 1.20
 Remove points where switching function is < 1.0e-08
 Keep 926 surface tesserae and discard 1176 interior tesserae
 Molecular Surface Area = 179.943 Angst**2
 Applying Cartesian multipole field
    Component          Value
    ---------          -----
     (2,0,0)        1.00000E-11
     (0,2,0)        2.00000E-12
     (0,0,2)       -3.00000E-11
 Nucleus-field energy     =     0.0000000121 hartrees
 Requested basis set is def2-TZVPPD
 There are 143 shells and 393 basis functions
 A cutoff of  1.0D-14 yielded   9657 shell pairs
 There are     73667 function pairs (     94787 Cartesian)
 Smallest overlap matrix eigenvalue = 3.19E-06
 Guess MOs from SCF MO coefficient file

 -----------------------------------------------------------------------
  General SCF calculation program by
  Eric Jon Sundstrom, Paul Horn, Yuezhi Mao, Dmitri Zuev, Alec White,
  David Stuck, Shaama M.S., Shane Yost, Joonho Lee, David Small,
  Daniel Levine, Susi Lehtola, Hugh Burton, Evgeny Epifanovsky,
  Bang C. Huynh
 -----------------------------------------------------------------------
 Exchange:     0.1670 Hartree-Fock + 1.0000 wB97X-V + LR-HF
 Correlation:  1.0000 wB97X-V
 Using SG-3 standard quadrature grid
 Nonlocal Correlation:  VV10 with C = 0.0100 and b = 6.00 and scale = 1.00000
 Grid used for NLC:  SG-1 standard quadrature
 
 Citation of the SMD model:
 Marenich, A.V.; Cramer, C.J.; Truhlar, D.G.
 J. Phys. Chem. B 2009, 113, 6378-6396.
 iSolventCode=           0
 Solvent: other                                                           
 
 vradii
            1           2           3           4           5           6
    1   2.2940000   1.8500000   1.8500000   2.2940000   2.2940000   1.8500000
            7           8           9          10          11          12
    1   1.2000000   1.2000000   1.2000000   1.2000000   1.8500000   2.2940000
           13
    1   1.2000000
 using 40 threads for integral computing
 -------------------------------------------------------
 OpenMP Integral computing Module                
 Release: version 1.0, May 2013, Q-Chem Inc. Pittsburgh 
 -------------------------------------------------------
 using 40 threads for integral computing
 -------------------------------------------------------
 OpenMP Integral computing Module                
 Release: version 1.0, May 2013, Q-Chem Inc. Pittsburgh 
 -------------------------------------------------------
 -------------------------------------------------------
 OpenMP BLAS3 based DFT computing Module                
 Release: version 1.0, May 2013, Q-Chem Inc. Pittsburgh 
 -------------------------------------------------------
 -------------------------------------------------------
 OpenMP BLAS3 based DFT computing Module                
 Release: version 1.0, May 2013, Q-Chem Inc. Pittsburgh 
 -------------------------------------------------------
 -------------------------------------------------------
 OpenMP BLAS3 based DFT computing Module                
 Release: version 1.0, May 2013, Q-Chem Inc. Pittsburgh 
 -------------------------------------------------------
 A unrestricted SCF calculation will be
 performed using Roothaan-Hall, DIIS
 SCF converges when DIIS error is below 1.0e-08
 ---------------------------------------
  Cycle       Energy         DIIS error
 ---------------------------------------
    1    -456.8608033883      8.13e-04  Roothaan Step
 ---------------------------------------
  Cycle       Energy         DIIS error
 ---------------------------------------
    1    -456.2394804316      2.39e-04  
    2    -456.2432275493      2.34e-04  
    3    -456.2459792437      4.28e-05  
    4    -456.2461357739      2.22e-05  
    5    -456.2461765778      6.37e-06  
    6    -456.2461818794      2.83e-06  
    7    -456.2461827375      9.45e-07  
    8    -456.2461829162      3.88e-07  
    9    -456.2461829498      1.53e-07  
   10    -456.2461829566      9.00e-08  
   11    -456.2461829576      3.59e-08  
   12    -456.2461829579      1.03e-08  
   13    -456.2461829580      6.18e-09  Convergence criterion met
 ---------------------------------------
 SCF time:   CPU 2876.27s  wall 118.00s 
<S^2> =          0.753320728
(3)  G-ENP(liq) elect-nuc-pol free energy of system     -456.246182958 a.u.
(4)  G-CDS(liq) cavity-dispersion-solvent structure 
     free energy                                               -2.6268 kcal/mol
(6)  G-S(liq) free energy of system                     -456.250369102 a.u.
 SCF   energy in the final basis set =     -456.2461829580
 Total energy in the final basis set =     -456.2503691022
 
 --------------------------------------------------------------
 
                    Orbital Energies (a.u.)
 --------------------------------------------------------------
 
 Alpha MOs
 -- Occupied --
-19.2954 -19.2819 -19.2249 -19.2129 -10.4572 -10.3453 -10.3417 -10.3344
 -1.3144  -1.1985  -1.1852  -1.1809  -0.9130  -0.8099  -0.7963  -0.7415
 -0.6636  -0.6462  -0.6188  -0.6104  -0.5692  -0.5642  -0.5600  -0.5128
 -0.5067  -0.5022  -0.4985  -0.4287  -0.4222  -0.3795  -0.3048
 -- Virtual --
  0.0444   0.0559   0.0751   0.0798   0.0809   0.1030   0.1063   0.1142
  0.1174   0.1209   0.1247   0.1470   0.1533   0.1586   0.1643   0.1649
  0.1722   0.1924   0.1964   0.2096   0.2207   0.2285   0.2322   0.2371
  0.2447   0.2604   0.2710   0.2768   0.2809   0.2886   0.2935   0.3067
  0.3133   0.3167   0.3272   0.3355   0.3376   0.3460   0.3557   0.3589
  0.3634   0.3700   0.3779   0.3845   0.3886   0.3922   0.3987   0.4082
  0.4182   0.4296   0.4304   0.4389   0.4485   0.4499   0.4531   0.4623
  0.4690   0.4762   0.4798   0.4951   0.4979   0.5136   0.5221   0.5290
  0.5301   0.5427   0.5508   0.5591   0.5646   0.5698   0.5782   0.5872
  0.5953   0.6126   0.6145   0.6241   0.6361   0.6465   0.6510   0.6653
  0.6678   0.6824   0.6848   0.6892   0.6964   0.7044   0.7182   0.7213
  0.7353   0.7513   0.7554   0.7659   0.7714   0.7789   0.7889   0.7975
  0.8033   0.8145   0.8238   0.8341   0.8430   0.8627   0.8664   0.8850
  0.8906   0.9056   0.9104   0.9278   0.9554   0.9557   0.9639   0.9693
  0.9848   0.9967   1.0069   1.0234   1.0343   1.0497   1.0697   1.0900
  1.1070   1.1227   1.1285   1.1501   1.1602   1.1919   1.1983   1.2144
  1.2257   1.2269   1.2473   1.2592   1.2670   1.2842   1.3020   1.3109
  1.3209   1.3347   1.3532   1.3633   1.3766   1.4048   1.4102   1.4194
  1.4449   1.4569   1.4640   1.5041   1.5269   1.5646   1.5862   1.6067
  1.6216   1.6422   1.6588   1.6694   1.6869   1.7220   1.7421   1.7653
  1.7833   1.8332   1.8657   1.8963   1.8993   1.9176   1.9442   1.9511
  1.9747   1.9834   2.0147   2.0350   2.0642   2.0820   2.1070   2.1388
  2.1644   2.2072   2.2325   2.2650   2.2844   2.2979   2.3242   2.3457
  2.3646   2.3893   2.4163   2.4371   2.4438   2.4785   2.4933   2.5481
  2.5657   2.5929   2.6696   2.7178   2.7716   2.8115   2.8648   2.8719
  2.8837   2.9046   2.9168   2.9402   2.9525   2.9682   2.9814   3.0023
  3.0058   3.0420   3.0783   3.1029   3.1317   3.1465   3.1628   3.1788
  3.1897   3.2075   3.2191   3.2262   3.2279   3.2515   3.2694   3.2937
  3.3299   3.3600   3.3679   3.3701   3.3911   3.4027   3.4096   3.4523
  3.4608   3.4803   3.4908   3.5028   3.5241   3.5379   3.5426   3.5561
  3.5662   3.5903   3.6160   3.6302   3.6505   3.6683   3.6854   3.6941
  3.7145   3.7530   3.7639   3.7942   3.8191   3.8379   3.8532   3.9147
  3.9293   3.9486   4.0066   4.0166   4.0217   4.0619   4.1386   4.1579
  4.1709   4.2124   4.2358   4.2775   4.2932   4.3061   4.3470   4.3527
  4.3892   4.4140   4.4377   4.4740   4.5857   4.6359   4.6401   4.6597
  4.6798   4.7447   4.7489   4.8156   4.8517   4.8777   4.9361   4.9567
  4.9680   5.0117   5.0284   5.0580   5.0741   5.1154   5.1683   5.2336
  5.2537   5.2622   5.2751   5.3253   5.3520   5.3968   5.4122   5.4559
  5.5077   5.5090   5.6141   5.6242   5.6410   5.6959   5.7234   5.7555
  5.7706   5.7889   5.8818   5.9193   5.9336   5.9623   5.9864   6.0887
  6.1046   6.1602   6.2103   6.2588   6.3056   6.3120   6.3852   6.4095
  6.4958   6.5601   6.6184   6.6355   6.6865   6.6940   6.7344   6.8013
  6.8543   6.8650   6.9170   6.9236   6.9881   7.0109   7.0835   7.1369
  7.1681   7.1957   7.3014   7.3514   7.3885   7.4568   7.5329   7.5732
  7.6334   7.6755  23.1803  23.4981  23.8957  24.1865  44.1881  44.3872
 44.4483  44.5688
 
 Beta MOs
 -- Occupied --
-19.2928 -19.2819 -19.2249 -19.2125 -10.4572 -10.3456 -10.3336 -10.3301
 -1.3108  -1.1940  -1.1843  -1.1806  -0.9003  -0.8018  -0.7883  -0.7366
 -0.6532  -0.6415  -0.6148  -0.6000  -0.5671  -0.5636  -0.5500  -0.5055
 -0.5026  -0.4914  -0.4848  -0.4250  -0.4199  -0.3743
 -- Virtual --
  0.0223   0.0450   0.0566   0.0759   0.0802   0.0818   0.1037   0.1075
  0.1148   0.1186   0.1250   0.1263   0.1477   0.1544   0.1595   0.1649
  0.1659   0.1726   0.1943   0.1973   0.2104   0.2220   0.2311   0.2338
  0.2377   0.2474   0.2637   0.2723   0.2788   0.2848   0.2900   0.2961
  0.3085   0.3140   0.3197   0.3282   0.3375   0.3395   0.3485   0.3571
  0.3604   0.3658   0.3711   0.3801   0.3851   0.3912   0.3949   0.4001
  0.4094   0.4250   0.4305   0.4342   0.4395   0.4510   0.4520   0.4539
  0.4631   0.4706   0.4772   0.4834   0.4967   0.5002   0.5155   0.5282
  0.5306   0.5326   0.5440   0.5515   0.5597   0.5672   0.5715   0.5813
  0.5889   0.5964   0.6131   0.6159   0.6251   0.6373   0.6477   0.6521
  0.6660   0.6690   0.6835   0.6871   0.6910   0.6992   0.7059   0.7198
  0.7233   0.7365   0.7542   0.7566   0.7692   0.7742   0.7801   0.7896
  0.8000   0.8054   0.8152   0.8268   0.8361   0.8444   0.8640   0.8690
  0.8854   0.8925   0.9076   0.9130   0.9294   0.9563   0.9584   0.9646
  0.9703   0.9856   0.9992   1.0087   1.0252   1.0352   1.0517   1.0755
  1.0912   1.1109   1.1238   1.1314   1.1519   1.1631   1.1943   1.2009
  1.2198   1.2276   1.2294   1.2517   1.2605   1.2684   1.2877   1.3038
  1.3144   1.3232   1.3371   1.3565   1.3665   1.3792   1.4076   1.4123
  1.4232   1.4473   1.4589   1.4666   1.5092   1.5305   1.5702   1.5888
  1.6090   1.6237   1.6461   1.6615   1.6733   1.6906   1.7245   1.7457
  1.7669   1.7861   1.8383   1.8717   1.9003   1.9125   1.9217   1.9470
  1.9530   1.9802   1.9842   2.0156   2.0388   2.0663   2.0849   2.1102
  2.1436   2.1702   2.2123   2.2358   2.2679   2.2877   2.3010   2.3261
  2.3505   2.3683   2.3945   2.4201   2.4379   2.4478   2.4805   2.4972
  2.5583   2.5726   2.6016   2.6724   2.7210   2.7798   2.8221   2.8679
  2.8815   2.8885   2.9069   2.9233   2.9453   2.9551   2.9725   2.9861
  3.0057   3.0102   3.0472   3.0830   3.1128   3.1341   3.1491   3.1669
  3.1823   3.1916   3.2107   3.2252   3.2294   3.2365   3.2611   3.2744
  3.2971   3.3359   3.3634   3.3791   3.3816   3.3966   3.4108   3.4115
  3.4566   3.4720   3.4848   3.4980   3.5091   3.5275   3.5396   3.5480
  3.5607   3.5758   3.5942   3.6217   3.6350   3.6555   3.6732   3.6887
  3.7012   3.7177   3.7613   3.7703   3.8001   3.8270   3.8448   3.8569
  3.9228   3.9363   3.9600   4.0118   4.0207   4.0272   4.0634   4.1449
  4.1614   4.1762   4.2182   4.2402   4.2807   4.2935   4.3097   4.3512
  4.3548   4.3941   4.4168   4.4396   4.4778   4.5920   4.6380   4.6432
  4.6614   4.6810   4.7471   4.7497   4.8209   4.8573   4.8866   4.9398
  4.9612   4.9742   5.0160   5.0331   5.0595   5.0766   5.1215   5.1754
  5.2350   5.2568   5.2660   5.2768   5.3297   5.3539   5.3975   5.4129
  5.4598   5.5124   5.5126   5.6174   5.6287   5.6477   5.6995   5.7274
  5.7568   5.7744   5.7923   5.8903   5.9222   5.9343   5.9641   5.9887
  6.0904   6.1100   6.1633   6.2117   6.2611   6.3057   6.3160   6.3865
  6.4108   6.4969   6.5644   6.6191   6.6367   6.6879   6.6957   6.7357
  6.8022   6.8621   6.8658   6.9171   6.9271   6.9971   7.0125   7.0842
  7.1409   7.1695   7.1971   7.3020   7.3516   7.3898   7.4584   7.5339
  7.5743   7.6348   7.6759  23.1920  23.5000  23.8962  24.1873  44.1882
 44.3888  44.4488  44.5704
 --------------------------------------------------------------
 
          Ground-State Mulliken Net Atomic Charges

     Atom                 Charge (a.u.)    Spin (a.u.)
  --------------------------------------------------------
      1 O                    -0.226098       0.064221
      2 C                     0.464968       0.009497
      3 C                     0.059392       0.798101
      4 O                    -0.437604       0.016524
      5 O                    -0.253488       0.005663
      6 C                     0.252556      -0.022301
      7 H                     0.130603      -0.050021
      8 H                     0.076618       0.015238
      9 H                     0.053986       0.025512
     10 H                     0.062772       0.045584
     11 C                     0.188534       0.088493
     12 O                    -0.419308       0.000673
     13 H                     0.047069       0.002815
  --------------------------------------------------------
  Sum of atomic charges =    -0.000000
  Sum of spin   charges =     1.000000

  Building new vdw surfaces
         Merz-Kollman RESP Net Atomic Charges

     Atom                 Charge (a.u.)
  ----------------------------------------
      1 O                    -0.347464
      2 C                     0.879261
      3 C                     0.060051
      4 O                    -0.599158
      5 O                    -0.366509
      6 C                    -0.048600
      7 H                    -0.051812
      8 H                     0.149553
      9 H                     0.153730
     10 H                     0.153730
     11 C                     0.544339
     12 O                    -0.521752
     13 H                    -0.005367
  ----------------------------------------
  Sum of atomic charges =     0.000000

  Related Dipole Moment =     9.2369 (X -7.6287 Y  5.0471 Z  1.2842)

 -----------------------------------------------------------------
                    Cartesian Multipole Moments
 -----------------------------------------------------------------
    Charge (ESU x 10^10)
                -0.0000
    Dipole Moment (Debye)
         X      -7.6035      Y       4.9836      Z       1.3123
       Tot       9.1854
    Quadrupole Moments (Debye-Ang)
        XX     -20.6689     XY      18.6328     YY     -84.5970
        XZ      -3.0883     YZ      -1.6648     ZZ     -45.2235
    Octopole Moments (Debye-Ang^2)
       XXX     143.4207    XXY      85.1514    XYY      31.3687
       YYY     760.7978    XXZ      -4.6871    XYZ       8.7077
       YYZ     -11.3078    XZZ      74.0884    YZZ     173.2284
       ZZZ     -36.9271
    Hexadecapole Moments (Debye-Ang^3)
      XXXX    -855.6649   XXXY    -596.1364   XXYY    -635.8905
      XYYY    -814.0208   YYYY   -5956.0144   XXXZ      30.8534
      XXYZ      11.5219   XYYZ     -11.9686   YYYZ     120.4731
      XXZZ    -209.3546   XYZZ    -304.8478   YYZZ    -800.4726
      XZZZ      46.0860   YZZZ     113.1201   ZZZZ    -196.4982
 -----------------------------------------------------------------
 Calculating analytic gradient of the SCF energy
 Gradient of CDS energy
            1           2           3           4           5           6
    1   0.0005642   0.0010514  -0.0012800   0.0002007  -0.0007018  -0.0007777
    2   0.0000764  -0.0016549   0.0011523  -0.0001897   0.0007728  -0.0000632
    3   0.0004851  -0.0003405   0.0011802   0.0000557  -0.0000589  -0.0013706
            7           8           9          10          11          12
    1   0.0009291   0.0001842   0.0001700   0.0002619  -0.0006973   0.0000759
    2  -0.0004819  -0.0000694  -0.0002360  -0.0000381   0.0017259  -0.0005926
    3  -0.0006538  -0.0002108   0.0001602   0.0000732   0.0009019  -0.0001311
           13
    1   0.0000195
    2  -0.0004015
    3  -0.0000905
 Gradient of SCF Energy
            1           2           3           4           5           6
    1   0.0017088   0.0018485   0.0234575  -0.0029066   0.0017072   0.0136586
    2  -0.0040316  -0.0052703   0.0125039   0.0041824  -0.0000475  -0.0039750
    3   0.0013024   0.0018180  -0.0179308  -0.0007978  -0.0006750   0.0110749
            7           8           9          10          11          12
    1   0.2205484  -0.0143558  -0.0012745  -0.0147959  -0.2427159   0.0196146
    2   0.1446834   0.0026014   0.0113364  -0.0062870  -0.1617153   0.0012517
    3  -0.0634157   0.0128732  -0.0109702   0.0014402   0.0669097  -0.0061080
           13
    1  -0.0064949
    2   0.0047676
    3   0.0044794
 Max gradient component =       2.427E-01
 RMS gradient           =       6.524E-02
 Computing fast CPCM-SWIG gradient
 Updating gradient with PCM contributions...
 -- total gradient after adding PCM contribution --
---------------------------------------------------
  Atom         X              Y              Z     
---------------------------------------------------
   1      -0.000759      -0.002787       0.000784
   2       0.001109      -0.001187       0.000878
   3       0.012300       0.014517      -0.004217
   4      -0.001119       0.000474      -0.000638
   5      -0.000045       0.000923       0.000540
   6       0.000320      -0.000293       0.000258
   7       0.234458       0.150778      -0.068042
   8      -0.002865      -0.001676       0.000714
   9      -0.000645       0.000008      -0.001305
  10      -0.000415      -0.000400       0.001823
  11      -0.249050      -0.159166       0.071131
  12       0.012247       0.004188      -0.003577
  13      -0.005536      -0.005379       0.001650
---------------------------------------------------
 Number of fixed atoms: 0
 Gradient time:  CPU 577.79 s  wall 26.45 s
 Geometry Optimization Parameters
   NAtoms,    NIC,     NZ,  NCons,   NDum,   NFix, NCnnct, MaxDiis
       13      84       0       0       0       0       0       0

 Cartesian Hessian Update
 Hessian updated using BFGS update


** GEOMETRY OPTIMIZATION IN DELOCALIZED INTERNAL COORDINATES **
   Searching for a Minimum

   Optimization Cycle:   2

                       Coordinates (Angstroms)
     ATOM                X               Y               Z
      1  O        -1.9621724817   -4.3334534458    1.3421984793
      2  C        -1.5789623322   -4.9823067319    0.2080220761
      3  C        -2.8688258220   -3.3400029411    1.0044900270
      4  O        -0.7355314721   -5.8245800473    0.1732644084
      5  O        -2.2841425205   -4.5485718521   -0.8405750245
      6  C        -3.2892861738   -3.6122161443   -0.4003016252
      7  H        -1.6077095568   -1.7225158849    0.8629839501
      8  H        -3.5629882928   -3.0786679855    1.7986638156
      9  H        -3.2834507256   -2.7477487815   -1.0694251196
     10  H        -4.2708221859   -4.1013206032   -0.4420646785
     11  C        -0.8783626067   -1.3028297802    0.6411291241
     12  O         0.1210598147   -1.7746594083    0.1329874055
     13  H        -0.9306256445   -0.2270663940    0.8837071614
   Point Group: c1    Number of degrees of freedom:    33


   Energy is   -456.250369102

 Hessian updated using BFGS update

 32 Hessian modes will be used to form the next step
  Hessian Eigenvalues:
     0.002000    0.011894    0.018265    0.022441    0.039439    0.039515
     0.051151    0.051157    0.053035    0.060548    0.061503    0.099484
     0.105823    0.110020    0.119821    0.159995    0.160024    0.199478
     0.243048    0.249993    0.319328    0.333468    0.339561    0.344309
     0.351524    0.377589    0.456755    0.498995    0.556373    0.960538
     1.088554    1.901878

 Minimum search - taking simple RFO step
 Searching for Lamda that Minimizes Along All modes
 Value Taken    Lamda =  -0.05000238
 Step Taken.  Stepsize is  0.231031

                             Maximum     Tolerance    Cnvgd?
         Gradient           0.179467      0.000300      NO
         Displacement       0.164166      0.001200      NO
         Energy change     -0.162584      0.000001      NO


 New Cartesian Coordinates Obtained by Inverse Iteration

 Displacement from previous Coordinates is:  0.392795
 ----------------------------------------------------------------
             Standard Nuclear Orientation (Angstroms)
    I     Atom           X                Y                Z
 ----------------------------------------------------------------
    1      O      -1.9846688425    -4.3533376329     1.3460113290
    2      C      -1.5801810195    -4.9809198879     0.2072328463
    3      C      -2.9116193832    -3.3792801054     1.0157758430
    4      O      -0.7149236734    -5.8015163349     0.1722300505
    5      O      -2.2805153428    -4.5451002679    -0.8436685106
    6      C      -3.3081796966    -3.6334327319    -0.4006103728
    7      H      -1.6288849055    -1.6984067461     0.8862803700
    8      H      -3.6058537335    -3.1307821785     1.8104791433
    9      H      -3.2995641581    -2.7534297592    -1.0471634218
   10      H      -4.2810160557    -4.1338936539    -0.4782480922
   11      C      -0.8325861047    -1.2393066537     0.6439553531
   12      O       0.1086327996    -1.7967002518     0.1254207802
   13      H      -0.8124598838    -0.1498337960     0.8573846819
 ----------------------------------------------------------------
 Nuclear Repulsion Energy =         371.07933742 hartrees
 There are       31 alpha and       30 beta electrons
 Discretize the solute cavity surface with Lebedev spheres
	Using 110 Lebedev grid points for each H atom
	Using 194 Lebedev grid points for other atoms
	Atomic van der Waals radii will be scaled by 1.20
 Remove points where switching function is < 1.0e-08
 Keep 926 surface tesserae and discard 1176 interior tesserae
 Molecular Surface Area = 180.230 Angst**2
 Applying Cartesian multipole field
    Component          Value
    ---------          -----
     (2,0,0)        1.00000E-11
     (0,2,0)        2.00000E-12
     (0,0,2)       -3.00000E-11
 Nucleus-field energy     =     0.0000000121 hartrees
 Requested basis set is def2-TZVPPD
 There are 143 shells and 393 basis functions
 A cutoff of  1.0D-14 yielded   9636 shell pairs
 There are     73540 function pairs (     94626 Cartesian)
 Smallest overlap matrix eigenvalue = 4.77E-06
 Guess MOs from SCF MO coefficient file

 -----------------------------------------------------------------------
  General SCF calculation program by
  Eric Jon Sundstrom, Paul Horn, Yuezhi Mao, Dmitri Zuev, Alec White,
  David Stuck, Shaama M.S., Shane Yost, Joonho Lee, David Small,
  Daniel Levine, Susi Lehtola, Hugh Burton, Evgeny Epifanovsky,
  Bang C. Huynh
 -----------------------------------------------------------------------
 Exchange:     0.1670 Hartree-Fock + 1.0000 wB97X-V + LR-HF
 Correlation:  1.0000 wB97X-V
 Using SG-3 standard quadrature grid
 Nonlocal Correlation:  VV10 with C = 0.0100 and b = 6.00 and scale = 1.00000
 Grid used for NLC:  SG-1 standard quadrature
 
 Citation of the SMD model:
 Marenich, A.V.; Cramer, C.J.; Truhlar, D.G.
 J. Phys. Chem. B 2009, 113, 6378-6396.
 iSolventCode=           0
 Solvent: other                                                           
 
 vradii
            1           2           3           4           5           6
    1   2.2940000   1.8500000   1.8500000   2.2940000   2.2940000   1.8500000
            7           8           9          10          11          12
    1   1.2000000   1.2000000   1.2000000   1.2000000   1.8500000   2.2940000
           13
    1   1.2000000
 using 40 threads for integral computing
 -------------------------------------------------------
 OpenMP Integral computing Module                
 Release: version 1.0, May 2013, Q-Chem Inc. Pittsburgh 
 -------------------------------------------------------
 using 40 threads for integral computing
 -------------------------------------------------------
 OpenMP Integral computing Module                
 Release: version 1.0, May 2013, Q-Chem Inc. Pittsburgh 
 -------------------------------------------------------
 -------------------------------------------------------
 OpenMP BLAS3 based DFT computing Module                
 Release: version 1.0, May 2013, Q-Chem Inc. Pittsburgh 
 -------------------------------------------------------
 -------------------------------------------------------
 OpenMP BLAS3 based DFT computing Module                
 Release: version 1.0, May 2013, Q-Chem Inc. Pittsburgh 
 -------------------------------------------------------
 -------------------------------------------------------
 OpenMP BLAS3 based DFT computing Module                
 Release: version 1.0, May 2013, Q-Chem Inc. Pittsburgh 
 -------------------------------------------------------
 A unrestricted SCF calculation will be
 performed using Roothaan-Hall, DIIS
 SCF converges when DIIS error is below 1.0e-08
 ---------------------------------------
  Cycle       Energy         DIIS error
 ---------------------------------------
    1    -456.9184949389      4.20e-04  Roothaan Step
 ---------------------------------------
  Cycle       Energy         DIIS error
 ---------------------------------------
    1    -456.2768930638      2.24e-04  
    2    -456.2796411998      2.49e-04  
    3    -456.2827828929      3.28e-05  
    4    -456.2829012511      1.80e-05  
    5    -456.2829285100      5.83e-06  
    6    -456.2829326330      2.31e-06  
    7    -456.2829331357      8.21e-07  
    8    -456.2829332469      2.95e-07  
    9    -456.2829332638      1.75e-07  
   10    -456.2829332681      7.08e-08  
   11    -456.2829332690      2.33e-08  
   12    -456.2829332692      7.83e-09  Convergence criterion met
 ---------------------------------------
 SCF time:   CPU 2681.51s  wall 108.00s 
<S^2> =          0.753361432
(3)  G-ENP(liq) elect-nuc-pol free energy of system     -456.282933269 a.u.
(4)  G-CDS(liq) cavity-dispersion-solvent structure 
     free energy                                               -2.5783 kcal/mol
(6)  G-S(liq) free energy of system                     -456.287042001 a.u.
 SCF   energy in the final basis set =     -456.2829332692
 Total energy in the final basis set =     -456.2870420005
 
 --------------------------------------------------------------
 
                    Orbital Energies (a.u.)
 --------------------------------------------------------------
 
 Alpha MOs
 -- Occupied --
-19.2952 -19.2819 -19.2226 -19.2125 -10.4570 -10.3451 -10.3420 -10.3408
 -1.3141  -1.1985  -1.1846  -1.1831  -0.9120  -0.8055  -0.7746  -0.7412
 -0.6630  -0.6462  -0.6175  -0.6103  -0.5687  -0.5615  -0.5598  -0.5126
 -0.5069  -0.5030  -0.4987  -0.4283  -0.4219  -0.3775  -0.3041
 -- Virtual --
  0.0477   0.0564   0.0758   0.0799   0.0812   0.1032   0.1064   0.1142
  0.1175   0.1211   0.1253   0.1475   0.1535   0.1592   0.1641   0.1651
  0.1723   0.1931   0.1965   0.2089   0.2211   0.2282   0.2314   0.2356
  0.2440   0.2607   0.2713   0.2786   0.2816   0.2882   0.2933   0.3064
  0.3106   0.3167   0.3262   0.3349   0.3369   0.3454   0.3526   0.3570
  0.3638   0.3689   0.3776   0.3838   0.3880   0.3910   0.3986   0.4048
  0.4180   0.4260   0.4290   0.4380   0.4473   0.4505   0.4542   0.4602
  0.4703   0.4706   0.4757   0.4894   0.4982   0.5139   0.5163   0.5274
  0.5310   0.5409   0.5496   0.5583   0.5592   0.5698   0.5725   0.5850
  0.5933   0.6129   0.6130   0.6239   0.6329   0.6369   0.6475   0.6652
  0.6683   0.6800   0.6852   0.6895   0.6939   0.7032   0.7179   0.7229
  0.7340   0.7504   0.7526   0.7683   0.7718   0.7782   0.7918   0.7935
  0.8042   0.8161   0.8235   0.8344   0.8428   0.8604   0.8645   0.8860
  0.8907   0.8968   0.9176   0.9273   0.9519   0.9567   0.9626   0.9673
  0.9813   0.9911   1.0047   1.0247   1.0307   1.0507   1.0674   1.0887
  1.0969   1.1144   1.1245   1.1509   1.1570   1.1830   1.1908   1.2113
  1.2198   1.2290   1.2444   1.2545   1.2668   1.2802   1.3007   1.3082
  1.3197   1.3307   1.3453   1.3537   1.3801   1.3974   1.4092   1.4106
  1.4425   1.4463   1.4594   1.4836   1.5231   1.5516   1.5811   1.6072
  1.6210   1.6372   1.6596   1.6804   1.6851   1.7305   1.7357   1.7630
  1.7893   1.8244   1.8653   1.8957   1.9009   1.9151   1.9483   1.9554
  1.9624   1.9846   2.0074   2.0258   2.0623   2.0725   2.1052   2.1270
  2.1652   2.1989   2.2313   2.2444   2.2865   2.2918   2.3155   2.3468
  2.3507   2.3871   2.4113   2.4252   2.4464   2.4724   2.4814   2.5066
  2.5633   2.5815   2.6676   2.7159   2.7669   2.8138   2.8579   2.8736
  2.8791   2.8983   2.9122   2.9345   2.9448   2.9614   2.9774   2.9910
  3.0051   3.0383   3.0792   3.0864   3.1119   3.1427   3.1544   3.1705
  3.1910   3.2078   3.2121   3.2168   3.2303   3.2422   3.2616   3.2791
  3.3212   3.3405   3.3638   3.3700   3.3898   3.4014   3.4097   3.4501
  3.4585   3.4846   3.4873   3.5081   3.5222   3.5317   3.5423   3.5486
  3.5709   3.5852   3.6028   3.6298   3.6452   3.6539   3.6671   3.6807
  3.6887   3.7388   3.7475   3.7896   3.8073   3.8366   3.8522   3.9010
  3.9244   3.9445   3.9793   4.0087   4.0116   4.0333   4.1296   4.1469
  4.1554   4.1857   4.2252   4.2427   4.2672   4.2767   4.2971   4.3400
  4.3584   4.3884   4.4140   4.4681   4.5523   4.5849   4.6325   4.6407
  4.6609   4.7175   4.7432   4.8166   4.8504   4.8737   4.9125   4.9381
  4.9600   5.0008   5.0132   5.0311   5.0662   5.1146   5.1311   5.1670
  5.2096   5.2568   5.2750   5.3264   5.3516   5.3791   5.3815   5.4559
  5.5052   5.5116   5.6106   5.6237   5.6401   5.6761   5.6925   5.7258
  5.7672   5.7791   5.7921   5.8658   5.8747   5.9187   5.9289   5.9855
  6.0881   6.1095   6.2041   6.2157   6.2599   6.2814   6.3153   6.3870
  6.4905   6.5635   6.6162   6.6199   6.6354   6.6868   6.6946   6.7653
  6.8503   6.8631   6.9040   6.9237   6.9836   7.0101   7.0842   7.1374
  7.1530   7.1802   7.3001   7.3294   7.3647   7.3925   7.4561   7.5695
  7.6316   7.6760  23.1779  23.4922  23.8969  24.1300  44.1542  44.3843
 44.4472  44.5669
 
 Beta MOs
 -- Occupied --
-19.2926 -19.2818 -19.2226 -19.2121 -10.4570 -10.3454 -10.3401 -10.3306
 -1.3105  -1.1940  -1.1837  -1.1828  -0.8994  -0.7939  -0.7710  -0.7361
 -0.6526  -0.6414  -0.6131  -0.6005  -0.5667  -0.5609  -0.5497  -0.5055
 -0.5033  -0.4915  -0.4849  -0.4245  -0.4197  -0.3724
 -- Virtual --
  0.0211   0.0483   0.0571   0.0766   0.0803   0.0820   0.1038   0.1076
  0.1148   0.1186   0.1257   0.1265   0.1482   0.1546   0.1599   0.1646
  0.1662   0.1727   0.1949   0.1972   0.2097   0.2225   0.2308   0.2335
  0.2364   0.2464   0.2643   0.2727   0.2802   0.2853   0.2898   0.2959
  0.3084   0.3114   0.3197   0.3273   0.3372   0.3385   0.3480   0.3545
  0.3586   0.3664   0.3700   0.3799   0.3846   0.3904   0.3932   0.4000
  0.4062   0.4251   0.4277   0.4320   0.4387   0.4508   0.4523   0.4551
  0.4613   0.4718   0.4750   0.4777   0.4914   0.4991   0.5157   0.5208
  0.5291   0.5323   0.5419   0.5505   0.5597   0.5605   0.5711   0.5757
  0.5866   0.5942   0.6134   0.6144   0.6248   0.6337   0.6381   0.6483
  0.6657   0.6701   0.6809   0.6876   0.6914   0.6967   0.7048   0.7190
  0.7248   0.7349   0.7522   0.7550   0.7722   0.7740   0.7791   0.7930
  0.7962   0.8058   0.8173   0.8266   0.8361   0.8442   0.8638   0.8653
  0.8863   0.8927   0.8991   0.9195   0.9285   0.9536   0.9587   0.9639
  0.9681   0.9822   0.9930   1.0069   1.0263   1.0317   1.0527   1.0726
  1.0905   1.1006   1.1157   1.1283   1.1524   1.1595   1.1865   1.1919
  1.2167   1.2213   1.2319   1.2496   1.2556   1.2695   1.2836   1.3037
  1.3099   1.3216   1.3346   1.3487   1.3579   1.3812   1.4000   1.4109
  1.4126   1.4453   1.4487   1.4617   1.4892   1.5255   1.5578   1.5832
  1.6097   1.6226   1.6449   1.6630   1.6827   1.6893   1.7329   1.7380
  1.7649   1.7912   1.8286   1.8708   1.8999   1.9092   1.9207   1.9503
  1.9579   1.9685   1.9855   2.0106   2.0298   2.0626   2.0754   2.1086
  2.1303   2.1714   2.2040   2.2345   2.2495   2.2895   2.2957   2.3173
  2.3528   2.3595   2.3911   2.4159   2.4298   2.4480   2.4772   2.4873
  2.5118   2.5660   2.5885   2.6702   2.7193   2.7747   2.8240   2.8602
  2.8798   2.8880   2.9010   2.9186   2.9391   2.9492   2.9636   2.9831
  2.9960   3.0082   3.0434   3.0838   3.0951   3.1160   3.1454   3.1578
  3.1734   3.1940   3.2134   3.2139   3.2200   3.2382   3.2531   3.2664
  3.2821   3.3274   3.3482   3.3714   3.3791   3.3953   3.4083   3.4126
  3.4578   3.4696   3.4885   3.4934   3.5154   3.5271   3.5353   3.5492
  3.5535   3.5778   3.5895   3.6085   3.6332   3.6517   3.6586   3.6702
  3.6835   3.6944   3.7453   3.7567   3.7947   3.8128   3.8433   3.8554
  3.9068   3.9306   3.9539   3.9862   4.0134   4.0164   4.0367   4.1347
  4.1505   4.1609   4.1895   4.2287   4.2465   4.2713   4.2766   4.3003
  4.3438   4.3609   4.3932   4.4179   4.4719   4.5527   4.5911   4.6348
  4.6433   4.6633   4.7183   4.7455   4.8217   4.8567   4.8814   4.9146
  4.9420   4.9691   5.0018   5.0171   5.0360   5.0695   5.1191   5.1348
  5.1735   5.2103   5.2629   5.2766   5.3308   5.3535   5.3795   5.3821
  5.4598   5.5098   5.5155   5.6145   5.6278   5.6463   5.6772   5.6958
  5.7305   5.7703   5.7817   5.7952   5.8665   5.8821   5.9218   5.9339
  5.9878   6.0896   6.1152   6.2051   6.2172   6.2621   6.2815   6.3192
  6.3883   6.4915   6.5677   6.6171   6.6206   6.6365   6.6883   6.6963
  6.7657   6.8581   6.8642   6.9041   6.9273   6.9929   7.0116   7.0849
  7.1414   7.1538   7.1822   7.3007   7.3296   7.3656   7.3937   7.4577
  7.5707   7.6330   7.6764  23.1895  23.4941  23.8974  24.1307  44.1543
 44.3859  44.4476  44.5686
 --------------------------------------------------------------
 
          Ground-State Mulliken Net Atomic Charges

     Atom                 Charge (a.u.)    Spin (a.u.)
  --------------------------------------------------------
      1 O                    -0.221557       0.065761
      2 C                     0.467012       0.009761
      3 C                     0.027048       0.799394
      4 O                    -0.439136       0.016989
      5 O                    -0.253361       0.005785
      6 C                     0.267248      -0.025303
      7 H                     0.063254      -0.025567
      8 H                     0.070236       0.012969
      9 H                     0.050393       0.025862
     10 H                     0.061204       0.046455
     11 C                     0.274444       0.062071
     12 O                    -0.420112       0.001660
     13 H                     0.053327       0.004162
  --------------------------------------------------------
  Sum of atomic charges =    -0.000000
  Sum of spin   charges =     1.000000

  Building new vdw surfaces
         Merz-Kollman RESP Net Atomic Charges

     Atom                 Charge (a.u.)
  ----------------------------------------
      1 O                    -0.344050
      2 C                     0.882173
      3 C                     0.061208
      4 O                    -0.600849
      5 O                    -0.365240
      6 C                    -0.053737
      7 H                    -0.061588
      8 H                     0.149259
      9 H                     0.155453
     10 H                     0.155453
     11 C                     0.532981
     12 O                    -0.516094
     13 H                     0.005030
  ----------------------------------------
  Sum of atomic charges =     0.000000

  Related Dipole Moment =     9.2163 (X -7.5378 Y  5.1426 Z  1.2940)

 -----------------------------------------------------------------
                    Cartesian Multipole Moments
 -----------------------------------------------------------------
    Charge (ESU x 10^10)
                -0.0000
    Dipole Moment (Debye)
         X      -7.5186      Y       5.0901      Z       1.3224
       Tot       9.1754
    Quadrupole Moments (Debye-Ang)
        XX     -20.6611     XY      19.0044     YY     -84.0943
        XZ      -2.9363     YZ      -1.5649     ZZ     -45.3362
    Octopole Moments (Debye-Ang^2)
       XXX     142.7085    XXY      83.3771    XYY      27.9751
       YYY     755.0652    XXZ      -4.9649    XYZ       8.4077
       YYZ     -11.6662    XZZ      74.3384    YZZ     173.4457
       ZZZ     -37.0747
    Hexadecapole Moments (Debye-Ang^3)
      XXXX    -860.6852   XXXY    -592.7411   XXYY    -627.6668
      XYYY    -797.5568   YYYY   -5918.3126   XXXZ      32.2287
      XXYZ      12.3020   XYYZ     -10.2750   YYYZ     122.9751
      XXZZ    -210.9477   XYZZ    -306.0632   YYZZ    -801.8854
      XZZZ      46.8990   YZZZ     113.5945   ZZZZ    -198.1915
 -----------------------------------------------------------------
 Calculating analytic gradient of the SCF energy
 Gradient of CDS energy
            1           2           3           4           5           6
    1   0.0005935   0.0010547  -0.0012753   0.0002121  -0.0006549  -0.0007684
    2   0.0000698  -0.0016765   0.0011492  -0.0001815   0.0008422  -0.0000599
    3   0.0004929  -0.0003647   0.0012386   0.0000729  -0.0000486  -0.0013907
            7           8           9          10          11          12
    1   0.0007686   0.0001882   0.0001743   0.0002622  -0.0004757  -0.0000721
    2  -0.0004492  -0.0000674  -0.0002157  -0.0000365   0.0016636  -0.0006519
    3  -0.0006938  -0.0002155   0.0001740   0.0000712   0.0008597  -0.0001205
           13
    1  -0.0000071
    2  -0.0003863
    3  -0.0000757
 Gradient of SCF Energy
            1           2           3           4           5           6
    1   0.0022372  -0.0001614   0.0185972  -0.0020320   0.0023609   0.0125334
    2  -0.0029033  -0.0060948   0.0092522   0.0043140   0.0003000  -0.0044308
    3   0.0008940   0.0017905  -0.0148752  -0.0003596  -0.0016926   0.0107327
            7           8           9          10          11          12
    1   0.1096234  -0.0126629  -0.0011813  -0.0140060  -0.1200117   0.0073927
    2   0.0649359   0.0021756   0.0107255  -0.0060553  -0.0822674  -0.0020316
    3  -0.0334232   0.0120807  -0.0098631   0.0001907   0.0335253  -0.0025166
           13
    1  -0.0026896
    2   0.0120800
    3   0.0035163
 Max gradient component =       1.200E-01
 RMS gradient           =       3.269E-02
 Computing fast CPCM-SWIG gradient
 Updating gradient with PCM contributions...
 -- total gradient after adding PCM contribution --
---------------------------------------------------
  Atom         X              Y              Z     
---------------------------------------------------
   1      -0.000176      -0.001773       0.000400
   2      -0.001166      -0.002003       0.000855
   3       0.008209       0.011584      -0.001458
   4       0.000051       0.000538      -0.000206
   5       0.000532       0.001241      -0.000527
   6      -0.000439      -0.000741      -0.000285
   7       0.120622       0.070211      -0.037362
   8      -0.001411      -0.001743      -0.000011
   9      -0.000451      -0.000408      -0.000468
  10      -0.000182      -0.000240       0.001016
  11      -0.123271      -0.079765       0.036763
  12       0.000360       0.001612       0.000139
  13      -0.002679       0.001487       0.001144
---------------------------------------------------
 Number of fixed atoms: 0
 Gradient time:  CPU 567.64 s  wall 26.11 s
 Geometry Optimization Parameters
   NAtoms,    NIC,     NZ,  NCons,   NDum,   NFix, NCnnct, MaxDiis
       13      84       0       0       0       0       0       0

 Cartesian Hessian Update
 Hessian updated using BFGS update


** GEOMETRY OPTIMIZATION IN DELOCALIZED INTERNAL COORDINATES **
   Searching for a Minimum

   Optimization Cycle:   3

                       Coordinates (Angstroms)
     ATOM                X               Y               Z
      1  O        -1.9846688425   -4.3533376329    1.3460113290
      2  C        -1.5801810195   -4.9809198879    0.2072328463
      3  C        -2.9116193832   -3.3792801054    1.0157758430
      4  O        -0.7149236734   -5.8015163349    0.1722300505
      5  O        -2.2805153428   -4.5451002679   -0.8436685106
      6  C        -3.3081796966   -3.6334327319   -0.4006103728
      7  H        -1.6288849055   -1.6984067461    0.8862803700
      8  H        -3.6058537335   -3.1307821785    1.8104791433
      9  H        -3.2995641581   -2.7534297592   -1.0471634218
     10  H        -4.2810160557   -4.1338936539   -0.4782480922
     11  C        -0.8325861047   -1.2393066537    0.6439553531
     12  O         0.1086327996   -1.7967002518    0.1254207802
     13  H        -0.8124598838   -0.1498337960    0.8573846819
   Point Group: c1    Number of degrees of freedom:    33


   Energy is   -456.287042001

 Hessian updated using BFGS update

 33 Hessian modes will be used to form the next step
  Hessian Eigenvalues:
     0.002000    0.011893    0.018252    0.022450    0.039275    0.039505
     0.051150    0.051217    0.053042    0.060544    0.061469    0.099480
     0.105837    0.110021    0.119769    0.159127    0.160001    0.165704
     0.199489    0.243056    0.250009    0.319359    0.334508    0.339560
     0.344331    0.351545    0.377581    0.456661    0.498994    0.556328
     0.961428    0.975993    1.088595

 Minimum search - taking simple RFO step
 Searching for Lamda that Minimizes Along All modes
 Value Taken    Lamda =  -0.02538706
 Step Taken.  Stepsize is  0.232456

                             Maximum     Tolerance    Cnvgd?
         Gradient           0.092676      0.000300      NO
         Displacement       0.170464      0.001200      NO
         Energy change     -0.036673      0.000001      NO


 New Cartesian Coordinates Obtained by Inverse Iteration

 Displacement from previous Coordinates is:  0.370775
 ----------------------------------------------------------------
             Standard Nuclear Orientation (Angstroms)
    I     Atom           X                Y                Z
 ----------------------------------------------------------------
    1      O      -2.0095933420    -4.3704552305     1.3521727636
    2      C      -1.5717554425    -4.9649037508     0.2079807962
    3      C      -2.9624321367    -3.4233947384     1.0279424882
    4      O      -0.6971846218    -5.7760764924     0.1740395766
    5      O      -2.2790734597    -4.5401360285    -0.8418000403
    6      C      -3.3299527186    -3.6537977189    -0.3994911650
    7      H      -1.6545008969    -1.6725526454     0.9049471671
    8      H      -3.6576173499    -3.1854319219     1.8234840598
    9      H      -3.3187117238    -2.7574926066    -1.0235092628
   10      H      -4.2927252070    -4.1653656631    -0.5140087509
   11      C      -0.7847221372    -1.1887834795     0.6303282747
   12      O       0.1293602824    -1.7906539926     0.1130777454
   13      H      -0.7029112462    -0.1068957313     0.8399163472
 ----------------------------------------------------------------
 Nuclear Repulsion Energy =         369.34387378 hartrees
 There are       31 alpha and       30 beta electrons
 Discretize the solute cavity surface with Lebedev spheres
	Using 110 Lebedev grid points for each H atom
	Using 194 Lebedev grid points for other atoms
	Atomic van der Waals radii will be scaled by 1.20
 Remove points where switching function is < 1.0e-08
 Keep 934 surface tesserae and discard 1168 interior tesserae
 Molecular Surface Area = 181.020 Angst**2
 Applying Cartesian multipole field
    Component          Value
    ---------          -----
     (2,0,0)        1.00000E-11
     (0,2,0)        2.00000E-12
     (0,0,2)       -3.00000E-11
 Nucleus-field energy     =     0.0000000122 hartrees
 Requested basis set is def2-TZVPPD
 There are 143 shells and 393 basis functions
 A cutoff of  1.0D-14 yielded   9618 shell pairs
 There are     73340 function pairs (     94325 Cartesian)
 Smallest overlap matrix eigenvalue = 7.13E-06
 Guess MOs from SCF MO coefficient file

 -----------------------------------------------------------------------
  General SCF calculation program by
  Eric Jon Sundstrom, Paul Horn, Yuezhi Mao, Dmitri Zuev, Alec White,
  David Stuck, Shaama M.S., Shane Yost, Joonho Lee, David Small,
  Daniel Levine, Susi Lehtola, Hugh Burton, Evgeny Epifanovsky,
  Bang C. Huynh
 -----------------------------------------------------------------------
 Exchange:     0.1670 Hartree-Fock + 1.0000 wB97X-V + LR-HF
 Correlation:  1.0000 wB97X-V
 Using SG-3 standard quadrature grid
 Nonlocal Correlation:  VV10 with C = 0.0100 and b = 6.00 and scale = 1.00000
 Grid used for NLC:  SG-1 standard quadrature
 
 Citation of the SMD model:
 Marenich, A.V.; Cramer, C.J.; Truhlar, D.G.
 J. Phys. Chem. B 2009, 113, 6378-6396.
 iSolventCode=           0
 Solvent: other                                                           
 
 vradii
            1           2           3           4           5           6
    1   2.2940000   1.8500000   1.8500000   2.2940000   2.2940000   1.8500000
            7           8           9          10          11          12
    1   1.2000000   1.2000000   1.2000000   1.2000000   1.8500000   2.2940000
           13
    1   1.2000000
 using 40 threads for integral computing
 -------------------------------------------------------
 OpenMP Integral computing Module                
 Release: version 1.0, May 2013, Q-Chem Inc. Pittsburgh 
 -------------------------------------------------------
 using 40 threads for integral computing
 -------------------------------------------------------
 OpenMP Integral computing Module                
 Release: version 1.0, May 2013, Q-Chem Inc. Pittsburgh 
 -------------------------------------------------------
 -------------------------------------------------------
 OpenMP BLAS3 based DFT computing Module                
 Release: version 1.0, May 2013, Q-Chem Inc. Pittsburgh 
 -------------------------------------------------------
 -------------------------------------------------------
 OpenMP BLAS3 based DFT computing Module                
 Release: version 1.0, May 2013, Q-Chem Inc. Pittsburgh 
 -------------------------------------------------------
 -------------------------------------------------------
 OpenMP BLAS3 based DFT computing Module                
 Release: version 1.0, May 2013, Q-Chem Inc. Pittsburgh 
 -------------------------------------------------------
 A unrestricted SCF calculation will be
 performed using Roothaan-Hall, DIIS
 SCF converges when DIIS error is below 1.0e-08
 ---------------------------------------
  Cycle       Energy         DIIS error
 ---------------------------------------
    1    -456.8840469066      3.44e-04  Roothaan Step
 ---------------------------------------
  Cycle       Energy         DIIS error
 ---------------------------------------
    1    -456.2940729005      2.19e-04  
    2    -456.2966596893      2.45e-04  
    3    -456.2997127942      3.15e-05  
    4    -456.2998244304      1.77e-05  
    5    -456.2998510481      5.71e-06  
    6    -456.2998551881      2.30e-06  
    7    -456.2998557122      8.32e-07  
    8    -456.2998558410      3.10e-07  
    9    -456.2998558648      1.86e-07  
   10    -456.2998558710      8.15e-08  
   11    -456.2998558726      3.02e-08  
   12    -456.2998558729      1.26e-08  
   13    -456.2998558730      7.70e-09  Convergence criterion met
 ---------------------------------------
 SCF time:   CPU 2815.55s  wall 115.00s 
<S^2> =          0.753428045
(3)  G-ENP(liq) elect-nuc-pol free energy of system     -456.299855873 a.u.
(4)  G-CDS(liq) cavity-dispersion-solvent structure 
     free energy                                               -2.5825 kcal/mol
(6)  G-S(liq) free energy of system                     -456.303971271 a.u.
 SCF   energy in the final basis set =     -456.2998558730
 Total energy in the final basis set =     -456.3039712705
 
 --------------------------------------------------------------
 
                    Orbital Energies (a.u.)
 --------------------------------------------------------------
 
 Alpha MOs
 -- Occupied --
-19.2954 -19.2820 -19.2223 -19.2124 -10.4571 -10.3486 -10.3453 -10.3422
 -1.3145  -1.1989  -1.1844  -1.1830  -0.9118  -0.8053  -0.7578  -0.7413
 -0.6626  -0.6467  -0.6157  -0.6083  -0.5687  -0.5601  -0.5597  -0.5132
 -0.5069  -0.5030  -0.4993  -0.4281  -0.4220  -0.3759  -0.3027
 -- Virtual --
  0.0487   0.0566   0.0763   0.0798   0.0813   0.1028   0.1066   0.1141
  0.1176   0.1211   0.1258   0.1461   0.1539   0.1597   0.1641   0.1649
  0.1716   0.1935   0.1962   0.2081   0.2209   0.2246   0.2303   0.2349
  0.2448   0.2601   0.2706   0.2794   0.2815   0.2876   0.2918   0.3065
  0.3094   0.3158   0.3252   0.3323   0.3373   0.3435   0.3477   0.3560
  0.3626   0.3671   0.3769   0.3832   0.3865   0.3901   0.3987   0.4028
  0.4187   0.4221   0.4274   0.4371   0.4422   0.4509   0.4545   0.4575
  0.4649   0.4719   0.4743   0.4884   0.4991   0.5092   0.5148   0.5239
  0.5319   0.5393   0.5466   0.5540   0.5574   0.5693   0.5696   0.5825
  0.5946   0.6088   0.6108   0.6238   0.6298   0.6340   0.6433   0.6629
  0.6678   0.6776   0.6835   0.6882   0.6927   0.7024   0.7178   0.7236
  0.7341   0.7478   0.7499   0.7681   0.7691   0.7766   0.7882   0.7937
  0.8036   0.8166   0.8213   0.8357   0.8428   0.8533   0.8629   0.8819
  0.8860   0.8907   0.9168   0.9265   0.9487   0.9550   0.9602   0.9652
  0.9773   0.9821   1.0036   1.0228   1.0260   1.0499   1.0622   1.0837
  1.0887   1.1096   1.1262   1.1492   1.1612   1.1775   1.1887   1.2046
  1.2161   1.2259   1.2413   1.2484   1.2624   1.2794   1.2998   1.3084
  1.3159   1.3219   1.3390   1.3447   1.3766   1.3894   1.4041   1.4092
  1.4316   1.4386   1.4470   1.4797   1.5225   1.5446   1.5705   1.5985
  1.6147   1.6297   1.6623   1.6836   1.6910   1.7269   1.7499   1.7609
  1.7950   1.8136   1.8631   1.8855   1.8946   1.9141   1.9445   1.9563
  1.9750   1.9840   2.0160   2.0295   2.0570   2.0736   2.1046   2.1113
  2.1679   2.1822   2.2161   2.2336   2.2850   2.2868   2.3107   2.3252
  2.3456   2.3888   2.3964   2.4211   2.4472   2.4617   2.4747   2.4989
  2.5615   2.5771   2.6654   2.7149   2.7647   2.8162   2.8518   2.8670
  2.8742   2.8932   2.9073   2.9218   2.9355   2.9599   2.9795   2.9846
  3.0067   3.0298   3.0742   3.0804   3.0943   3.1334   3.1456   3.1625
  3.1904   3.1975   3.2113   3.2210   3.2267   3.2292   3.2520   3.2755
  3.3125   3.3280   3.3612   3.3694   3.3869   3.4002   3.4034   3.4421
  3.4503   3.4816   3.4860   3.5013   3.5112   3.5300   3.5335   3.5493
  3.5639   3.5805   3.5962   3.6200   3.6286   3.6525   3.6551   3.6717
  3.6840   3.7246   3.7425   3.7842   3.8012   3.8370   3.8498   3.8778
  3.9150   3.9384   3.9593   3.9820   4.0074   4.0175   4.0498   4.1204
  4.1423   4.1629   4.1904   4.2314   4.2368   4.2554   4.2817   4.3137
  4.3383   4.3824   4.4071   4.4633   4.5092   4.5836   4.6231   4.6387
  4.6530   4.7111   4.7426   4.8159   4.8329   4.8521   4.8714   4.9364
[...]
         X      -6.1592      Y       5.7605      Z       1.3972
       Tot       8.5482
    Quadrupole Moments (Debye-Ang)
        XX     -21.8203     XY      18.1044     YY     -83.6034
        XZ      -2.3146     YZ      -1.3944     ZZ     -45.8976
    Octopole Moments (Debye-Ang^2)
       XXX     150.0624    XXY      83.9753    XYY      22.6552
       YYY     732.3489    XXZ      -5.5867    XYZ       6.9710
       YYZ     -13.6899    XZZ      76.4557    YZZ     174.7842
       ZZZ     -37.5128
    Hexadecapole Moments (Debye-Ang^3)
      XXXX    -889.2630   XXXY    -598.5414   XXYY    -618.0109
      XYYY    -743.1216   YYYY   -5652.1800   XXXZ      39.4805
      XXYZ      16.4883   XYYZ      -1.5131   YYYZ     145.0474
      XXZZ    -214.4916   XYZZ    -306.5701   YYZZ    -798.1897
      XZZZ      55.6109   YZZZ     123.4419   ZZZZ    -207.8531
 -----------------------------------------------------------------
 Calculating analytic gradient of the SCF energy
 Gradient of CDS energy
            1           2           3           4           5           6
    1   0.0006361   0.0009966  -0.0014727   0.0003290  -0.0004433  -0.0007502
    2   0.0001511  -0.0017339   0.0008025   0.0000389   0.0010230  -0.0000553
    3   0.0005022  -0.0003821   0.0013135   0.0000655  -0.0000660  -0.0014623
            7           8           9          10          11          12
    1   0.0002401   0.0002087   0.0003958   0.0002555   0.0007527  -0.0009483
    2  -0.0004529  -0.0000325  -0.0002177  -0.0000413   0.0016243  -0.0007472
    3  -0.0004271  -0.0002126   0.0001533   0.0000882   0.0004347  -0.0000210
           13
    1  -0.0001998
    2  -0.0003590
    3   0.0000137
 Gradient of SCF Energy
            1           2           3           4           5           6
    1   0.0018753   0.0025101   0.0100195  -0.0042055   0.0022478   0.0082647
    2  -0.0008580  -0.0033020  -0.0019885   0.0040056  -0.0009960  -0.0019101
    3  -0.0000459   0.0008521  -0.0125571  -0.0000624  -0.0005861   0.0117003
            7           8           9          10          11          12
    1  -0.0099914  -0.0104102  -0.0005522  -0.0103115  -0.0000950   0.0047841
    2  -0.0001733   0.0005836   0.0088824  -0.0038319  -0.0027194  -0.0071244
    3   0.0067758   0.0100065  -0.0064746  -0.0026203  -0.0028088  -0.0036059
           13
    1   0.0058644
    2   0.0094319
    3  -0.0005734
 Max gradient component =       1.256E-02
 RMS gradient           =       5.910E-03
 Computing fast CPCM-SWIG gradient
 Updating gradient with PCM contributions...
 -- total gradient after adding PCM contribution --
---------------------------------------------------
  Atom         X              Y              Z     
---------------------------------------------------
   1      -0.000008       0.000000      -0.000005
   2      -0.000007      -0.000005      -0.000039
   3      -0.000007      -0.000072       0.000009
   4       0.000015       0.000002      -0.000012
   5       0.000018      -0.000011       0.000020
   6      -0.000020       0.000023       0.000019
   7      -0.000019       0.000021      -0.000037
   8       0.000024       0.000027       0.000016
   9      -0.000005       0.000002       0.000008
  10      -0.000004       0.000002       0.000008
  11       0.000011       0.000018       0.000026
  12      -0.000013       0.000001      -0.000030
  13       0.000014      -0.000009       0.000015
---------------------------------------------------
 Number of fixed atoms: 0
 Gradient time:  CPU 574.08 s  wall 26.89 s
 Geometry Optimization Parameters
   NAtoms,    NIC,     NZ,  NCons,   NDum,   NFix, NCnnct, MaxDiis
       13      84       0       0       0       0       0       0

 Cartesian Hessian Update
 Hessian updated using BFGS update


** GEOMETRY OPTIMIZATION IN DELOCALIZED INTERNAL COORDINATES **
   Searching for a Minimum

   Optimization Cycle:  23

                       Coordinates (Angstroms)
     ATOM                X               Y               Z
      1  O        -2.0503898163   -4.4070487241    1.3807016603
      2  C        -1.5010721596   -4.8820463397    0.2291037975
      3  C        -3.1143731743   -3.5920073101    1.0643986986
      4  O        -0.5256776590   -5.5697624191    0.1953164526
      5  O        -2.2241074447   -4.5089287328   -0.8277141075
      6  C        -3.3246244737   -3.6763087178   -0.4077146393
      7  H        -1.6651171651   -1.1818084655    1.2457074079
      8  H        -3.8672603536   -3.4748017475    1.8313959802
      9  H        -3.2508527480   -2.7149395528   -0.9245697203
     10  H        -4.2631656839   -4.1644647767   -0.6913045082
     11  C        -0.7568521341   -1.1419750734    0.6174365890
     12  O        -0.3683393134   -2.1042232596    0.0017220660
     13  H        -0.2199878742   -0.1776248810    0.5806003231
   Point Group: c1    Number of degrees of freedom:    33


   Energy is   -456.311503479

 Hessian updated using BFGS update

 33 Hessian modes will be used to form the next step
  Hessian Eigenvalues:
     0.002123    0.003197    0.005879    0.009632    0.017152    0.022467
     0.031843    0.055514    0.061423    0.080457    0.086344    0.104641
     0.108247    0.110790    0.129193    0.159507    0.181764    0.191640
     0.211810    0.249745    0.260152    0.317829    0.334470    0.339074
     0.344176    0.351033    0.381973    0.390849    0.459024    0.496356
     0.556822    0.959597    1.093124

 Minimum search - taking simple RFO step
 Searching for Lamda that Minimizes Along All modes
 Value Taken    Lamda =  -0.00000028
 Step Taken.  Stepsize is  0.005544

                             Maximum     Tolerance    Cnvgd?
         Gradient           0.000044      0.000300     YES
         Displacement       0.004967      0.001200      NO
         Energy change     -0.000000      0.000001     YES


                       Distance Matrix (Angstroms)
             O (  1)   C (  2)   C (  3)   O (  4)   O (  5)   C (  6)
   C (  2)  1.361452
   C (  3)  1.377099  2.228151
   O (  4)  2.254282  1.193939  3.371671
   O (  5)  2.217579  1.333739  2.283289  2.248694
   C (  6)  2.314322  2.276990  1.489439  3.432625  1.442496
   H (  7)  3.250974  3.840853  2.818204  4.653577  3.959959  3.422032
   H (  8)  2.091227  3.185361  1.081139  4.269870  3.292451  2.312720
   H (  9)  3.101390  3.014805  2.178043  4.102528  2.069296  1.093989
   H ( 10)  3.041124  2.998539  2.174839  4.090205  2.072443  1.095253
   C ( 11)  3.593956  3.833119  3.429335  4.453867  3.946856  3.750632
   O ( 12)  3.167631  3.008502  3.299013  3.474507  3.148722  3.373235
   H ( 13)  4.677452  4.888385  4.502170  5.414521  4.975946  4.780829
             H (  7)   H (  8)   H (  9)   H ( 10)   C ( 11)   O ( 12)
   H (  8)  3.232690
   H (  9)  3.094374  2.924499
   H ( 10)  4.404329  2.645070  1.783343
   C ( 11)  1.105105  4.073134  3.327467  4.810663
   O ( 12)  2.019896  4.179550  3.088669  4.460331  1.206635
   H ( 13)  1.881263  5.073309  4.229615  5.818928  1.104333  2.017149

 
 Final energy is   -456.311503478828     


 ******************************
 **  OPTIMIZATION CONVERGED  **
 ******************************

                       Coordinates (Angstroms)
     ATOM                X               Y               Z
      1  O        -2.0503898163   -4.4070487241    1.3807016603
      2  C        -1.5010721596   -4.8820463397    0.2291037975
      3  C        -3.1143731743   -3.5920073101    1.0643986986
      4  O        -0.5256776590   -5.5697624191    0.1953164526
      5  O        -2.2241074447   -4.5089287328   -0.8277141075
      6  C        -3.3246244737   -3.6763087178   -0.4077146393
      7  H        -1.6651171651   -1.1818084655    1.2457074079
      8  H        -3.8672603536   -3.4748017475    1.8313959802
      9  H        -3.2508527480   -2.7149395528   -0.9245697203
     10  H        -4.2631656839   -4.1644647767   -0.6913045082
     11  C        -0.7568521341   -1.1419750734    0.6174365890
     12  O        -0.3683393134   -2.1042232596    0.0017220660
     13  H        -0.2199878742   -0.1776248810    0.5806003231

Z-matrix Print:
$molecule
0 2
O 
C  1 1.361452
O  2 1.193939 1 123.677994
O  2 1.333739 1 110.726177 3 178.015200 0
C  1 1.377099 2 108.901815 3 176.686415 0
H  5 1.081139 1 116.056579 2 156.024512 0
C  4 1.442496 2 110.142610 1 2.321401 0
H  7 1.093989 4 108.555867 2 122.183087 0
H  7 1.095253 4 108.730203 2 -119.250326 0
H  5 2.818204 1 95.397775 2 -97.003056 0
C  10 1.105105 5 114.639152 1 54.746900 0
H  11 1.104333 10 116.743154 5 173.861057 0
O  11 1.206635 10 121.734554 5 -6.193226 0
$end

 
 --------------------------------------------------------------
 
                    Orbital Energies (a.u.)
 --------------------------------------------------------------
 
 Alpha MOs
 -- Occupied --
-19.2903 -19.2765 -19.2250 -19.2068 -10.4521 -10.3583 -10.3416 -10.3363
 -1.3094  -1.1944  -1.1874  -1.1788  -0.9065  -0.8007  -0.7471  -0.7374
 -0.6576  -0.6426  -0.6099  -0.6018  -0.5640  -0.5625  -0.5550  -0.5114
 -0.5067  -0.5023  -0.4933  -0.4214  -0.4183  -0.3721  -0.2965
 -- Virtual --
  0.0492   0.0588   0.0769   0.0797   0.0829   0.1048   0.1079   0.1175
  0.1184   0.1244   0.1317   0.1505   0.1585   0.1619   0.1641   0.1730
  0.1799   0.1898   0.1961   0.2066   0.2130   0.2230   0.2332   0.2484
  0.2524   0.2630   0.2728   0.2777   0.2826   0.2890   0.2917   0.3092
  0.3111   0.3202   0.3233   0.3282   0.3335   0.3427   0.3505   0.3560
  0.3627   0.3711   0.3762   0.3837   0.3856   0.3936   0.4023   0.4091
  0.4154   0.4199   0.4271   0.4308   0.4372   0.4464   0.4526   0.4583
  0.4611   0.4660   0.4746   0.4890   0.4943   0.5016   0.5102   0.5193
  0.5281   0.5356   0.5398   0.5539   0.5612   0.5641   0.5786   0.5833
  0.5998   0.6050   0.6113   0.6193   0.6320   0.6383   0.6490   0.6559
  0.6752   0.6834   0.6873   0.6971   0.7045   0.7088   0.7182   0.7348
  0.7488   0.7558   0.7624   0.7710   0.7753   0.7832   0.7873   0.8042
  0.8066   0.8123   0.8210   0.8264   0.8363   0.8459   0.8529   0.8728
  0.8944   0.9006   0.9228   0.9355   0.9429   0.9512   0.9706   0.9758
  0.9845   1.0062   1.0275   1.0342   1.0482   1.0582   1.0624   1.0751
  1.0972   1.1183   1.1373   1.1407   1.1498   1.1719   1.2045   1.2093
  1.2212   1.2254   1.2464   1.2620   1.2685   1.2959   1.3034   1.3174
  1.3234   1.3321   1.3411   1.3526   1.3803   1.3830   1.4180   1.4209
  1.4440   1.4533   1.4795   1.4935   1.5304   1.5360   1.5576   1.5626
  1.6130   1.6481   1.6617   1.7052   1.7092   1.7216   1.7252   1.7692
  1.7981   1.8279   1.8643   1.8905   1.9081   1.9130   1.9477   1.9646
  1.9741   1.9969   2.0195   2.0322   2.0640   2.0792   2.0964   2.1440
  2.1566   2.1943   2.2242   2.2404   2.2639   2.2973   2.3085   2.3311
  2.3511   2.3668   2.3943   2.4282   2.4620   2.4723   2.4999   2.5293
  2.5617   2.6033   2.6667   2.7149   2.7859   2.8213   2.8378   2.8411
  2.8846   2.8982   2.9096   2.9260   2.9319   2.9465   2.9827   3.0099
  3.0179   3.0373   3.0578   3.0751   3.0994   3.1209   3.1359   3.1458
  3.1785   3.1962   3.1991   3.2265   3.2363   3.2614   3.2661   3.2784
  3.3026   3.3194   3.3229   3.3539   3.3831   3.3944   3.3992   3.4296
  3.4564   3.4641   3.5013   3.5126   3.5192   3.5309   3.5351   3.5431
  3.5555   3.5722   3.5885   3.6072   3.6326   3.6460   3.6515   3.6686
  3.6744   3.7164   3.7409   3.7614   3.8022   3.8175   3.8378   3.8532
  3.8704   3.8922   3.9164   3.9558   3.9700   3.9924   4.0218   4.1224
  4.1363   4.1447   4.1490   4.1527   4.1910   4.2466   4.2666   4.2727
  4.3327   4.3767   4.4016   4.4377   4.4687   4.5955   4.6301   4.6382
  4.6435   4.6735   4.7381   4.7829   4.8158   4.8321   4.8450   4.8703
  4.8796   4.9386   4.9578   5.0301   5.0538   5.0668   5.1135   5.1484
  5.1576   5.2595   5.2816   5.3192   5.3437   5.3540   5.3647   5.3726
  5.4654   5.5023   5.5180   5.5288   5.5830   5.6078   5.6332   5.6346
  5.6772   5.7389   5.7769   5.7957   5.8141   5.9136   5.9279   5.9862
  5.9982   6.0919   6.1199   6.2385   6.2658   6.2689   6.3254   6.3897
  6.4752   6.5643   6.5754   6.6284   6.6350   6.6952   6.7012   6.7386
  6.8386   6.8631   6.9077   6.9417   6.9678   7.0143   7.0456   7.1003
  7.1434   7.1783   7.2419   7.2970   7.3445   7.4136   7.4696   7.5769
  7.6270   7.6913  23.2181  23.4904  23.8199  23.9052  44.1718  44.4215
 44.4610  44.5920
 
 Beta MOs
 -- Occupied --
-19.2876 -19.2764 -19.2250 -19.2064 -10.4521 -10.3582 -10.3421 -10.3251
 -1.3056  -1.1897  -1.1874  -1.1778  -0.8939  -0.7886  -0.7467  -0.7321
 -0.6477  -0.6375  -0.6026  -0.5969  -0.5626  -0.5610  -0.5448  -0.5064
 -0.5013  -0.4926  -0.4772  -0.4173  -0.4162  -0.3716
 -- Virtual --
  0.0282   0.0492   0.0593   0.0781   0.0803   0.0836   0.1054   0.1087
  0.1185   0.1192   0.1283   0.1336   0.1514   0.1598   0.1629   0.1648
  0.1739   0.1808   0.1911   0.2002   0.2078   0.2136   0.2237   0.2336
  0.2493   0.2569   0.2646   0.2747   0.2799   0.2858   0.2899   0.2953
  0.3102   0.3138   0.3220   0.3260   0.3298   0.3351   0.3440   0.3533
  0.3575   0.3640   0.3726   0.3775   0.3842   0.3876   0.3959   0.4035
  0.4119   0.4163   0.4204   0.4290   0.4366   0.4386   0.4476   0.4538
  0.4589   0.4634   0.4668   0.4760   0.4915   0.4970   0.5022   0.5116
  0.5222   0.5300   0.5358   0.5406   0.5550   0.5643   0.5659   0.5796
  0.5851   0.6002   0.6073   0.6122   0.6208   0.6329   0.6390   0.6499
  0.6571   0.6769   0.6856   0.6880   0.6986   0.7062   0.7097   0.7200
  0.7357   0.7511   0.7572   0.7638   0.7724   0.7795   0.7853   0.7892
  0.8061   0.8086   0.8133   0.8219   0.8273   0.8367   0.8472   0.8540
  0.8735   0.8954   0.9016   0.9254   0.9373   0.9435   0.9525   0.9709
  0.9778   0.9852   1.0083   1.0285   1.0354   1.0513   1.0602   1.0660
  1.0777   1.0986   1.1201   1.1382   1.1431   1.1527   1.1794   1.2060
  1.2117   1.2227   1.2268   1.2504   1.2660   1.2719   1.2997   1.3050
  1.3185   1.3275   1.3332   1.3442   1.3549   1.3827   1.3844   1.4188
  1.4257   1.4453   1.4555   1.4821   1.5000   1.5318   1.5413   1.5594
  1.5677   1.6162   1.6501   1.6674   1.7083   1.7114   1.7270   1.7295
  1.7712   1.8034   1.8287   1.8664   1.8960   1.9108   1.9155   1.9514
  1.9662   1.9766   1.9990   2.0219   2.0379   2.0670   2.0833   2.1008
  2.1466   2.1658   2.2010   2.2290   2.2468   2.2688   2.3050   2.3119
  2.3335   2.3559   2.3696   2.3979   2.4318   2.4641   2.4751   2.5017
  2.5326   2.5677   2.6079   2.6688   2.7181   2.7928   2.8272   2.8415
  2.8466   2.8939   2.9000   2.9156   2.9290   2.9359   2.9535   2.9891
  3.0121   3.0216   3.0415   3.0657   3.0860   3.1004   3.1227   3.1381
  3.1486   3.1829   3.1975   3.2052   3.2284   3.2393   3.2651   3.2708
  3.2824   3.3138   3.3272   3.3372   3.3695   3.3884   3.4010   3.4101
  3.4340   3.4638   3.4750   3.5027   3.5175   3.5221   3.5343   3.5397
  3.5529   3.5619   3.5785   3.5899   3.6143   3.6356   3.6504   3.6564
  3.6726   3.6780   3.7199   3.7430   3.7675   3.8078   3.8214   3.8417
  3.8569   3.8743   3.8941   3.9215   3.9655   3.9705   4.0003   4.0275
  4.1231   4.1402   4.1479   4.1499   4.1562   4.1989   4.2489   4.2704
  4.2749   4.3360   4.3821   4.4063   4.4399   4.4719   4.6017   4.6342
  4.6392   4.6449   4.6738   4.7407   4.7831   4.8204   4.8396   4.8467
  4.8760   4.8800   4.9513   4.9607   5.0329   5.0584   5.0725   5.1215
  5.1493   5.1625   5.2649   5.2830   5.3235   5.3440   5.3550   5.3660
  5.3729   5.4689   5.5032   5.5217   5.5340   5.5860   5.6100   5.6372
  5.6396   5.6803   5.7441   5.7801   5.7958   5.8181   5.9219   5.9321
  5.9884   5.9985   6.0937   6.1256   6.2399   6.2670   6.2701   6.3296
  6.3913   6.4760   6.5652   6.5784   6.6284   6.6368   6.6966   6.7030
  6.7389   6.8475   6.8638   6.9078   6.9451   6.9773   7.0158   7.0461
  7.1012   7.1474   7.1790   7.2434   7.2977   7.3447   7.4148   7.4717
  7.5785   7.6281   7.6919  23.2291  23.4926  23.8201  23.9057  44.1718
 44.4229  44.4618  44.5936
 --------------------------------------------------------------
 
          Ground-State Mulliken Net Atomic Charges

     Atom                 Charge (a.u.)    Spin (a.u.)
  --------------------------------------------------------
      1 O                    -0.212620       0.061809
      2 C                     0.538147       0.009793
      3 C                    -0.167787       0.844094
      4 O                    -0.454274       0.018264
      5 O                    -0.268802       0.006454
      6 C                     0.458892      -0.051604
      7 H                     0.069768      -0.010717
      8 H                     0.030399       0.018117
      9 H                     0.014016       0.039237
     10 H                     0.057555       0.048599
     11 C                     0.290479       0.012507
     12 O                    -0.405313       0.001740
     13 H                     0.049541       0.001707
  --------------------------------------------------------
  Sum of atomic charges =     0.000000
  Sum of spin   charges =     1.000000

         Merz-Kollman RESP Net Atomic Charges

     Atom                 Charge (a.u.)
  ----------------------------------------
      1 O                    -0.325179
      2 C                     0.899074
      3 C                    -0.020509
      4 O                    -0.612433
      5 O                    -0.365861
      6 C                    -0.047162
      7 H                     0.000243
      8 H                     0.167999
      9 H                     0.153755
     10 H                     0.153755
     11 C                     0.421112
     12 O                    -0.469953
     13 H                     0.045161
  ----------------------------------------
  Sum of atomic charges =     0.000000

  Related Dipole Moment =     8.5934 (X -6.1840 Y  5.8106 Z  1.3572)

 -----------------------------------------------------------------
                    Cartesian Multipole Moments
 -----------------------------------------------------------------
    Charge (ESU x 10^10)
                 0.0000
    Dipole Moment (Debye)
         X      -6.1592      Y       5.7605      Z       1.3972
       Tot       8.5482
    Quadrupole Moments (Debye-Ang)
        XX     -21.8203     XY      18.1044     YY     -83.6034
        XZ      -2.3146     YZ      -1.3944     ZZ     -45.8976
    Octopole Moments (Debye-Ang^2)
       XXX     150.0624    XXY      83.9753    XYY      22.6552
       YYY     732.3489    XXZ      -5.5867    XYZ       6.9710
       YYZ     -13.6899    XZZ      76.4557    YZZ     174.7842
       ZZZ     -37.5128
    Hexadecapole Moments (Debye-Ang^3)
      XXXX    -889.2630   XXXY    -598.5414   XXYY    -618.0109
      XYYY    -743.1216   YYYY   -5652.1800   XXXZ      39.4805
      XXYZ      16.4883   XYYZ      -1.5131   YYYZ     145.0474
      XXZZ    -214.4916   XYZZ    -306.5701   YYZZ    -798.1897
      XZZZ      55.6109   YZZZ     123.4419   ZZZZ    -207.8531
 -----------------------------------------------------------------
Archival summary:
1\1\n0098.lr6\OPT\ProcedureUnspecified\BasisUnspecified\445(2)\ewcspott\ThuNov1208:26:112020ThuNov1208:26:112020\0\\#,OPT,ProcedureUnspecified,BasisUnspecified,\\0,2\O\C,1,1.36145\O,2,1.19394,1,123.678\O,2,1.33374,1,110.726,3,178.015,0\C,1,1.3771,2,108.902,3,176.686,0\H,5,1.08114,1,116.057,2,156.025,0\C,4,1.4425,2,110.143,1,2.3214,0\H,7,1.09399,4,108.556,2,122.183,0\H,7,1.09525,4,108.73,2,-119.25,0\H,5,2.8182,1,95.3978,2,-97.0031,0\C,10,1.1051,5,114.639,1,54.7469,0\H,11,1.10433,10,116.743,5,173.861,0\O,11,1.20664,10,121.735,5,-6.19323,0\\\@

 Total job time:  3273.84s(wall), 78233.44s(cpu) 
 Thu Nov 12 08:26:11 2020

        *************************************************************
        *                                                           *
        *  Thank you very much for using Q-Chem.  Have a nice day.  *
        *                                                           *
        *************************************************************


