 vasp.5.4.4.18Apr17-6-g9f103f2a35 (build Aug 22 2019 09:35:51) complex          
  
 executed on             LinuxIFC date 2021.04.26  18:04:41
 running on    6 total cores
 distrk:  each k-point on    6 cores,    1 groups
 distr:  one band on NCORES_PER_BAND=   2 cores,    3 groups


--------------------------------------------------------------------------------------------------------


 INCAR:
 POTCAR:   PAW_PBE Li_sv 23Jan2001                
 POTCAR:   PAW_PBE Mn_pv 07Sep2000                
 POTCAR:   PAW_PBE O 08Apr2002                    
 POTCAR:   PAW_PBE Li_sv 23Jan2001                
   VRHFIN =Li: 1s2s2p                                                           
   LEXCH  = PE                                                                  
   EATOM  =   202.7858 eV,   14.9043 Ry                                         
                                                                                
   TITEL  = PAW_PBE Li_sv 23Jan2001                                             
   LULTRA =        F    use ultrasoft PP ?                                      
   IUNSCR =        0    unscreen: 0-lin 1-nonlin 2-no                           
   RPACOR =     .000    partial core radius                                     
   POMASS =    7.010; ZVAL   =    3.000    mass and valenz                      
   RCORE  =    2.050    outmost cutoff radius                                   
   RWIGS  =    2.050; RWIGS  =    1.085    wigner-seitz radius (au A)           
   ENMAX  =  271.649; ENMIN  =  203.737 eV                                      
   ICORE  =        2    local potential                                         
   LCOR   =        T    correct aug charges                                     
   LPAW   =        T    paw PP                                                  
   EAUG   =  428.394                                                            
   RMAX   =    2.797    core radius for proj-oper                               
   RAUG   =    1.300    factor for augmentation sphere                          
   RDEP   =    2.094    radius for radial grids                                 
   RDEPT  =    1.550    core radius for aug-charge                              
   QCUT   =   -4.468; QGAM   =    8.937    optimization parameters              
                                                                                
   Description                                                                  
     l     E      TYP  RCUT    TYP  RCUT                                        
     0   .000     23  1.550                                                     
     0   .000     23  2.050                                                     
     0   .000     23  1.550                                                     
     0   .000     23  2.050                                                     
     1  -.200     23  2.050                                                     
     1  1.500     23  2.050                                                     
     2   .000      7  1.550                                                     
  local pseudopotential read in
  atomic valenz-charges read in
  non local Contribution for L=           0  read in
    real space projection operators read in
  non local Contribution for L=           0  read in
    real space projection operators read in
  non local Contribution for L=           1  read in
    real space projection operators read in
  non local Contribution for L=           1  read in
    real space projection operators read in
    PAW grid and wavefunctions read in
 
   number of l-projection  operators is LMAX  =           4
   number of lm-projection operators is LMMAX =           8
 
 POTCAR:   PAW_PBE Mn_pv 07Sep2000                
   VRHFIN =Mn: 3p4s3d                                                           
   LEXCH  = PE                                                                  
   EATOM  =  2024.8347 eV,  148.8212 Ry                                         
                                                                                
   TITEL  = PAW_PBE Mn_pv 07Sep2000                                             
   LULTRA =        F    use ultrasoft PP ?                                      
   IUNSCR =        1    unscreen: 0-lin 1-nonlin 2-no                           
   RPACOR =    2.080    partial core radius                                     
   POMASS =   54.938; ZVAL   =   13.000    mass and valenz                      
   RCORE  =    2.300    outmost cutoff radius                                   
   RWIGS  =    2.500; RWIGS  =    1.323    wigner-seitz radius (au A)           
   ENMAX  =  269.865; ENMIN  =  202.399 eV                                      
   RCLOC  =    1.725    cutoff for local pot                                    
   LCOR   =        T    correct aug charges                                     
   LPAW   =        T    paw PP                                                  
   EAUG   =  569.085                                                            
   DEXC   =    -.003                                                            
   RMAX   =    2.807    core radius for proj-oper                               
   RAUG   =    1.300    factor for augmentation sphere                          
   RDEP   =    2.338    radius for radial grids                                 
   QCUT   =   -4.454; QGAM   =    8.907    optimization parameters              
                                                                                
   Description                                                                  
     l     E      TYP  RCUT    TYP  RCUT                                        
     1   .000     23  2.000                                                     
     1  -.100     23  2.000                                                     
     2   .000     23  2.300                                                     
     2   .000     23  2.300                                                     
     0   .000     23  2.300                                                     
     0   .000     23  2.300                                                     
     3   .000      7   .000                                                     
  local pseudopotential read in
  partial core-charges read in
  atomic valenz-charges read in
  non local Contribution for L=           1  read in
    real space projection operators read in
  non local Contribution for L=           1  read in
    real space projection operators read in
  non local Contribution for L=           2  read in
    real space projection operators read in
  non local Contribution for L=           2  read in
    real space projection operators read in
  non local Contribution for L=           0  read in
    real space projection operators read in
  non local Contribution for L=           0  read in
    real space projection operators read in
    PAW grid and wavefunctions read in
 
   number of l-projection  operators is LMAX  =           6
   number of lm-projection operators is LMMAX =          18
 
 POTCAR:   PAW_PBE O 08Apr2002                    
   VRHFIN =O: s2p4                                                              
   LEXCH  = PE                                                                  
   EATOM  =   432.3788 eV,   31.7789 Ry                                         
                                                                                
   TITEL  = PAW_PBE O 08Apr2002                                                 
   LULTRA =        F    use ultrasoft PP ?                                      
   IUNSCR =        0    unscreen: 0-lin 1-nonlin 2-no                           
   RPACOR =     .000    partial core radius                                     
   POMASS =   16.000; ZVAL   =    6.000    mass and valenz                      
   RCORE  =    1.520    outmost cutoff radius                                   
   RWIGS  =    1.550; RWIGS  =     .820    wigner-seitz radius (au A)           
   ENMAX  =  400.000; ENMIN  =  300.000 eV                                      
   ICORE  =        2    local potential                                         
   LCOR   =        T    correct aug charges                                     
   LPAW   =        T    paw PP                                                  
   EAUG   =  605.392                                                            
   DEXC   =     .000                                                            
   RMAX   =    2.264    core radius for proj-oper                               
   RAUG   =    1.300    factor for augmentation sphere                          
   RDEP   =    1.550    radius for radial grids                                 
   QCUT   =   -5.520; QGAM   =   11.041    optimization parameters              
                                                                                
   Description                                                                  
     l     E      TYP  RCUT    TYP  RCUT                                        
     0   .000     23  1.200                                                     
     0  -.700     23  1.200                                                     
     1   .000     23  1.520                                                     
     1   .600     23  1.520                                                     
     2   .000      7  1.500                                                     
  local pseudopotential read in
  atomic valenz-charges read in
  non local Contribution for L=           0  read in
    real space projection operators read in
  non local Contribution for L=           0  read in
    real space projection operators read in
  non local Contribution for L=           1  read in
    real space projection operators read in
  non local Contribution for L=           1  read in
    real space projection operators read in
    PAW grid and wavefunctions read in
 
   number of l-projection  operators is LMAX  =           4
   number of lm-projection operators is LMMAX =           8
 
 Optimization of the real space projectors (new method)

 maximal supplied QI-value         = 18.33
 optimisation between [QCUT,QGAM] = [ 11.55, 23.28] = [ 37.34,151.76] Ry 
 Optimized for a Real-space Cutoff    1.32 Angstroem

   l    n(q)    QCUT    max X(q) W(low)/X(q) W(high)/X(q)  e(spline) 
   0      9    11.548     5.519    0.68E-05    0.20E-05    0.27E-07
   0      9    11.548    24.272    0.42E-04    0.24E-04    0.63E-07
   1      9    11.548     4.148    0.83E-04    0.77E-04    0.38E-06
   1      9    11.548    11.842    0.23E-03    0.17E-03    0.54E-06
 Optimization of the real space projectors (new method)

 maximal supplied QI-value         = 16.25
 optimisation between [QCUT,QGAM] = [ 11.54, 23.24] = [ 37.28,151.24] Ry 
 Optimized for a Real-space Cutoff    1.53 Angstroem

   l    n(q)    QCUT    max X(q) W(low)/X(q) W(high)/X(q)  e(spline) 
   1     10    11.539     4.093    0.14E-05    0.94E-06    0.35E-07
   1     10    11.539     5.163    0.38E-04    0.24E-04    0.17E-06
   2     10    11.539     4.144    0.87E-05    0.14E-04    0.48E-07
   2     10    11.539    35.116    0.12E-03    0.13E-03    0.25E-06
   0     11    11.539    20.431    0.20E-04    0.18E-05    0.19E-07
   0     11    11.539    61.159    0.37E-04    0.19E-04    0.29E-06
 Optimization of the real space projectors (new method)

 maximal supplied QI-value         = 24.76
 optimisation between [QCUT,QGAM] = [ 11.64, 23.27] = [ 37.91,151.63] Ry 
 Optimized for a Real-space Cutoff    1.08 Angstroem

   l    n(q)    QCUT    max X(q) W(low)/X(q) W(high)/X(q)  e(spline) 
   0      7    11.635     4.192    0.54E-04    0.80E-04    0.26E-07
   0      7    11.635     8.473    0.70E-04    0.40E-03    0.21E-06
   1      7    11.635     2.474    0.39E-04    0.14E-03    0.23E-07
   1      7    11.635     3.912    0.25E-03    0.37E-03    0.22E-06
 PAW_PBE Li_sv 23Jan2001                :
 energy of atom  1       EATOM= -202.7858
 kinetic energy error for atom=    0.0020 (will be added to EATOM!!)
 PAW_PBE Mn_pv 07Sep2000                :
 energy of atom  2       EATOM=-2024.8347
 kinetic energy error for atom=    0.0058 (will be added to EATOM!!)
 PAW_PBE O 08Apr2002                    :
 energy of atom  3       EATOM= -432.3788
 kinetic energy error for atom=    0.0208 (will be added to EATOM!!)
 
 
 POSCAR: Li1 Mn8 O16                             
  positions in direct lattice
  No initial velocities read in
 exchange correlation table for  LEXCH =        8
   RHO(1)=    0.500       N(1)  =     2000
   RHO(2)=  100.500       N(2)  =     4000
 


--------------------------------------------------------------------------------------------------------


 ion  position               nearest neighbor table
   1  0.500  0.500  0.000-  15 1.98  17 1.98  21 1.98  22 1.98
   2  0.750  0.500  0.375-  10 1.93  13 1.93  14 1.93  16 1.93  12 1.93  17 1.93   4 2.89   4 2.89
                             9 2.89   3 2.89   5 2.89   7 2.89
   3  0.000  0.250  0.125-  15 1.93  17 1.93  19 1.93  20 1.93  14 1.93  24 1.93   5 2.89   5 2.89
                             8 2.89   4 2.89   2 2.89   6 2.89
   4  0.250  0.500  0.375-  10 1.93  13 1.93  14 1.93  16 1.93  15 1.93  11 1.93   2 2.89   2 2.89
                             9 2.89   3 2.89   5 2.89   7 2.89
   5  0.000  0.750  0.125-  15 1.93  17 1.93  19 1.93  20 1.93  13 1.93  18 1.93   3 2.89   3 2.89
                             8 2.89   2 2.89   4 2.89   6 2.89
   6  0.250  0.000  0.875-  18 1.93  21 1.93  22 1.93  24 1.93  20 1.93  25 1.93   8 2.89   8 2.89
                             9 2.89   5 2.89   7 2.89   3 2.89
   7  0.500  0.750  0.625-  11 1.93  12 1.93  23 1.93  25 1.93  16 1.93  22 1.93   9 2.89   9 2.89
                             2 2.89   4 2.89   6 2.89   8 2.89
   8  0.750  0.000  0.875-  18 1.93  21 1.93  22 1.93  24 1.93  23 1.93  19 1.93   6 2.89   6 2.89
                             9 2.89   5 2.89   3 2.89   7 2.89
   9  0.500  0.250  0.625-  11 1.93  12 1.93  23 1.93  25 1.93  10 1.93  21 1.93   7 2.89   7 2.89
                             8 2.89   4 2.89   6 2.89   2 2.89
  10  0.500  0.279  0.391-   2 1.93   4 1.93   9 1.93
  11  0.279  0.500  0.609-   7 1.93   9 1.93   4 1.93
  12  0.721  0.500  0.609-   7 1.93   9 1.93   2 1.93
  13  0.000  0.721  0.359-   2 1.93   4 1.93   5 1.93
  14  0.000  0.279  0.359-   2 1.93   4 1.93   3 1.93
  15  0.221  0.500  0.141-   3 1.93   5 1.93   4 1.93   1 1.98
  16  0.500  0.721  0.391-   2 1.93   4 1.93   7 1.93
  17  0.779  0.500  0.141-   3 1.93   5 1.93   2 1.93   1 1.98
  18  0.000  0.779  0.891-   6 1.93   8 1.93   5 1.93
  19  0.779  0.000  0.109-   3 1.93   5 1.93   8 1.93
  20  0.221  0.000  0.109-   3 1.93   5 1.93   6 1.93
  21  0.500  0.221  0.859-   6 1.93   8 1.93   9 1.93   1 1.98
  22  0.500  0.779  0.859-   6 1.93   8 1.93   7 1.93   1 1.98
  23  0.721  0.000  0.641-   7 1.93   9 1.93   8 1.93
  24  0.000  0.221  0.891-   6 1.93   8 1.93   3 1.93
  25  0.279  0.000  0.641-   7 1.93   9 1.93   6 1.93
 

IMPORTANT INFORMATION: All symmetrisations will be switched off!
NOSYMM: (Re-)initialisation of all symmetry stuff for point group C_1.

 
 
 KPOINTS: pymatgen v2019.10.16 with grid density =

Automatic generation of k-mesh.
Space group operators:
 irot       det(A)        alpha          n_x          n_y          n_z        tau_x        tau_y        tau_z
    1     1.000000     0.000000     1.000000     0.000000     0.000000     0.000000     0.000000     0.000000
 
 Subroutine IBZKPT returns following result:
 ===========================================
 
 Found     26 irreducible k-points:
 
 Following reciprocal coordinates:
            Coordinates               Weight
  0.000000  0.000000  0.000000      1.000000
  0.250000  0.000000  0.000000      2.000000
  0.500000  0.000000  0.000000      1.000000
  0.000000  0.250000  0.000000      2.000000
  0.250000  0.250000  0.000000      2.000000
  0.500000  0.250000  0.000000      2.000000
 -0.250000  0.250000  0.000000      2.000000
  0.000000  0.500000  0.000000      1.000000
  0.250000  0.500000  0.000000      2.000000
  0.500000  0.500000  0.000000      1.000000
  0.000000  0.000000  0.333333      2.000000
  0.250000  0.000000  0.333333      2.000000
  0.500000  0.000000  0.333333      2.000000
 -0.250000  0.000000  0.333333      2.000000
  0.000000  0.250000  0.333333      2.000000
  0.250000  0.250000  0.333333      2.000000
  0.500000  0.250000  0.333333      2.000000
 -0.250000  0.250000  0.333333      2.000000
  0.000000  0.500000  0.333333      2.000000
  0.250000  0.500000  0.333333      2.000000
  0.500000  0.500000  0.333333      2.000000
 -0.250000  0.500000  0.333333      2.000000
  0.000000 -0.250000  0.333333      2.000000
  0.250000 -0.250000  0.333333      2.000000
  0.500000 -0.250000  0.333333      2.000000
 -0.250000 -0.250000  0.333333      2.000000
 
 Following cartesian coordinates:
            Coordinates               Weight
  0.000000  0.000000  0.000000      1.000000
  0.043323  0.000000  0.000000      2.000000
  0.086646  0.000000  0.000000      1.000000
  0.000000  0.043323  0.000000      2.000000
  0.043323  0.043323  0.000000      2.000000
  0.086646  0.043323  0.000000      2.000000
 -0.043323  0.043323  0.000000      2.000000
  0.000000  0.086646  0.000000      1.000000
  0.043323  0.086646  0.000000      2.000000
  0.086646  0.086646  0.000000      1.000000
  0.000000  0.000000  0.040601      2.000000
  0.043323  0.000000  0.040601      2.000000
  0.086646  0.000000  0.040601      2.000000
 -0.043323  0.000000  0.040601      2.000000
  0.000000  0.043323  0.040601      2.000000
  0.043323  0.043323  0.040601      2.000000
  0.086646  0.043323  0.040601      2.000000
 -0.043323  0.043323  0.040601      2.000000
  0.000000  0.086646  0.040601      2.000000
  0.043323  0.086646  0.040601      2.000000
  0.086646  0.086646  0.040601      2.000000
 -0.043323  0.086646  0.040601      2.000000
  0.000000 -0.043323  0.040601      2.000000
  0.043323 -0.043323  0.040601      2.000000
  0.086646 -0.043323  0.040601      2.000000
 -0.043323 -0.043323  0.040601      2.000000
 
 TETIRR: Found    144 inequivalent tetrahedra from      288


--------------------------------------------------------------------------------------------------------




 Dimension of arrays:
   k-points           NKPTS =     26   k-points in BZ     NKDIM =     26   number of bands    NBANDS=    147
   number of dos      NEDOS =    301   number of ions     NIONS =     25
   non local maximal  LDIM  =      6   non local SUM 2l+1 LMDIM =     18
   total plane-waves  NPLWV = 147456
   max r-space proj   IRMAX =   8202   max aug-charges    IRDMAX=  16563
   dimension x,y,z NGX =    48 NGY =   48 NGZ =   64
   dimension x,y,z NGXF=    96 NGYF=   96 NGZF=  128
   support grid    NGXF=    96 NGYF=   96 NGZF=  128
   ions per type =               1   8  16
   NGX,Y,Z   is equivalent  to a cutoff of  13.83, 13.83, 12.96 a.u.
   NGXF,Y,Z  is equivalent  to a cutoff of  27.66, 27.66, 25.92 a.u.

 SYSTEM =  unknown system                          
 POSCAR =  Li1 Mn8 O16                             

 Startparameter for this run:
   NWRITE =      2    write-flag & timer
   PREC   = accura    normal or accurate (medium, high low for compatibility)
   ISTART =      0    job   : 0-new  1-cont  2-samecut
   ICHARG =      1    charge: 1-file 2-atom 10-const
   ISPIN  =      2    spin polarized calculation?
   LNONCOLLINEAR =      F non collinear calculations
   LSORBIT =      F    spin-orbit coupling
   INIWAV =      1    electr: 0-lowe 1-rand  2-diag
   LASPH  =      F    aspherical Exc in radial PAW
   METAGGA=      F    non-selfconsistent MetaGGA calc.

 Electronic Relaxation 1
   ENCUT  =  520.0 eV  38.22 Ry    6.18 a.u.  10.73 10.73 15.27*2*pi/ulx,y,z
   ENINI  =  520.0     initial cutoff
   ENAUG  =  605.4 eV  augmentation charge cutoff
   NELM   =    100;   NELMIN=  1; NELMDL= -5     # of ELM steps 
   EDIFF  = 0.1E-01   stopping-criterion for ELM
   LREAL  =      T    real-space projection
   NLSPLINE    = F    spline interpolate recip. space projectors
   LCOMPAT=      F    compatible to vasp.4.4
   GGA_COMPAT  = T    GGA compatible to vasp.4.4-vasp.4.6
   LMAXPAW     = -100 max onsite density
   LMAXMIX     =    2 max onsite mixed and CHGCAR
   VOSKOWN=      0    Vosko Wilk Nusair interpolation
   ROPT   =   -0.00025  -0.00025  -0.00025
 Ionic relaxation
   EDIFFG = 0.0E+00   stopping-criterion for IOM
   NSW    =      0    number of steps for IOM
   NBLOCK =      1;   KBLOCK =      1    inner block; outer block 
   IBRION =     -1    ionic relax: 0-MD 1-quasi-New 2-CG
   NFREE  =      0    steps in history (QN), initial steepest desc. (CG)
   ISIF   =      2    stress and relaxation
   IWAVPR =     10    prediction:  0-non 1-charg 2-wave 3-comb
   ISYM   =      0    0-nonsym 1-usesym 2-fastsym
   LCORR  =      T    Harris-Foulkes like correction to forces

   POTIM  = 0.5000    time-step for ionic-motion
   TEIN   =    0.0    initial temperature
   TEBEG  =    0.0;   TEEND  =   0.0 temperature during run
   SMASS  =  -3.00    Nose mass-parameter (am)
   estimated Nose-frequenzy (Omega)   =  0.10E-29 period in steps =****** mass=  -0.761E-27a.u.
   SCALEE = 1.0000    scale energy and forces
   NPACO  =    256;   APACO  = 16.0  distance and # of slots for P.C.
   PSTRESS=    0.0 pullay stress

  Mass of Ions in am
   POMASS =   7.01 54.94 16.00
  Ionic Valenz
   ZVAL   =   3.00 13.00  6.00
  Atomic Wigner-Seitz radii
   RWIGS  =  -1.00 -1.00 -1.00
  virtual crystal weights 
   VCA    =   1.00  1.00  1.00
   NELECT =     203.0000    total number of electrons
   NUPDOWN=      -1.0000    fix difference up-down

 DOS related values:
   EMIN   =  10.00;   EMAX   =-10.00  energy-range for DOS
   EFERMI =   0.00
   ISMEAR =    -5;   SIGMA  =   0.05  broadening in eV -4-tet -1-fermi 0-gaus

 Electronic relaxation 2 (details)
   IALGO  =     68    algorithm
   LDIAG  =      T    sub-space diagonalisation (order eigenvalues)
   LSUBROT=      F    optimize rotation matrix (better conditioning)
   TURBO    =      0    0=normal 1=particle mesh
   IRESTART =      0    0=no restart 2=restart with 2 vectors
   NREBOOT  =      0    no. of reboots
   NMIN     =      0    reboot dimension
   EREF     =   0.00    reference energy to select bands
   IMIX   =      4    mixing-type and parameters
     AMIX     =   0.40;   BMIX     =  1.00
     AMIX_MAG =   1.60;   BMIX_MAG =  1.00
     AMIN     =   0.10
     WC   =   100.;   INIMIX=   1;  MIXPRE=   1;  MAXMIX= -45

 Intra band minimization:
   WEIMIN = 0.0000     energy-eigenvalue tresh-hold
   EBREAK =  0.00E+00  absolut break condition
   DEPER  =   0.30     relativ break condition  

   TIME   =   0.40     timestep for ELM

  volume/ion in A,a.u.               =      10.94        73.80
  Fermi-wavevector in a.u.,A,eV,Ry     =   1.482442  2.801409 29.900622  2.197634
  Thomas-Fermi vector in A             =   2.596227
 
 Write flags
   LWAVE        =      F    write WAVECAR
   LDOWNSAMPLE  =      F    k-point downsampling of WAVECAR
   LCHARG       =      T    write CHGCAR
   LVTOT        =      F    write LOCPOT, total local potential
   LVHAR        =      F    write LOCPOT, Hartree potential only
   LELF         =      F    write electronic localiz. function (ELF)
   LORBIT       =     11    0 simple, 1 ext, 2 COOP (PROOUT), +10 PAW based schemes


 Dipole corrections
   LMONO  =      F    monopole corrections only (constant potential shift)
   LDIPOL =      F    correct potential (dipole corrections)
   IDIPOL =      0    1-x, 2-y, 3-z, 4-all directions 
   EPSILON=  1.0000000 bulk dielectric constant

 Exchange correlation treatment:
   GGA     =    --    GGA type
   LEXCH   =     8    internal setting for exchange type
   VOSKOWN=      0    Vosko Wilk Nusair interpolation
   LHFCALC =     F    Hartree Fock is set to
   LHFONE  =     F    Hartree Fock one center treatment
   AEXX    =    0.0000 exact exchange contribution

 Linear response parameters
   LEPSILON=     F    determine dielectric tensor
   LRPA    =     F    only Hartree local field effects (RPA)
   LNABLA  =     F    use nabla operator in PAW spheres
   LVEL    =     F    velocity operator in full k-point grid
   LINTERFAST=   F  fast interpolation
   KINTER  =     0    interpolate to denser k-point grid
   CSHIFT  =0.1000    complex shift for real part using Kramers Kronig
   OMEGAMAX=  -1.0    maximum frequency
   DEG_THRESHOLD= 0.2000000E-02 threshold for treating states as degnerate
   RTIME   =   -0.100 relaxation time in fs
  (WPLASMAI=    0.000 imaginary part of plasma frequency in eV, 0.658/RTIME)
   DFIELD  = 0.0000000 0.0000000 0.0000000 field for delta impulse in time
 
 Orbital magnetization related:
   ORBITALMAG=     F  switch on orbital magnetization
   LCHIMAG   =     F  perturbation theory with respect to B field
   DQ        =  0.001000  dq finite difference perturbation B field
   LLRAUG    =     F  two centre corrections for induced B field



--------------------------------------------------------------------------------------------------------


 Static calculation
 charge density and potential will be updated during run
 spin polarized calculation
 RMM-DIIS sequential band-by-band and
  variant of blocked Davidson during initial phase
 perform sub-space diagonalisation
    before iterative eigenvector-optimisation
 modified Broyden-mixing scheme, WC =      100.0
 initial mixing is a Kerker type mixing with AMIX =  0.4000 and BMIX =      1.0000
 Hartree-type preconditioning will be used
 using additional bands           45
 real space projection scheme for non local part
 use partial core corrections
 calculate Harris-corrections to forces 
   (improved forces if not selfconsistent)
 use gradient corrections 
 use of overlap-Matrix (Vanderbilt PP)
 Fermi weights with tetrahedron method with Bloechl corrections


--------------------------------------------------------------------------------------------------------


  energy-cutoff  :      520.00
  volume of cell :      273.39
      direct lattice vectors                 reciprocal lattice vectors
     5.770635000  0.000000000  0.000000000     0.173291154  0.000000000  0.000000000
     0.000000000  5.770635000  0.000000000     0.000000000  0.173291154  0.000000000
     0.000000000  0.000000000  8.209947000     0.000000000  0.000000000  0.121803466

  length of vectors
     5.770635000  5.770635000  8.209947000     0.173291154  0.173291154  0.121803466


 
 k-points in units of 2pi/SCALE and weight: pymatgen v2019.10.16 with grid density =
   0.00000000  0.00000000  0.00000000       0.021
   0.04332279  0.00000000  0.00000000       0.042
   0.08664558  0.00000000  0.00000000       0.021
   0.00000000  0.04332279  0.00000000       0.042
   0.04332279  0.04332279  0.00000000       0.042
   0.08664558  0.04332279  0.00000000       0.042
  -0.04332279  0.04332279  0.00000000       0.042
   0.00000000  0.08664558  0.00000000       0.021
   0.04332279  0.08664558  0.00000000       0.042
   0.08664558  0.08664558  0.00000000       0.021
   0.00000000  0.00000000  0.04060116       0.042
   0.04332279  0.00000000  0.04060116       0.042
   0.08664558  0.00000000  0.04060116       0.042
  -0.04332279  0.00000000  0.04060116       0.042
   0.00000000  0.04332279  0.04060116       0.042
   0.04332279  0.04332279  0.04060116       0.042
   0.08664558  0.04332279  0.04060116       0.042
  -0.04332279  0.04332279  0.04060116       0.042
   0.00000000  0.08664558  0.04060116       0.042
   0.04332279  0.08664558  0.04060116       0.042
   0.08664558  0.08664558  0.04060116       0.042
  -0.04332279  0.08664558  0.04060116       0.042
   0.00000000 -0.04332279  0.04060116       0.042
   0.04332279 -0.04332279  0.04060116       0.042
   0.08664558 -0.04332279  0.04060116       0.042
  -0.04332279 -0.04332279  0.04060116       0.042
 
 k-points in reciprocal lattice and weights: pymatgen v2019.10.16 with grid density =
   0.00000000  0.00000000  0.00000000       0.021
   0.25000000  0.00000000  0.00000000       0.042
   0.50000000  0.00000000  0.00000000       0.021
   0.00000000  0.25000000  0.00000000       0.042
   0.25000000  0.25000000  0.00000000       0.042
   0.50000000  0.25000000  0.00000000       0.042
  -0.25000000  0.25000000  0.00000000       0.042
   0.00000000  0.50000000  0.00000000       0.021
   0.25000000  0.50000000  0.00000000       0.042
   0.50000000  0.50000000  0.00000000       0.021
   0.00000000  0.00000000  0.33333333       0.042
   0.25000000  0.00000000  0.33333333       0.042
   0.50000000  0.00000000  0.33333333       0.042
  -0.25000000  0.00000000  0.33333333       0.042
   0.00000000  0.25000000  0.33333333       0.042
   0.25000000  0.25000000  0.33333333       0.042
   0.50000000  0.25000000  0.33333333       0.042
  -0.25000000  0.25000000  0.33333333       0.042
   0.00000000  0.50000000  0.33333333       0.042
   0.25000000  0.50000000  0.33333333       0.042
   0.50000000  0.50000000  0.33333333       0.042
  -0.25000000  0.50000000  0.33333333       0.042
   0.00000000 -0.25000000  0.33333333       0.042
   0.25000000 -0.25000000  0.33333333       0.042
   0.50000000 -0.25000000  0.33333333       0.042
  -0.25000000 -0.25000000  0.33333333       0.042
 
 position of ions in fractional coordinates (direct lattice) 
   0.50000000  0.50000000  0.00000000
   0.75000000  0.50000000  0.37500000
   0.00000000  0.25000000  0.12500000
   0.25000000  0.50000000  0.37500000
   0.00000000  0.75000000  0.12500000
   0.25000000  0.00000000  0.87500000
   0.50000000  0.75000000  0.62500000
   0.75000000  0.00000000  0.87500000
   0.50000000  0.25000000  0.62500000
   0.50000000  0.27918000  0.39075200
   0.27918000  0.50000000  0.60924800
   0.72082000  0.50000000  0.60924800
   0.00000000  0.72082000  0.35924800
   0.00000000  0.27918000  0.35924800
   0.22082000  0.50000000  0.14075200
   0.50000000  0.72082000  0.39075200
   0.77918000  0.50000000  0.14075200
   0.00000000  0.77918000  0.89075200
   0.77918000  0.00000000  0.10924800
   0.22082000  0.00000000  0.10924800
   0.50000000  0.22082000  0.85924800
   0.50000000  0.77918000  0.85924800
   0.72082000  0.00000000  0.64075200
   0.00000000  0.22082000  0.89075200
   0.27918000  0.00000000  0.64075200
 
 position of ions in cartesian coordinates  (Angst):
   2.88531750  2.88531750  0.00000000
   4.32797625  2.88531750  3.07873012
   0.00000000  1.44265875  1.02624337
   1.44265875  2.88531750  3.07873012
   0.00000000  4.32797625  1.02624337
   1.44265875  0.00000000  7.18370362
   2.88531750  4.32797625  5.13121687
   4.32797625  0.00000000  7.18370362
   2.88531750  1.44265875  5.13121687
   2.88531750  1.61104588  3.20805321
   1.61104588  2.88531750  5.00189379
   4.15958912  2.88531750  5.00189379
   0.00000000  4.15958912  2.94940704
   0.00000000  1.61104588  2.94940704
   1.27427162  2.88531750  1.15556646
   2.88531750  4.15958912  3.20805321
   4.49636338  2.88531750  1.15556646
   0.00000000  4.49636338  7.31302671
   4.49636338  0.00000000  0.89692029
   1.27427162  0.00000000  0.89692029
   2.88531750  1.27427162  7.05438054
   2.88531750  4.49636338  7.05438054
   4.15958912  0.00000000  5.26053996
   0.00000000  1.27427162  7.31302671
   1.61104588  0.00000000  5.26053996
 


--------------------------------------------------------------------------------------------------------


 k-point  1 :   0.0000 0.0000 0.0000  plane waves:    7395
 k-point  2 :   0.2500 0.0000 0.0000  plane waves:    7381
 k-point  3 :   0.5000 0.0000 0.0000  plane waves:    7382
 k-point  4 :   0.0000 0.2500 0.0000  plane waves:    7381
 k-point  5 :   0.2500 0.2500 0.0000  plane waves:    7355
 k-point  6 :   0.5000 0.2500 0.0000  plane waves:    7358
 k-point  7 :  -0.2500 0.2500 0.0000  plane waves:    7355
 k-point  8 :   0.0000 0.5000 0.0000  plane waves:    7382
 k-point  9 :   0.2500 0.5000 0.0000  plane waves:    7358
 k-point 10 :   0.5000 0.5000 0.0000  plane waves:    7384
 k-point 11 :   0.0000 0.0000 0.3333  plane waves:    7330
 k-point 12 :   0.2500 0.0000 0.3333  plane waves:    7359
 k-point 13 :   0.5000 0.0000 0.3333  plane waves:    7362
 k-point 14 :  -0.2500 0.0000 0.3333  plane waves:    7359
 k-point 15 :   0.0000 0.2500 0.3333  plane waves:    7359
 k-point 16 :   0.2500 0.2500 0.3333  plane waves:    7352
 k-point 17 :   0.5000 0.2500 0.3333  plane waves:    7350
 k-point 18 :  -0.2500 0.2500 0.3333  plane waves:    7352
 k-point 19 :   0.0000 0.5000 0.3333  plane waves:    7362
 k-point 20 :   0.2500 0.5000 0.3333  plane waves:    7350
 k-point 21 :   0.5000 0.5000 0.3333  plane waves:    7356
 k-point 22 :  -0.2500 0.5000 0.3333  plane waves:    7350
 k-point 23 :   0.0000-0.2500 0.3333  plane waves:    7359
 k-point 24 :   0.2500-0.2500 0.3333  plane waves:    7352
 k-point 25 :   0.5000-0.2500 0.3333  plane waves:    7350
 k-point 26 :  -0.2500-0.2500 0.3333  plane waves:    7352

 maximum and minimum number of plane-waves per node :      3704     3659

 maximum number of plane-waves:      7395
 maximum index in each direction: 
   IXMAX=   10   IYMAX=   10   IZMAX=   15
   IXMIN=  -11   IYMIN=  -11   IZMIN=  -15


 real space projection operators:
  total allocation   :      11996.44 KBytes
  max/ min on nodes  :       6017.06       5979.38


 parallel 3D FFT for wavefunctions:
    minimum data exchange during FFTs selected (reduces bandwidth)
 parallel 3D FFT for charge:
    minimum data exchange during FFTs selected (reduces bandwidth)


 total amount of memory used by VASP MPI-rank0   230530. kBytes
=======================================================================

   base      :      30000. kBytes
   nonlr-proj:      10891. kBytes
   fftplans  :       8862. kBytes
   grid      :      23457. kBytes
   one-center:        404. kBytes
   wavefun   :     156916. kBytes
 
     INWAV:  cpu time    0.0000: real time    0.0000
 Broyden mixing: mesh for mixing (old mesh)
   NGX = 21   NGY = 21   NGZ = 31
  (NGX  = 96   NGY  = 96   NGZ  =128)
  gives a total of  13671 points

 initial charge density was supplied:
 charge density of overlapping atoms calculated
 number of electron     203.0000000 magnetization      50.2000000
 keeping initial charge density in first step


--------------------------------------------------------------------------------------------------------


 Maximum index for non-local projection operator         3983
 Maximum index for augmentation-charges         2679 (set IRDMAX)


--------------------------------------------------------------------------------------------------------


 First call to EWALD:  gamma=   0.273
 Maximum number of real-space cells 3x 3x 2
 Maximum number of reciprocal cells 2x 2x 3

    FEWALD:  cpu time    0.0021: real time    0.0021


--------------------------------------- Iteration      1(   1)  ---------------------------------------


    POTLOK:  cpu time    0.2864: real time    0.2888
    SETDIJ:  cpu time    0.0240: real time    0.0241
     EDDAV:  cpu time   61.9995: real time   62.4158
 BZINTS: Fermi energy: 25.962800;203.000000 electrons
         Band energy: 757.493145;  BLOECHL correction: -0.080800
       DOS:  cpu time    0.0769: real time    0.0774
    --------------------------------------------
      LOOP:  cpu time   62.3869: real time   62.8061

 eigenvalue-minimisations  : 15486
 total energy-change (2. order) : 0.3404042E+04  (-0.9923903E+04)
 number of electron     203.0000000 magnetization      50.2000000
 augmentation part      203.0000000 magnetization      50.2000000

 Free energy of the ion-electron system (eV)
  ---------------------------------------------------
  alpha Z        PSCENC =      1096.51130837
  Ewald energy   TEWEN  =    -13555.49358463
  -Hartree energ DENC   =     -8780.69930831
  -exchange      EXHF   =         0.00000000
  -V(xc)+E(xc)   XCENC  =      1023.10749167
  PAW double counting   =     15913.62944871   -16369.64932519
  entropy T*S    EENTRO =         0.00000000
  eigenvalues    EBANDS =       757.49314492
  atomic energy  EATOM  =     23319.14298724
  Solvation  Ediel_sol  =         0.00000000
  ---------------------------------------------------
  free energy    TOTEN  =      3404.04216277 eV

  energy without entropy =     3404.04216277  energy(sigma->0) =     3404.04216277


--------------------------------------------------------------------------------------------------------




--------------------------------------- Iteration      1(   2)  ---------------------------------------


     EDDAV:  cpu time   60.4685: real time   60.8431
 BZINTS: Fermi energy:  9.399103;203.000000 electrons
         Band energy:***********;  BLOECHL correction: -0.051847
       DOS:  cpu time    0.0640: real time    0.0641
    --------------------------------------------
      LOOP:  cpu time   60.5325: real time   60.9072

 eigenvalue-minimisations  : 15387
 total energy-change (2. order) :-0.2992896E+04  (-0.2741225E+04)
 number of electron     203.0000000 magnetization      50.2000000
 augmentation part      203.0000000 magnetization      50.2000000

 Free energy of the ion-electron system (eV)
  ---------------------------------------------------
  alpha Z        PSCENC =      1096.51130837
  Ewald energy   TEWEN  =    -13555.49358463
  -Hartree energ DENC   =     -8780.69930831
  -exchange      EXHF   =         0.00000000
  -V(xc)+E(xc)   XCENC  =      1023.10749167
  PAW double counting   =     15913.62944871   -16369.64932519
  entropy T*S    EENTRO =         0.00000000
  eigenvalues    EBANDS =     -2235.40295935
  atomic energy  EATOM  =     23319.14298724
  Solvation  Ediel_sol  =         0.00000000
  ---------------------------------------------------
  free energy    TOTEN  =       411.14605851 eV

  energy without entropy =      411.14605851  energy(sigma->0) =      411.14605851


--------------------------------------------------------------------------------------------------------




--------------------------------------- Iteration      1(   3)  ---------------------------------------


     EDDAV:  cpu time   62.5439: real time   62.9275
 BZINTS: Fermi energy:  5.810324;203.000000 electrons
         Band energy:***********;  BLOECHL correction: -0.016947
       DOS:  cpu time    0.0762: real time    0.0767
    --------------------------------------------
      LOOP:  cpu time   62.6201: real time   63.0042

 eigenvalue-minimisations  : 15996
 total energy-change (2. order) :-0.5903508E+03  (-0.5171173E+03)
 number of electron     203.0000000 magnetization      50.2000000
 augmentation part      203.0000000 magnetization      50.2000000

 Free energy of the ion-electron system (eV)
  ---------------------------------------------------
  alpha Z        PSCENC =      1096.51130837
  Ewald energy   TEWEN  =    -13555.49358463
  -Hartree energ DENC   =     -8780.69930831
  -exchange      EXHF   =         0.00000000
  -V(xc)+E(xc)   XCENC  =      1023.10749167
  PAW double counting   =     15913.62944871   -16369.64932519
  entropy T*S    EENTRO =         0.00000000
  eigenvalues    EBANDS =     -2825.75379654
  atomic energy  EATOM  =     23319.14298724
  Solvation  Ediel_sol  =         0.00000000
  ---------------------------------------------------
  free energy    TOTEN  =      -179.20477869 eV

  energy without entropy =     -179.20477869  energy(sigma->0) =     -179.20477869


--------------------------------------------------------------------------------------------------------




--------------------------------------- Iteration      1(   4)  ---------------------------------------


     EDDAV:  cpu time   81.5882: real time   82.0582
 BZINTS: Fermi energy:  5.481971;203.000000 electrons
         Band energy:***********;  BLOECHL correction: -0.027916
       DOS:  cpu time    0.0692: real time    0.0695
    --------------------------------------------
      LOOP:  cpu time   81.6575: real time   82.1277

 eigenvalue-minimisations  : 22413
 total energy-change (2. order) :-0.6820463E+02  (-0.6648854E+02)
 number of electron     203.0000000 magnetization      50.2000000
 augmentation part      203.0000000 magnetization      50.2000000

 Free energy of the ion-electron system (eV)
  ---------------------------------------------------
  alpha Z        PSCENC =      1096.51130837
  Ewald energy   TEWEN  =    -13555.49358463
  -Hartree energ DENC   =     -8780.69930831
  -exchange      EXHF   =         0.00000000
  -V(xc)+E(xc)   XCENC  =      1023.10749167
  PAW double counting   =     15913.62944871   -16369.64932519
  entropy T*S    EENTRO =         0.00000000
  eigenvalues    EBANDS =     -2893.95843145
  atomic energy  EATOM  =     23319.14298724
  Solvation  Ediel_sol  =         0.00000000
  ---------------------------------------------------
  free energy    TOTEN  =      -247.40941360 eV

  energy without entropy =     -247.40941360  energy(sigma->0) =     -247.40941360


--------------------------------------------------------------------------------------------------------




--------------------------------------- Iteration      1(   5)  ---------------------------------------


     EDDAV:  cpu time   81.7129: real time   82.1840
 BZINTS: Fermi energy:  5.469878;203.000000 electrons
         Band energy:***********;  BLOECHL correction: -0.027721
       DOS:  cpu time    0.0708: real time    0.0712
    CHARGE:  cpu time    1.8118: real time    1.8199
    MIXING:  cpu time    0.0099: real time    0.0099
    --------------------------------------------
      LOOP:  cpu time   83.6055: real time   84.0850

 eigenvalue-minimisations  : 22377
 total energy-change (2. order) :-0.1482210E+01  (-0.1475210E+01)
 number of electron     202.9999994 magnetization      35.3071723
 augmentation part       64.2618109 magnetization      26.3546907

 Broyden mixing:
  rms(total) = 0.66783E+01    rms(broyden)= 0.66758E+01
  rms(prec ) = 0.89968E+01
  weight for this iteration     100.00

 Free energy of the ion-electron system (eV)
  ---------------------------------------------------
  alpha Z        PSCENC =      1096.51130837
  Ewald energy   TEWEN  =    -13555.49358463
  -Hartree energ DENC   =     -8780.69930831
  -exchange      EXHF   =         0.00000000
  -V(xc)+E(xc)   XCENC  =      1023.10749167
  PAW double counting   =     15913.62944871   -16369.64932519
  entropy T*S    EENTRO =         0.00000000
  eigenvalues    EBANDS =     -2895.44064123
  atomic energy  EATOM  =     23319.14298724
  Solvation  Ediel_sol  =         0.00000000
  ---------------------------------------------------
  free energy    TOTEN  =      -248.89162338 eV

  energy without entropy =     -248.89162338  energy(sigma->0) =     -248.89162338


--------------------------------------------------------------------------------------------------------




--------------------------------------- Iteration      1(   6)  ---------------------------------------


    POTLOK:  cpu time    0.2989: real time    0.3008
    SETDIJ:  cpu time    0.0238: real time    0.0239
    EDDIAG:  cpu time    8.8243: real time    8.8952
  RMM-DIIS:  cpu time   52.0547: real time   52.2884
    ORTHCH:  cpu time    0.6705: real time    0.6724
 BZINTS: Fermi energy:  1.198344;203.000000 electrons
         Band energy:***********;  BLOECHL correction: -0.111163
       DOS:  cpu time    0.0704: real time    0.0706
    CHARGE:  cpu time    1.6925: real time    1.6989
    MIXING:  cpu time    0.0088: real time    0.0088
    --------------------------------------------
      LOOP:  cpu time   63.6439: real time   63.9590

 eigenvalue-minimisations  : 18471
 total energy-change (2. order) : 0.9686066E+01  (-0.4346894E+02)
 number of electron     202.9999900 magnetization      30.2621418
 augmentation part       81.9938881 magnetization      24.1446727

 Broyden mixing:
  rms(total) = 0.92625E+01    rms(broyden)= 0.92606E+01
  rms(prec ) = 0.13470E+02
  weight for this iteration     100.00

 eigenvalues of (default mixing * dielectric matrix)
  average eigenvalue GAMMA=   0.4627
  0.4627

 Free energy of the ion-electron system (eV)
  ---------------------------------------------------
  alpha Z        PSCENC =      1096.51130837
  Ewald energy   TEWEN  =    -13555.49358463
  -Hartree energ DENC   =     -8423.48528795
  -exchange      EXHF   =         0.00000000
  -V(xc)+E(xc)   XCENC  =      1017.22544937
  PAW double counting   =     15646.11636846   -16098.14908559
  entropy T*S    EENTRO =         0.00000000
  eigenvalues    EBANDS =     -3241.07371243
  atomic energy  EATOM  =     23319.14298724
  Solvation  Ediel_sol  =         0.00000000
  ---------------------------------------------------
  free energy    TOTEN  =      -239.20555717 eV

  energy without entropy =     -239.20555717  energy(sigma->0) =     -239.20555717


--------------------------------------------------------------------------------------------------------




--------------------------------------- Iteration      1(   7)  ---------------------------------------


    POTLOK:  cpu time    0.2578: real time    0.2589
    SETDIJ:  cpu time    0.0240: real time    0.0240
    EDDIAG:  cpu time    8.6384: real time    8.6701
  RMM-DIIS:  cpu time   58.9775: real time   59.2344
    ORTHCH:  cpu time    0.6733: real time    0.6753
 BZINTS: Fermi energy:  4.256709;203.000000 electrons
         Band energy:***********;  BLOECHL correction: -0.032794
       DOS:  cpu time    0.0615: real time    0.0615
    CHARGE:  cpu time    1.6348: real time    1.6398
    MIXING:  cpu time    0.0081: real time    0.0081
    --------------------------------------------
      LOOP:  cpu time   70.2753: real time   70.5722

 eigenvalue-minimisations  : 21154
 total energy-change (2. order) : 0.4064746E+02  (-0.1090091E+02)
 number of electron     202.9999976 magnetization      26.4268082
 augmentation part       65.5429227 magnetization      17.9142501

 Broyden mixing:
  rms(total) = 0.33521E+01    rms(broyden)= 0.33492E+01
  rms(prec ) = 0.44770E+01
  weight for this iteration     100.00

 eigenvalues of (default mixing * dielectric matrix)
  average eigenvalue GAMMA=   0.5199
  0.7479  0.2919

 Free energy of the ion-electron system (eV)
  ---------------------------------------------------
  alpha Z        PSCENC =      1096.51130837
  Ewald energy   TEWEN  =    -13555.49358463
  -Hartree energ DENC   =     -8738.72115367
  -exchange      EXHF   =         0.00000000
  -V(xc)+E(xc)   XCENC  =      1016.91725185
  PAW double counting   =     16359.93340857   -16842.36689630
  entropy T*S    EENTRO =         0.00000000
  eigenvalues    EBANDS =     -2854.48142246
  atomic energy  EATOM  =     23319.14298724
  Solvation  Ediel_sol  =         0.00000000
  ---------------------------------------------------
  free energy    TOTEN  =      -198.55810102 eV

  energy without entropy =     -198.55810102  energy(sigma->0) =     -198.55810102


--------------------------------------------------------------------------------------------------------




--------------------------------------- Iteration      1(   8)  ---------------------------------------


    POTLOK:  cpu time    0.2595: real time    0.2609
    SETDIJ:  cpu time    0.0254: real time    0.0257
    EDDIAG:  cpu time    8.4266: real time    8.4559
  RMM-DIIS:  cpu time   49.7185: real time   50.0123
    ORTHCH:  cpu time    0.6747: real time    0.6779
 BZINTS: Fermi energy:  3.577927;203.000000 electrons
         Band energy:***********;  BLOECHL correction: -0.033756
       DOS:  cpu time    0.0633: real time    0.0636
    CHARGE:  cpu time    1.7135: real time    1.7225
    MIXING:  cpu time    0.0090: real time    0.0090
    --------------------------------------------
      LOOP:  cpu time   60.8905: real time   61.2278

 eigenvalue-minimisations  : 17302
 total energy-change (2. order) : 0.2513021E+01  (-0.7797270E+00)
 number of electron     202.9999970 magnetization      23.6411363
 augmentation part       66.7756157 magnetization      15.8299894

 Broyden mixing:
  rms(total) = 0.17725E+01    rms(broyden)= 0.17724E+01
  rms(prec ) = 0.25393E+01
  weight for this iteration     100.00

 eigenvalues of (default mixing * dielectric matrix)
  average eigenvalue GAMMA=   0.7245
  0.3227  0.9254  0.9254

 Free energy of the ion-electron system (eV)
  ---------------------------------------------------
  alpha Z        PSCENC =      1096.51130837
  Ewald energy   TEWEN  =    -13555.49358463
  -Hartree energ DENC   =     -8670.34321571
  -exchange      EXHF   =         0.00000000
  -V(xc)+E(xc)   XCENC  =      1013.98791741
  PAW double counting   =     16398.59808477   -16885.33102951
  entropy T*S    EENTRO =         0.00000000
  eigenvalues    EBANDS =     -2913.11754803
  atomic energy  EATOM  =     23319.14298724
  Solvation  Ediel_sol  =         0.00000000
  ---------------------------------------------------
  free energy    TOTEN  =      -196.04508010 eV

  energy without entropy =     -196.04508010  energy(sigma->0) =     -196.04508010


--------------------------------------------------------------------------------------------------------




--------------------------------------- Iteration      1(   9)  ---------------------------------------


    POTLOK:  cpu time    0.2590: real time    0.2598
    SETDIJ:  cpu time    0.0262: real time    0.0264
    EDDIAG:  cpu time    8.7805: real time    8.8278
  RMM-DIIS:  cpu time   47.3153: real time   47.6389
    ORTHCH:  cpu time    0.6599: real time    0.6631
 BZINTS: Fermi energy:  2.858072;203.000000 electrons
         Band energy:***********;  BLOECHL correction: -0.030075
       DOS:  cpu time    0.0655: real time    0.0660
    CHARGE:  cpu time    1.7159: real time    1.7242
    MIXING:  cpu time    0.0086: real time    0.0086
    --------------------------------------------
      LOOP:  cpu time   58.8308: real time   59.2149

 eigenvalue-minimisations  : 16628
 total energy-change (2. order) :-0.6327668E+00  (-0.1021415E+01)
 number of electron     202.9999963 magnetization      23.1406764
 augmentation part       68.1390908 magnetization      15.9383520

 Broyden mixing:
  rms(total) = 0.78711E+00    rms(broyden)= 0.78679E+00
  rms(prec ) = 0.10325E+01
  weight for this iteration     100.00

 eigenvalues of (default mixing * dielectric matrix)
  average eigenvalue GAMMA=   0.7584
  1.0893  1.0893  0.3209  0.5340

 Free energy of the ion-electron system (eV)
  ---------------------------------------------------
  alpha Z        PSCENC =      1096.51130837
  Ewald energy   TEWEN  =    -13555.49358463
  -Hartree energ DENC   =     -8599.88594073
  -exchange      EXHF   =         0.00000000
  -V(xc)+E(xc)   XCENC  =      1011.03357537
  PAW double counting   =     16457.03955496   -16949.11317998
  entropy T*S    EENTRO =         0.00000000
  eigenvalues    EBANDS =     -2975.91256754
  atomic energy  EATOM  =     23319.14298724
  Solvation  Ediel_sol  =         0.00000000
  ---------------------------------------------------
  free energy    TOTEN  =      -196.67784694 eV

  energy without entropy =     -196.67784694  energy(sigma->0) =     -196.67784694


--------------------------------------------------------------------------------------------------------




--------------------------------------- Iteration      1(  10)  ---------------------------------------


    POTLOK:  cpu time    0.2574: real time    0.2576
    SETDIJ:  cpu time    0.0244: real time    0.0244
    EDDIAG:  cpu time    8.7787: real time    8.8307
  RMM-DIIS:  cpu time   51.0450: real time   51.3775
    ORTHCH:  cpu time    0.6614: real time    0.6651
 BZINTS: Fermi energy:  2.733379;203.000000 electrons
         Band energy:***********;  BLOECHL correction: -0.034246
       DOS:  cpu time    0.0617: real time    0.0620
    CHARGE:  cpu time    1.6700: real time    1.6790
    MIXING:  cpu time    0.0080: real time    0.0080
    --------------------------------------------
      LOOP:  cpu time   62.5066: real time   62.9045

 eigenvalue-minimisations  : 17949
 total energy-change (2. order) : 0.1229749E+00  (-0.1740204E+00)
 number of electron     202.9999961 magnetization      23.0769771
 augmentation part       68.6286097 magnetization      16.0967363

 Broyden mixing:
  rms(total) = 0.42858E+00    rms(broyden)= 0.42838E+00
  rms(prec ) = 0.56772E+00
  weight for this iteration     100.00

 eigenvalues of (default mixing * dielectric matrix)
  average eigenvalue GAMMA=   0.8036
  1.3492  1.3492  0.6520  0.3177  0.3499

 Free energy of the ion-electron system (eV)
  ---------------------------------------------------
  alpha Z        PSCENC =      1096.51130837
  Ewald energy   TEWEN  =    -13555.49358463
  -Hartree energ DENC   =     -8572.45692091
  -exchange      EXHF   =         0.00000000
  -V(xc)+E(xc)   XCENC  =      1010.46687041
  PAW double counting   =     16487.46963305   -16982.32434809
  entropy T*S    EENTRO =         0.00000000
  eigenvalues    EBANDS =     -2999.87081745
  atomic energy  EATOM  =     23319.14298724
  Solvation  Ediel_sol  =         0.00000000
  ---------------------------------------------------
  free energy    TOTEN  =      -196.55487201 eV

  energy without entropy =     -196.55487201  energy(sigma->0) =     -196.55487201


--------------------------------------------------------------------------------------------------------




--------------------------------------- Iteration      1(  11)  ---------------------------------------


    POTLOK:  cpu time    0.2564: real time    0.2576
    SETDIJ:  cpu time    0.0247: real time    0.0248
    EDDIAG:  cpu time    8.7915: real time    8.8383
  RMM-DIIS:  cpu time   59.3945: real time   59.9671
    ORTHCH:  cpu time    0.6898: real time    0.6940
 BZINTS: Fermi energy:  2.635765;203.000000 electrons
         Band energy:***********;  BLOECHL correction: -0.033279
       DOS:  cpu time    0.0640: real time    0.0646
    CHARGE:  cpu time    1.7320: real time    1.7437
    MIXING:  cpu time    0.0096: real time    0.0097
    --------------------------------------------
      LOOP:  cpu time   70.9625: real time   71.5998

 eigenvalue-minimisations  : 20255
 total energy-change (2. order) : 0.2365562E-01  (-0.5472397E-01)
 number of electron     202.9999960 magnetization      23.0272791
 augmentation part       68.8541720 magnetization      16.2420383

 Broyden mixing:
  rms(total) = 0.17557E+00    rms(broyden)= 0.17546E+00
  rms(prec ) = 0.23388E+00
  weight for this iteration     100.00

 eigenvalues of (default mixing * dielectric matrix)
  average eigenvalue GAMMA=   0.8799
  1.7273  1.2752  0.9890  0.6760  0.3213  0.2907

 Free energy of the ion-electron system (eV)
  ---------------------------------------------------
  alpha Z        PSCENC =      1096.51130837
  Ewald energy   TEWEN  =    -13555.49358463
  -Hartree energ DENC   =     -8552.38401163
  -exchange      EXHF   =         0.00000000
  -V(xc)+E(xc)   XCENC  =      1010.25146547
  PAW double counting   =     16527.76029158   -17026.07147184
  entropy T*S    EENTRO =         0.00000000
  eigenvalues    EBANDS =     -3016.24820096
  atomic energy  EATOM  =     23319.14298724
  Solvation  Ediel_sol  =         0.00000000
  ---------------------------------------------------
  free energy    TOTEN  =      -196.53121640 eV

  energy without entropy =     -196.53121640  energy(sigma->0) =     -196.53121640


--------------------------------------------------------------------------------------------------------




--------------------------------------- Iteration      1(  12)  ---------------------------------------


    POTLOK:  cpu time    0.2626: real time    0.2636
    SETDIJ:  cpu time    0.0260: real time    0.0262
    EDDIAG:  cpu time    8.9670: real time    9.0274
  RMM-DIIS:  cpu time   60.1245: real time   60.6089
    ORTHCH:  cpu time    0.6961: real time    0.6999
 BZINTS: Fermi energy:  2.659067;203.000000 electrons
         Band energy:***********;  BLOECHL correction: -0.034408
       DOS:  cpu time    0.0682: real time    0.0685
    CHARGE:  cpu time    1.7166: real time    1.7259
    MIXING:  cpu time    0.0092: real time    0.0093
    --------------------------------------------
      LOOP:  cpu time   71.8703: real time   72.4297

 eigenvalue-minimisations  : 20738
 total energy-change (2. order) : 0.1363995E-01  (-0.1386584E-01)
 number of electron     202.9999960 magnetization      22.9647671
 augmentation part       68.8844383 magnetization      16.2730436

 Broyden mixing:
  rms(total) = 0.76626E-01    rms(broyden)= 0.76591E-01
  rms(prec ) = 0.90739E-01
  weight for this iteration     100.00

 eigenvalues of (default mixing * dielectric matrix)
  average eigenvalue GAMMA=   0.9364
  2.1372  1.2248  1.2248  0.6781  0.6781  0.3219  0.2903

 Free energy of the ion-electron system (eV)
  ---------------------------------------------------
  alpha Z        PSCENC =      1096.51130837
  Ewald energy   TEWEN  =    -13555.49358463
  -Hartree energ DENC   =     -8544.10891368
  -exchange      EXHF   =         0.00000000
  -V(xc)+E(xc)   XCENC  =      1010.18867907
  PAW double counting   =     16583.73587008   -17086.41054615
  entropy T*S    EENTRO =         0.00000000
  eigenvalues    EBANDS =     -3020.08337674
  atomic energy  EATOM  =     23319.14298724
  Solvation  Ediel_sol  =         0.00000000
  ---------------------------------------------------
  free energy    TOTEN  =      -196.51757644 eV

  energy without entropy =     -196.51757644  energy(sigma->0) =     -196.51757644


--------------------------------------------------------------------------------------------------------




--------------------------------------- Iteration      1(  13)  ---------------------------------------


    POTLOK:  cpu time    0.2608: real time    0.2617
    SETDIJ:  cpu time    0.0270: real time    0.0271
    EDDIAG:  cpu time    8.9221: real time    8.9846
  RMM-DIIS:  cpu time   60.2801: real time   60.7244
    ORTHCH:  cpu time    0.7024: real time    0.7048
 BZINTS: Fermi energy:  2.662692;203.000000 electrons
         Band energy:***********;  BLOECHL correction: -0.034406
       DOS:  cpu time    0.0588: real time    0.0590
    --------------------------------------------
      LOOP:  cpu time   70.2512: real time   70.7615

 eigenvalue-minimisations  : 20914
 total energy-change (2. order) :-0.3702668E-03  (-0.1134873E-02)
 number of electron     202.9999960 magnetization      22.9647671
 augmentation part       68.8844383 magnetization      16.2730436

 Free energy of the ion-electron system (eV)
  ---------------------------------------------------
  alpha Z        PSCENC =      1096.51130837
  Ewald energy   TEWEN  =    -13555.49358463
  -Hartree energ DENC   =     -8546.10733869
  -exchange      EXHF   =         0.00000000
  -V(xc)+E(xc)   XCENC  =      1010.24597153
  PAW double counting   =     16603.99004360   -17107.98319717
  entropy T*S    EENTRO =         0.00000000
  eigenvalues    EBANDS =     -3016.82413696
  atomic energy  EATOM  =     23319.14298724
  Solvation  Ediel_sol  =         0.00000000
  ---------------------------------------------------
  free energy    TOTEN  =      -196.51794671 eV

  energy without entropy =     -196.51794671  energy(sigma->0) =     -196.51794671


--------------------------------------------------------------------------------------------------------




 average (electrostatic) potential at core
  the test charge radii are     0.8577  0.9577  0.7215
  (the norm of the test charge is              1.0000)
       1 -16.1416       2 -50.2550       3 -50.3043       4 -50.2591       5 -50.2746
       6 -50.3020       7 -50.2674       8 -50.3002       9 -50.2843      10 -73.1353
      11 -73.1366      12 -73.1365      13 -73.0830      14 -73.0819      15 -73.4020
      16 -73.1365      17 -73.4019      18 -73.2637      19 -73.2647      20 -73.2644
      21 -73.4034      22 -73.4033      23 -73.0808      24 -73.2632      25 -73.0806
 
 
 
 E-fermi :   2.6627     XC(G=0): -10.6813     alpha+bet : -9.6740


 spin component 1

 k-point     1 :       0.0000    0.0000    0.0000
  band No.  band energies     occupation 
      1     -48.4782      1.00000
      2     -48.4137      1.00000
      3     -48.3989      1.00000
      4     -48.3631      1.00000
      5     -48.3508      1.00000
      6     -48.3384      1.00000
      7     -48.3289      1.00000
      8     -48.3171      1.00000
      9     -48.2363      1.00000
     10     -48.2163      1.00000
     11     -48.2085      1.00000
     12     -48.2041      1.00000
     13     -48.1975      1.00000
     14     -48.1932      1.00000
     15     -48.1902      1.00000
     16     -48.1852      1.00000
     17     -48.1784      1.00000
     18     -48.1765      1.00000
     19     -48.1736      1.00000
     20     -48.1698      1.00000
     21     -48.1681      1.00000
     22     -48.1493      1.00000
     23     -48.1472      1.00000
     24     -48.1320      1.00000
     25     -41.6624      1.00000
     26     -17.5784      1.00000
     27     -16.9832      1.00000
     28     -16.8201      1.00000
     29     -16.2151      1.00000
     30     -16.1812      1.00000
     31     -16.1793      1.00000
     32     -15.9775      1.00000
     33     -15.8542      1.00000
     34     -15.8539      1.00000
     35     -15.8018      1.00000
     36     -15.7911      1.00000
     37     -15.6970      1.00000
     38     -15.6961      1.00000
     39     -15.5539      1.00000
     40     -15.5232      1.00000
     41     -15.5228      1.00000
     42      -5.1483      1.00000
     43      -4.6651      1.00000
     44      -4.6126      1.00000
     45      -4.6122      1.00000
     46      -4.1688      1.00000
     47      -4.1285      1.00000
     48      -3.9575      1.00000
     49      -3.9531      1.00000
     50      -3.8079      1.00000
     51      -3.6693      1.00000
     52      -3.6683      1.00000
     53      -3.6605      1.00000
     54      -3.5545      1.00000
     55      -3.4709      1.00000
     56      -3.1160      1.00000
     57      -3.0573      1.00000
     58      -3.0378      1.00000
     59      -3.0350      1.00000
     60      -2.9673      1.00000
     61      -2.8816      1.00000
     62      -2.8072      1.00000
     63      -2.7999      1.00000
     64      -2.7980      1.00000
     65      -2.6626      1.00000
     66      -2.4755      1.00000
     67      -2.4746      1.00000
     68      -2.3351      1.00000
     69      -2.2989      1.00000
     70      -1.9932      1.00000
     71      -1.9904      1.00000
     72      -1.8367      1.00000
     73      -1.6789      1.00000
     74      -1.6749      1.00000
     75      -1.1775      1.00000
     76      -1.1774      1.00000
     77      -0.8485      1.00000
     78      -0.7993      1.00000
     79      -0.7986      1.00000
     80      -0.7044      1.00000
     81      -0.6860      1.00000
     82      -0.5457      1.00000
     83      -0.5198      1.00000
     84      -0.5002      1.00000
     85      -0.5001      1.00000
     86      -0.3922      1.00000
     87       0.1197      1.00000
     88       0.1229      1.00000
     89       0.1330      1.00000
     90       0.2584      1.00000
     91       0.2593      1.00000
     92       0.2619      1.00000
     93       0.2726      1.00000
     94       0.2735      1.00000
     95       0.4242      1.00000
     96       0.4310      1.00000
     97       0.4350      1.00000
     98       0.4456      1.00000
     99       0.5359      1.00000
    100       0.5388      1.00000
    101       0.6124      1.00000
    102       0.6131      1.00000
    103       0.6451      1.00000
    104       0.9258      1.00000
    105       0.9509      1.00000
    106       0.9512      1.00000
    107       1.3434      1.00000
    108       1.3491      1.00000
    109       1.3504      1.00000
    110       1.3947      1.00000
    111       1.4798      1.00000
    112       1.5012      1.00000
    113       1.5035      1.00000
    114       3.2199      0.00000
    115       3.2414      0.00000
    116       3.6585      0.00000
    117       3.6615      0.00000
    118       3.8381      0.00000
    119       3.8436      0.00000
    120       3.8954      0.00000
    121       3.9879      0.00000
    122       3.9955      0.00000
    123       4.2578      0.00000
    124       4.2626      0.00000
    125       4.4260      0.00000
    126       4.4264      0.00000
    127       4.4682      0.00000
    128       4.5191      0.00000
    129       4.5620      0.00000
    130       8.4317      0.00000
    131      11.1223      0.00000
    132      11.5350      0.00000
    133      11.6554      0.00000
    134      11.6558      0.00000
    135      11.9605      0.00000
    136      12.4858      0.00000
    137      12.4869      0.00000
    138      13.2134      0.00000
    139      13.3783      0.00000
    140      13.5232      0.00000
    141      13.5261      0.00000
    142      13.5635      0.00000
    143      13.8665      0.00000
    144      15.7090      0.00000
    145      15.9053      0.00000
    146      16.0894      0.00000
    147      16.1755      0.00000

 k-point     2 :       0.2500    0.0000    0.0000
  band No.  band energies     occupation 
      1     -48.4684      1.00000
      2     -48.4188      1.00000
      3     -48.3948      1.00000
      4     -48.3671      1.00000
      5     -48.3502      1.00000
      6     -48.3364      1.00000
      7     -48.3284      1.00000
      8     -48.3180      1.00000
      9     -48.2361      1.00000
     10     -48.2147      1.00000
     11     -48.2070      1.00000
     12     -48.2045      1.00000
     13     -48.1992      1.00000
     14     -48.1945      1.00000
     15     -48.1900      1.00000
     16     -48.1812      1.00000
     17     -48.1799      1.00000
     18     -48.1789      1.00000
     19     -48.1738      1.00000
     20     -48.1712      1.00000
     21     -48.1664      1.00000
     22     -48.1533      1.00000
     23     -48.1506      1.00000
     24     -48.1319      1.00000
     25     -41.6624      1.00000
     26     -17.4820      1.00000
     27     -17.0207      1.00000
     28     -16.7771      1.00000
     29     -16.3284      1.00000
     30     -16.1740      1.00000
     31     -16.1679      1.00000
     32     -15.9558      1.00000
     33     -15.8741      1.00000
     34     -15.8582      1.00000
     35     -15.8044      1.00000
     36     -15.7766      1.00000
     37     -15.7076      1.00000
     38     -15.6765      1.00000
     39     -15.5706      1.00000
     40     -15.5521      1.00000
     41     -15.5428      1.00000
     42      -4.9704      1.00000
     43      -4.4678      1.00000
     44      -4.4670      1.00000
     45      -4.3695      1.00000
     46      -4.1107      1.00000
     47      -4.0010      1.00000
     48      -3.9361      1.00000
     49      -3.9255      1.00000
     50      -3.9075      1.00000
     51      -3.7083      1.00000
     52      -3.6497      1.00000
     53      -3.6137      1.00000
     54      -3.5658      1.00000
     55      -3.3908      1.00000
     56      -3.2779      1.00000
     57      -3.2190      1.00000
     58      -3.1516      1.00000
     59      -3.0781      1.00000
     60      -3.0733      1.00000
     61      -2.9800      1.00000
     62      -2.9468      1.00000
     63      -2.9137      1.00000
     64      -2.8304      1.00000
     65      -2.7106      1.00000
     66      -2.6817      1.00000
     67      -2.4878      1.00000
     68      -2.2992      1.00000
     69      -1.9199      1.00000
     70      -1.9059      1.00000
     71      -1.8888      1.00000
     72      -1.6419      1.00000
     73      -1.6287      1.00000
     74      -1.4807      1.00000
     75      -1.3893      1.00000
     76      -1.3306      1.00000
     77      -1.2455      1.00000
     78      -1.1231      1.00000
     79      -1.0720      1.00000
     80      -0.9434      1.00000
     81      -0.6620      1.00000
     82      -0.6514      1.00000
     83      -0.6176      1.00000
     84      -0.5626      1.00000
     85      -0.3728      1.00000
     86      -0.2268      1.00000
     87      -0.1711      1.00000
     88       0.0240      1.00000
     89       0.0541      1.00000
     90       0.1668      1.00000
     91       0.2705      1.00000
     92       0.3396      1.00000
     93       0.3513      1.00000
     94       0.3722      1.00000
     95       0.4271      1.00000
     96       0.4935      1.00000
     97       0.5872      1.00000
     98       0.5910      1.00000
     99       0.6355      1.00000
    100       0.6940      1.00000
    101       0.7452      1.00000
    102       0.8136      1.00000
    103       0.8328      1.00000
    104       0.9354      1.00000
    105       1.0829      1.00000
    106       1.1221      1.00000
    107       1.1927      1.00000
    108       1.2637      1.00000
    109       1.3133      1.00000
    110       1.3731      1.00000
    111       1.4081      1.00000
    112       1.4818      1.00000
    113       1.5579      1.00000
    114       3.4180      0.00000
    115       3.4376      0.00000
    116       3.6857      0.00000
    117       3.7416      0.00000
    118       3.7525      0.00000
    119       3.7704      0.00000
    120       3.8601      0.00000
    121       3.9022      0.00000
    122       3.9083      0.00000
    123       4.0831      0.00000
    124       4.2475      0.00000
    125       4.2756      0.00000
    126       4.3041      0.00000
    127       4.3568      0.00000
    128       4.4073      0.00000
    129       4.4831      0.00000
    130       8.9205      0.00000
    131      11.2378      0.00000
    132      11.3018      0.00000
    133      11.6777      0.00000
    134      11.9795      0.00000
    135      12.0626      0.00000
    136      12.2030      0.00000
    137      12.7773      0.00000
    138      13.1771      0.00000
    139      13.5622      0.00000
    140      13.6821      0.00000
    141      13.7091      0.00000
    142      14.1899      0.00000
    143      14.5964      0.00000
    144      15.2043      0.00000
    145      15.6171      0.00000
    146      15.7410      0.00000
    147      16.0968      0.00000

 k-point     3 :       0.5000    0.0000    0.0000
  band No.  band energies     occupation 
      1     -48.4521      1.00000
      2     -48.4330      1.00000
      3     -48.3830      1.00000
      4     -48.3758      1.00000
      5     -48.3501      1.00000
      6     -48.3346      1.00000
      7     -48.3270      1.00000
      8     -48.3197      1.00000
      9     -48.2358      1.00000
     10     -48.2108      1.00000
     11     -48.2082      1.00000
     12     -48.2025      1.00000
     13     -48.2014      1.00000
     14     -48.1941      1.00000
     15     -48.1906      1.00000
     16     -48.1881      1.00000
     17     -48.1819      1.00000
     18     -48.1759      1.00000
     19     -48.1742      1.00000
     20     -48.1658      1.00000
     21     -48.1651      1.00000
     22     -48.1597      1.00000
     23     -48.1550      1.00000
     24     -48.1317      1.00000
     25     -41.6624      1.00000
     26     -17.2769      1.00000
     27     -17.2054      1.00000
     28     -16.5845      1.00000
     29     -16.5476      1.00000
     30     -16.1666      1.00000
     31     -16.1566      1.00000
     32     -15.9380      1.00000
     33     -15.8783      1.00000
     34     -15.8631      1.00000
     35     -15.8106      1.00000
     36     -15.7650      1.00000
     37     -15.7280      1.00000
     38     -15.6466      1.00000
     39     -15.5870      1.00000
     40     -15.5818      1.00000
     41     -15.5728      1.00000
     42      -4.5634      1.00000
     43      -4.5417      1.00000
     44      -4.1242      1.00000
     45      -4.0341      1.00000
     46      -4.0124      1.00000
     47      -3.9348      1.00000
     48      -3.8909      1.00000
     49      -3.8709      1.00000
     50      -3.8509      1.00000
     51      -3.8053      1.00000
     52      -3.7958      1.00000
     53      -3.7008      1.00000
     54      -3.5545      1.00000
     55      -3.4779      1.00000
     56      -3.4118      1.00000
     57      -3.3446      1.00000
     58      -3.3243      1.00000
     59      -3.2553      1.00000
     60      -3.1322      1.00000
     61      -3.0544      1.00000
     62      -2.9367      1.00000
     63      -2.8915      1.00000
     64      -2.8403      1.00000
     65      -2.7559      1.00000
     66      -2.5391      1.00000
     67      -2.5126      1.00000
     68      -2.0837      1.00000
     69      -2.0582      1.00000
     70      -1.9802      1.00000
     71      -1.9733      1.00000
     72      -1.6886      1.00000
     73      -1.5919      1.00000
     74      -1.5403      1.00000
     75      -1.4653      1.00000
     76      -1.4116      1.00000
     77      -1.2595      1.00000
     78      -1.2062      1.00000
     79      -1.1488      1.00000
     80      -0.9757      1.00000
     81      -0.9038      1.00000
     82      -0.7848      1.00000
     83      -0.7846      1.00000
     84      -0.6823      1.00000
     85      -0.4502      1.00000
     86      -0.2924      1.00000
     87      -0.0689      1.00000
     88       0.0568      1.00000
     89       0.0672      1.00000
     90       0.1589      1.00000
     91       0.2439      1.00000
     92       0.2940      1.00000
     93       0.3141      1.00000
     94       0.5861      1.00000
     95       0.6368      1.00000
     96       0.6664      1.00000
     97       0.6748      1.00000
     98       0.6838      1.00000
     99       0.7317      1.00000
    100       0.7725      1.00000
    101       0.8367      1.00000
    102       0.9645      1.00000
    103       0.9832      1.00000
    104       1.0073      1.00000
    105       1.0848      1.00000
    106       1.1265      1.00000
    107       1.1363      1.00000
    108       1.1559      1.00000
    109       1.2433      1.00000
    110       1.3845      1.00000
    111       1.4200      1.00000
    112       1.4816      1.00000
    113       1.4958      1.00000
    114       3.5918      0.00000
    115       3.6141      0.00000
    116       3.6531      0.00000
    117       3.6817      0.00000
    118       3.7039      0.00000
    119       3.7233      0.00000
    120       3.8451      0.00000
    121       3.8512      0.00000
    122       3.9498      0.00000
    123       4.0517      0.00000
    124       4.0917      0.00000
    125       4.1082      0.00000
    126       4.1744      0.00000
    127       4.2156      0.00000
    128       4.2588      0.00000
    129       4.4491      0.00000
    130      10.0150      0.00000
    131      10.1378      0.00000
    132      11.4303      0.00000
    133      11.8422      0.00000
    134      11.9994      0.00000
    135      12.1656      0.00000
    136      12.2218      0.00000
    137      13.6743      0.00000
    138      13.8347      0.00000
    139      13.9067      0.00000
    140      13.9454      0.00000
    141      13.9499      0.00000
    142      14.1119      0.00000
    143      14.6600      0.00000
    144      14.7544      0.00000
    145      15.0372      0.00000
    146      15.6856      0.00000
    147      15.9143      0.00000

 k-point     4 :       0.0000    0.2500    0.0000
  band No.  band energies     occupation 
      1     -48.4700      1.00000
      2     -48.4144      1.00000
      3     -48.3959      1.00000
      4     -48.3628      1.00000
      5     -48.3559      1.00000
      6     -48.3414      1.00000
      7     -48.3243      1.00000
      8     -48.3172      1.00000
      9     -48.2336      1.00000
     10     -48.2161      1.00000
     11     -48.2087      1.00000
     12     -48.2066      1.00000
     13     -48.1971      1.00000
     14     -48.1961      1.00000
     15     -48.1930      1.00000
     16     -48.1843      1.00000
     17     -48.1790      1.00000
     18     -48.1778      1.00000
     19     -48.1724      1.00000
     20     -48.1679      1.00000
     21     -48.1668      1.00000
     22     -48.1505      1.00000
     23     -48.1475      1.00000
     24     -48.1360      1.00000
     25     -41.6624      1.00000
     26     -17.4820      1.00000
     27     -17.0205      1.00000
     28     -16.7772      1.00000
     29     -16.3287      1.00000
     30     -16.1721      1.00000
     31     -16.1694      1.00000
     32     -15.9559      1.00000
     33     -15.8739      1.00000
     34     -15.8586      1.00000
     35     -15.8044      1.00000
     36     -15.7764      1.00000
     37     -15.7071      1.00000
     38     -15.6773      1.00000
     39     -15.5704      1.00000
     40     -15.5517      1.00000
     41     -15.5433      1.00000
     42      -4.9703      1.00000
     43      -4.4681      1.00000
     44      -4.4672      1.00000
     45      -4.3693      1.00000
     46      -4.1101      1.00000
     47      -4.0013      1.00000
     48      -3.9362      1.00000
     49      -3.9288      1.00000
     50      -3.9035      1.00000
     51      -3.7074      1.00000
     52      -3.6486      1.00000
     53      -3.6147      1.00000
     54      -3.5664      1.00000
     55      -3.3902      1.00000
     56      -3.2777      1.00000
     57      -3.2194      1.00000
     58      -3.1528      1.00000
     59      -3.0779      1.00000
     60      -3.0688      1.00000
     61      -2.9799      1.00000
     62      -2.9478      1.00000
     63      -2.9167      1.00000
     64      -2.8306      1.00000
     65      -2.7122      1.00000
     66      -2.6819      1.00000
     67      -2.4879      1.00000
     68      -2.2999      1.00000
     69      -1.9204      1.00000
     70      -1.9043      1.00000
     71      -1.8905      1.00000
     72      -1.6396      1.00000
     73      -1.6285      1.00000
     74      -1.4805      1.00000
     75      -1.3903      1.00000
     76      -1.3317      1.00000
     77      -1.2452      1.00000
     78      -1.1234      1.00000
     79      -1.0715      1.00000
     80      -0.9448      1.00000
     81      -0.6622      1.00000
     82      -0.6505      1.00000
     83      -0.6171      1.00000
     84      -0.5633      1.00000
     85      -0.3729      1.00000
     86      -0.2273      1.00000
     87      -0.1698      1.00000
     88       0.0237      1.00000
     89       0.0533      1.00000
     90       0.1703      1.00000
     91       0.2715      1.00000
     92       0.3408      1.00000
     93       0.3519      1.00000
     94       0.3739      1.00000
     95       0.4269      1.00000
     96       0.4897      1.00000
     97       0.5883      1.00000
     98       0.5905      1.00000
     99       0.6369      1.00000
    100       0.6965      1.00000
    101       0.7509      1.00000
    102       0.8105      1.00000
    103       0.8265      1.00000
    104       0.9354      1.00000
    105       1.0822      1.00000
    106       1.1195      1.00000
    107       1.1962      1.00000
    108       1.2640      1.00000
    109       1.3125      1.00000
    110       1.3716      1.00000
    111       1.4023      1.00000
    112       1.4866      1.00000
    113       1.5586      1.00000
    114       3.4168      0.00000
    115       3.4379      0.00000
    116       3.6898      0.00000
    117       3.7455      0.00000
    118       3.7461      0.00000
    119       3.7698      0.00000
    120       3.8602      0.00000
    121       3.8943      0.00000
    122       3.9157      0.00000
    123       4.0889      0.00000
    124       4.2405      0.00000
    125       4.2693      0.00000
    126       4.3047      0.00000
    127       4.3563      0.00000
    128       4.4072      0.00000
    129       4.4909      0.00000
    130       8.9205      0.00000
    131      11.2374      0.00000
    132      11.3023      0.00000
[...]
    100       3.4890      0.00000
    101       3.5541      0.00000
    102       3.5917      0.00000
    103       3.6351      0.00000
    104       3.6536      0.00000
    105       3.6806      0.00000
    106       3.6905      0.00000
    107       3.7234      0.00000
    108       3.7789      0.00000
    109       3.8016      0.00000
    110       3.8774      0.00000
    111       3.9189      0.00000
    112       3.9494      0.00000
    113       3.9624      0.00000
    114       5.0929      0.00000
    115       5.1409      0.00000
    116       5.1993      0.00000
    117       5.2678      0.00000
    118       5.2971      0.00000
    119       5.3093      0.00000
    120       5.3505      0.00000
    121       5.3660      0.00000
    122       5.3891      0.00000
    123       5.4215      0.00000
    124       5.5025      0.00000
    125       5.5843      0.00000
    126       5.6610      0.00000
    127       5.6820      0.00000
    128       5.7285      0.00000
    129       5.7694      0.00000
    130       9.9786      0.00000
    131      10.9148      0.00000
    132      11.6022      0.00000
    133      11.8018      0.00000
    134      12.1546      0.00000
    135      12.5935      0.00000
    136      13.1164      0.00000
    137      13.2184      0.00000
    138      13.7388      0.00000
    139      14.1410      0.00000
    140      14.3836      0.00000
    141      14.4609      0.00000
    142      14.7347      0.00000
    143      15.0749      0.00000
    144      15.3336      0.00000
    145      15.4948      0.00000
    146      15.8296      0.00000
    147      16.3424      0.00000


--------------------------------------------------------------------------------------------------------


 soft charge-density along one line, spin component           1
         0         1         2         3         4         5         6         7         8         9
 total charge-density along one line
 
 soft charge-density along one line, spin component           2
         0         1         2         3         4         5         6         7         8         9
 total charge-density along one line
 
 pseudopotential strength for first ion, spin component:           1
-49.626   9.581   0.000   0.000   0.000   0.000   0.000   0.000
  9.581  -0.621  -0.000  -0.000  -0.000  -0.000  -0.000  -0.000
  0.000  -0.000  -0.517  -0.000   0.000   0.264  -0.000   0.000
  0.000  -0.000  -0.000  -0.517   0.000  -0.000   0.264   0.000
  0.000  -0.000   0.000   0.000  -0.517   0.000   0.000   0.264
  0.000  -0.000   0.264  -0.000   0.000   1.932   0.000   0.000
  0.000  -0.000  -0.000   0.264   0.000   0.000   1.932   0.000
  0.000  -0.000   0.000   0.000   0.264   0.000   0.000   1.932
 pseudopotential strength for first ion, spin component:           2
-49.614   9.577   0.000   0.000   0.000   0.000   0.000   0.000
  9.577  -0.619  -0.000  -0.000  -0.000  -0.000  -0.000  -0.000
  0.000  -0.000  -0.507   0.000  -0.000   0.259   0.000  -0.000
  0.000  -0.000   0.000  -0.507   0.000   0.000   0.259   0.000
  0.000  -0.000  -0.000   0.000  -0.507  -0.000   0.000   0.259
  0.000  -0.000   0.259   0.000  -0.000   1.935   0.000  -0.000
  0.000  -0.000   0.000   0.259   0.000   0.000   1.935   0.000
  0.000  -0.000  -0.000   0.000   0.259  -0.000   0.000   1.935
 total augmentation occupancy for first ion, spin component:           1
  2.016   0.109   0.000  -0.000  -0.000   0.000   0.000  -0.000
  0.109   0.773  -0.000  -0.000   0.000  -0.000   0.000   0.000
  0.000  -0.000   0.088   0.000  -0.000  -0.016  -0.000   0.000
 -0.000  -0.000   0.000   0.089  -0.000  -0.000  -0.016   0.000
 -0.000   0.000  -0.000  -0.000   0.088   0.000   0.000  -0.016
  0.000  -0.000  -0.016  -0.000   0.000   0.003   0.000  -0.000
  0.000   0.000  -0.000  -0.016   0.000   0.000   0.003  -0.000
 -0.000   0.000   0.000   0.000  -0.016  -0.000  -0.000   0.003
 total augmentation occupancy for first ion, spin component:           2
  0.001   0.004  -0.000  -0.000   0.000  -0.000  -0.000  -0.000
  0.004   0.030  -0.000  -0.000   0.000   0.000   0.000  -0.000
 -0.000  -0.000   0.003   0.000  -0.000  -0.000  -0.000   0.000
 -0.000  -0.000   0.000   0.003  -0.000  -0.000  -0.000   0.000
  0.000   0.000  -0.000  -0.000   0.003   0.000   0.000  -0.000
 -0.000   0.000  -0.000  -0.000   0.000   0.000  -0.000  -0.000
 -0.000   0.000  -0.000  -0.000   0.000  -0.000   0.000  -0.000
 -0.000  -0.000   0.000   0.000  -0.000  -0.000  -0.000   0.000


------------------------ aborting loop because EDIFF is reached ----------------------------------------


 


 total charge     
 
# of ion       s       p       d       tot
------------------------------------------
    1        2.081   0.213   0.000   2.293
    2        0.343   6.445   4.863  11.651
    3        0.343   6.444   4.877  11.663
    4        0.343   6.445   4.865  11.653
    5        0.342   6.444   4.864  11.650
    6        0.343   6.444   4.878  11.664
    7        0.343   6.445   4.869  11.657
    8        0.343   6.444   4.877  11.663
    9        0.343   6.445   4.876  11.664
   10        1.582   3.393   0.000   4.975
   11        1.582   3.393   0.000   4.975
   12        1.582   3.393   0.000   4.975
   13        1.583   3.388   0.000   4.971
   14        1.583   3.387   0.000   4.970
   15        1.569   3.461   0.000   5.030
   16        1.582   3.393   0.000   4.975
   17        1.569   3.461   0.000   5.030
   18        1.581   3.398   0.000   4.979
   19        1.581   3.398   0.000   4.979
   20        1.581   3.398   0.000   4.979
   21        1.569   3.460   0.000   5.029
   22        1.569   3.461   0.000   5.030
   23        1.583   3.386   0.000   4.969
   24        1.581   3.397   0.000   4.978
   25        1.583   3.386   0.000   4.969
--------------------------------------------------
tot         30.084 106.323  38.967 175.373
 


 magnetization (x)
 
# of ion       s       p       d       tot
------------------------------------------
    1        0.003   0.007   0.000   0.010
    2        0.030   0.035   2.716   2.781
    3        0.029   0.034   2.668   2.731
    4        0.030   0.035   2.715   2.781
    5        0.029   0.034   2.671   2.734
    6        0.029   0.034   2.666   2.729
    7        0.030   0.035   2.713   2.778
    8        0.029   0.034   2.666   2.729
    9        0.030   0.035   2.712   2.777
   10        0.003   0.010   0.000   0.014
   11        0.003   0.011   0.000   0.014
   12        0.003   0.010   0.000   0.014
   13        0.004   0.021   0.000   0.024
   14        0.004   0.021   0.000   0.024
   15        0.001   0.018   0.000   0.019
   16        0.003   0.010   0.000   0.014
   17        0.001   0.018   0.000   0.019
   18        0.003   0.010   0.000   0.013
   19        0.003   0.010   0.000   0.013
   20        0.003   0.010   0.000   0.013
   21        0.001   0.018   0.000   0.019
   22        0.001   0.018   0.000   0.019
   23        0.004   0.021   0.000   0.024
   24        0.003   0.010   0.000   0.013
   25        0.004   0.021   0.000   0.024
--------------------------------------------------
tot          0.284   0.519  21.527  22.330
 
    CHARGE:  cpu time    1.6761: real time    1.6836
    FORLOC:  cpu time    0.0284: real time    0.0284
    FORNL :  cpu time   18.5270: real time   18.6783
    STRESS:  cpu time   55.2618: real time   55.6961
    FORCOR:  cpu time    0.2677: real time    0.2697
    FORHAR:  cpu time    0.0631: real time    0.0636
    MIXING:  cpu time    0.0105: real time    0.0107
    OFIELD:  cpu time    0.0001: real time    0.0001

  FORCE on cell =-STRESS in cart. coord.  units (eV):
  Direction    XX          YY          ZZ          XY          YZ          ZX
  --------------------------------------------------------------------------------------
  Alpha Z  1096.51131  1096.51131  1096.51131
  Ewald   -4524.79093 -4524.79093 -4505.96233    -0.00000    -0.00000     0.00000
  Hartree  2847.36031  2847.85603  2862.66973     0.01068     0.38658     0.05089
  E(xc)   -1110.73095 -1110.73053 -1110.73642     0.00029     0.00018    -0.00005
  Local   -1204.95423 -1205.55540 -1238.51601    -0.01817    -0.43601    -0.06391
  n-local  -907.02614  -907.03046  -906.99982    -0.00042     0.00001     0.00093
  augment   599.54362   599.56219   599.26369     0.00703    -0.00270     0.00142
  Kinetic  3210.68380  3210.70503  3209.57810     0.00745    -0.00735     0.00373
  Fock        0.00000     0.00000     0.00000     0.00000     0.00000     0.00000
  -------------------------------------------------------------------------------------
  Total       6.59678     6.52724     5.80824     0.00687    -0.05929    -0.00699
  in kB      38.65941    38.25186    34.03826     0.04028    -0.34748    -0.04096
  external pressure =       36.98 kB  Pullay stress =        0.00 kB


 VOLUME and BASIS-vectors are now :
 -----------------------------------------------------------------------------
  energy-cutoff  :      520.00
  volume of cell :      273.39
      direct lattice vectors                 reciprocal lattice vectors
     5.770635000  0.000000000  0.000000000     0.173291154  0.000000000  0.000000000
     0.000000000  5.770635000  0.000000000     0.000000000  0.173291154  0.000000000
     0.000000000  0.000000000  8.209947000     0.000000000  0.000000000  0.121803466

  length of vectors
     5.770635000  5.770635000  8.209947000     0.173291154  0.173291154  0.121803466


 FORCES acting on ions
    electron-ion (+dipol)            ewald-force                    non-local-force                 convergence-correction
 -----------------------------------------------------------------------------------------------
   -.182E-02 -.258E-01 -.536E-01   0.231E-13 0.143E-13 -.639E-13   -.394E-03 -.341E-03 -.844E-03   0.229E-02 0.249E-01 0.540E-01
   -.111E+02 -.101E+00 -.313E+02   0.110E+02 -.256E-13 0.329E+02   -.284E+00 -.445E-02 -.621E+00   0.365E+00 0.106E+00 -.307E+00
   0.146E-01 0.186E+02 -.267E+02   -.117E-12 -.201E+02 0.269E+02   0.112E-02 0.402E+00 -.553E+00   -.151E-01 0.357E+00 0.476E+00
   0.111E+02 -.100E+00 -.313E+02   -.110E+02 -.256E-13 0.329E+02   0.285E+00 -.361E-02 -.621E+00   -.366E+00 0.105E+00 -.305E+00
   0.152E-01 -.186E+02 -.267E+02   -.103E-12 0.201E+02 0.269E+02   0.409E-03 -.404E+00 -.551E+00   -.155E-01 -.357E+00 0.466E+00
   0.188E+02 0.122E+00 0.264E+02   -.201E+02 -.282E-13 -.269E+02   0.411E+00 0.684E-02 0.541E+00   0.142E+00 -.127E+00 -.122E+00
   -.146E-01 -.109E+02 0.317E+02   -.568E-13 0.110E+02 -.329E+02   -.709E-03 -.278E+00 0.633E+00   0.154E-01 0.243E+00 -.913E-01
   -.188E+02 0.121E+00 0.264E+02   0.201E+02 -.148E-15 -.269E+02   -.411E+00 0.535E-02 0.539E+00   -.142E+00 -.125E+00 -.121E+00
   -.153E-01 0.109E+02 0.317E+02   -.568E-13 -.110E+02 -.329E+02   -.124E-02 0.279E+00 0.633E+00   0.164E-01 -.242E+00 -.108E+00
   -.260E-01 0.357E+03 0.234E+03   0.568E-13 -.378E+03 -.247E+03   -.183E-02 0.206E+02 0.140E+02   0.270E-01 -.155E+00 -.385E+00
   0.358E+03 -.111E+00 -.233E+03   -.378E+03 0.264E-13 0.247E+03   0.206E+02 -.755E-02 -.139E+02   -.421E+00 0.117E+00 0.294E-01
   -.358E+03 -.110E+00 -.233E+03   0.378E+03 -.506E-14 0.247E+03   -.206E+02 -.757E-02 -.139E+02   0.427E+00 0.117E+00 0.135E-02
   0.263E-01 -.356E+03 -.257E+03   0.551E-13 0.376E+03 0.272E+03   0.190E-02 -.206E+02 -.145E+02   -.274E-01 0.156E+00 -.107E+00
   0.252E-01 0.356E+03 -.258E+03   0.213E-13 -.376E+03 0.272E+03   0.181E-02 0.206E+02 -.145E+02   -.270E-01 -.118E+00 0.113E+00
   -.315E+03 -.195E+00 0.212E+03   0.330E+03 0.102E-13 -.222E+03   -.142E+02 -.148E-01 0.958E+01   0.930E-01 0.209E+00 -.747E-01
   -.254E-01 -.357E+03 0.234E+03   0.604E-13 0.378E+03 -.247E+03   -.214E-02 -.206E+02 0.140E+02   0.276E-01 0.181E+00 -.288E+00
   0.315E+03 -.196E+00 0.212E+03   -.330E+03 0.713E-14 -.222E+03   0.142E+02 -.151E-01 0.958E+01   -.983E-01 0.209E+00 -.469E-01
   0.137E-01 0.344E+03 0.257E+03   0.533E-13 -.364E+03 -.272E+03   0.529E-03 0.201E+02 0.144E+02   -.148E-01 -.311E+00 0.719E-01
   0.344E+03 0.200E+00 -.258E+03   -.364E+03 0.178E-13 0.272E+03   0.201E+02 0.145E-01 -.144E+02   -.100E+00 -.212E+00 0.299E+00
   -.344E+03 0.201E+00 -.258E+03   0.364E+03 -.107E-13 0.272E+03   -.201E+02 0.151E-01 -.145E+02   0.968E-01 -.212E+00 0.312E+00
   -.139E-01 -.316E+03 -.212E+03   0.533E-13 0.330E+03 0.222E+03   -.823E-03 -.142E+02 -.960E+01   0.153E-01 0.249E+00 0.356E+00
   -.143E-01 0.316E+03 -.212E+03   0.284E-13 -.330E+03 0.222E+03   -.942E-03 0.142E+02 -.959E+01   0.149E-01 -.276E+00 0.261E+00
   -.356E+03 0.112E+00 0.258E+03   0.376E+03 0.127E-15 -.272E+03   -.206E+02 0.754E-02 0.145E+02   0.370E+00 -.118E+00 -.205E+00
   0.147E-01 -.344E+03 0.258E+03   0.568E-13 0.364E+03 -.272E+03   0.139E-02 -.201E+02 0.144E+02   -.158E-01 0.272E+00 -.147E+00
   0.356E+03 0.111E+00 0.258E+03   -.376E+03 -.662E-16 -.272E+03   0.206E+02 0.730E-02 0.145E+02   -.366E+00 -.118E+00 -.217E+00
 -----------------------------------------------------------------------------------------------
   -.229E-02 0.266E-01 0.851E-01   -.171E-12 -.662E-16 0.227E-12   -.106E-02 0.148E-02 -.426E-02   0.404E-02 -.278E-01 -.849E-01
 
 
 POSITION                                       TOTAL-FORCE (eV/Angst)
 -----------------------------------------------------------------------------------
      2.88532      2.88532      0.00000         0.000045     -0.001325     -0.000258
      4.32798      2.88532      3.07873         0.059879      0.000634      0.626599
      0.00000      1.44266      1.02624         0.000598     -0.782842      0.133855
      1.44266      2.88532      3.07873        -0.059550      0.000738      0.626355
      0.00000      4.32798      1.02624         0.000091      0.780073      0.135499
      1.44266      0.00000      7.18370        -0.780066      0.001256     -0.137961
      2.88532      4.32798      5.13122         0.000096      0.062789     -0.622544
      4.32798      0.00000      7.18370         0.779937      0.001308     -0.138283
      2.88532      1.44266      5.13122        -0.000183     -0.063335     -0.622882
      2.88532      1.61105      3.20805        -0.000842     -0.008066      0.000992
      1.61105      2.88532      5.00189        -0.006572     -0.001362      0.003271
      4.15959      2.88532      5.00189         0.005774     -0.000518      0.003846
      0.00000      4.15959      2.94941         0.000807     -0.055745     -0.108559
      0.00000      1.61105      2.94941        -0.000014      0.050599     -0.109375
      1.27427      2.88532      1.15557         0.442197     -0.001247     -0.412083
      2.88532      4.15959      3.20805        -0.000007      0.004734      0.000891
      4.49636      2.88532      1.15557        -0.441925     -0.002076     -0.412413
      0.00000      4.49636      7.31303        -0.000682      0.011096     -0.026405
      4.49636      0.00000      0.89692         0.009701      0.002867      0.024955
      1.27427      0.00000      0.89692        -0.009172      0.003783      0.025214
      2.88532      1.27427      7.05438         0.000606      0.444470      0.413639
      2.88532      4.49636      7.05438        -0.000292     -0.443062      0.412802
      4.15959      0.00000      5.26054        -0.049068      0.001305      0.104566
      0.00000      1.27427      7.31303         0.000273     -0.006484     -0.026085
      1.61105      0.00000      5.26054         0.048370      0.000410      0.104367
 -----------------------------------------------------------------------------------
    total drift:                                0.000691      0.000349     -0.004097


--------------------------------------------------------------------------------------------------------



  FREE ENERGIE OF THE ION-ELECTRON SYSTEM (eV)
  ---------------------------------------------------
  free  energy   TOTEN  =      -196.51794671 eV

  energy  without entropy=     -196.51794671  energy(sigma->0) =     -196.51794671
 


--------------------------------------------------------------------------------------------------------


    POTLOK:  cpu time    0.2958: real time    0.2975


--------------------------------------------------------------------------------------------------------


     LOOP+:  cpu time  959.1124: real time  965.3488
    4ORBIT:  cpu time    0.0000: real time    0.0000
 


 total charge     
 
# of ion       s       p       d       tot
------------------------------------------
    1        2.081   0.213   0.000   2.293
    2        0.343   6.445   4.863  11.651
    3        0.343   6.444   4.877  11.663
    4        0.343   6.445   4.865  11.653
    5        0.342   6.444   4.864  11.650
    6        0.343   6.444   4.878  11.664
    7        0.343   6.445   4.869  11.657
    8        0.343   6.444   4.877  11.663
    9        0.343   6.445   4.876  11.664
   10        1.582   3.393   0.000   4.975
   11        1.582   3.393   0.000   4.975
   12        1.582   3.393   0.000   4.975
   13        1.583   3.388   0.000   4.971
   14        1.583   3.387   0.000   4.970
   15        1.569   3.461   0.000   5.030
   16        1.582   3.393   0.000   4.975
   17        1.569   3.461   0.000   5.030
   18        1.581   3.398   0.000   4.979
   19        1.581   3.398   0.000   4.979
   20        1.581   3.398   0.000   4.979
   21        1.569   3.460   0.000   5.029
   22        1.569   3.461   0.000   5.030
   23        1.583   3.386   0.000   4.969
   24        1.581   3.397   0.000   4.978
   25        1.583   3.386   0.000   4.969
--------------------------------------------------
tot         30.084 106.323  38.967 175.373
 


 magnetization (x)
 
# of ion       s       p       d       tot
------------------------------------------
    1        0.003   0.007   0.000   0.010
    2        0.030   0.035   2.716   2.781
    3        0.029   0.034   2.668   2.731
    4        0.030   0.035   2.715   2.781
    5        0.029   0.034   2.671   2.734
    6        0.029   0.034   2.666   2.729
    7        0.030   0.035   2.713   2.778
    8        0.029   0.034   2.666   2.729
    9        0.030   0.035   2.712   2.777
   10        0.003   0.010   0.000   0.014
   11        0.003   0.011   0.000   0.014
   12        0.003   0.010   0.000   0.014
   13        0.004   0.021   0.000   0.024
   14        0.004   0.021   0.000   0.024
   15        0.001   0.018   0.000   0.019
   16        0.003   0.010   0.000   0.014
   17        0.001   0.018   0.000   0.019
   18        0.003   0.010   0.000   0.013
   19        0.003   0.010   0.000   0.013
   20        0.003   0.010   0.000   0.013
   21        0.001   0.018   0.000   0.019
   22        0.001   0.018   0.000   0.019
   23        0.004   0.021   0.000   0.024
   24        0.003   0.010   0.000   0.013
   25        0.004   0.021   0.000   0.024
--------------------------------------------------
tot          0.284   0.519  21.527  22.330
 
 BZINTS: Fermi energy:  2.662692;203.000000 electrons
         Band energy:***********;  BLOECHL correction: -0.034406

 total amount of memory used by VASP MPI-rank0   230530. kBytes
=======================================================================

   base      :      30000. kBytes
   nonlr-proj:      10891. kBytes
   fftplans  :       8862. kBytes
   grid      :      23457. kBytes
   one-center:        404. kBytes
   wavefun   :     156916. kBytes
 
  
  
 General timing and accounting informations for this job:
 ========================================================
  
                  Total CPU time used (sec):      978.680
                            User time (sec):      967.278
                          System time (sec):       11.402
                         Elapsed time (sec):      985.082
  
                   Maximum memory used (kb):   442167296.
                   Average memory used (kb):           0.
  
                          Minor page faults:       114413
                          Major page faults:          150
                 Voluntary context switches:           24
