    2    2    1    2
  0.2045330E+02  0.3867552E-09  0.3867552E-09  0.3867552E-09  0.5000000E-15
   1.0000000000000000E-004
  CAR 
 Rubyvaspy :: si                         
    8   60   10
 
  0.6250000E-01  0.6250000E-01  0.6250000E-01  0.3906250E-02
   1       -6.150688     -6.150720
   2        5.079623      5.079600
   3        5.528341      5.528317
   4        5.528341      5.528318
   5        8.206758      8.206733
   6        8.288963      8.288947
   7        8.288963      8.288947
   8        9.146122      9.146079
   9       13.158173     13.158117
  10       13.158175     13.158123
 
  0.1875000E+00  0.6250000E-01  0.6250000E-01  0.1171875E-01
   1       -5.884477     -5.884508
   2        3.580263      3.580237
   3        4.728002      4.727978
   4        5.411579      5.411552
   5        8.258699      8.258665
   6        8.531993      8.531977
   7        8.820625      8.820600
   8       10.615719     10.615664
   9       12.344768     12.344780
  10       13.123885     13.123856
 
  0.3125000E+00  0.6250000E-01  0.6250000E-01  0.1171875E-01
   1       -5.242149     -5.242179
   2        1.368842      1.368813
   3        4.243295      4.243268
   4        4.953085      4.953054
   5        7.812009      7.811968
   6        9.021248      9.021244
   7        9.305094      9.305083
   8       12.152203     12.152108
   9       12.386417     12.386450
  10       14.054761     14.054747
 
  0.4375000E+00  0.6250000E-01  0.6250000E-01  0.1171875E-01
   1       -4.346736     -4.346763
   2       -0.504624     -0.504658
   3        4.028186      4.028156
   4        4.549215      4.549183
   5        7.497873      7.497832
   6        9.082785      9.082801
   7        9.096358      9.096359
   8       13.395706     13.395467
   9       13.868256     13.868281
  10       14.688774     14.688633
 
 -0.4375000E+00  0.6250000E-01  0.6250000E-01  0.1171875E-01
   1       -3.902494     -3.902519
   2       -1.199391     -1.199427
   3        4.077383      4.077351
   4        4.332633      4.332604
   5        7.417849      7.417807
   6        8.890205      8.890211
   7        9.158995      9.159016
   8       13.467974     13.467675
   9       14.944279     14.944226
  10       16.073678     16.073798
 
 -0.3125000E+00  0.6250000E-01  0.6250000E-01  0.1171875E-01
   1       -4.653270     -4.653299
   2        0.049243      0.049211
   3        4.353134      4.353108
   4        4.361973      4.361940
   5        7.584121      7.584075
   6        8.897495      8.897499
   7        9.416097      9.416108
   8       12.513455     12.513380
   9       14.123828     14.121622
  10       14.496598     14.496631
 
 -0.1875000E+00  0.6250000E-01  0.6250000E-01  0.1171875E-01
   1       -5.493949     -5.493979
   2        2.094003      2.093975
   3        4.627178      4.627155
   4        4.823160      4.823129
   5        7.939039      7.938989
   6        8.760747      8.760738
   7        9.473590      9.473583
   8       11.331857     11.331806
   9       12.826019     12.826014
  10       13.283050     13.283044
 
 -0.6250000E-01  0.6250000E-01  0.6250000E-01  0.1171875E-01
   1       -6.016896     -6.016927
   2        4.330087      4.330062
   3        5.105306      5.105284
   4        5.262738      5.262713
   5        8.004170      8.004135
   6        8.573414      8.573394
   7        8.864705      8.864690
   8        9.883535      9.883488
   9       12.452418     12.452417
  10       13.332404     13.332349
 
  0.1875000E+00  0.1875000E+00  0.6250000E-01  0.1171875E-01
   1       -5.750525     -5.750556
   2        3.438099      3.438072
   3        4.551829      4.551809
   4        4.634268      4.634244
   5        7.585617      7.585562
   6        9.328136      9.328113
   7        9.717818      9.717807
   8       10.230366     10.230317
   9       12.183792     12.183819
  10       13.680282     13.680219
 
  0.3125000E+00  0.1875000E+00  0.6250000E-01  0.2343750E-01
   1       -5.229686     -5.229716
   2        1.945021      1.944994
   3        3.588629      3.588603
   4        4.377609      4.377585
   5        7.753124      7.753064
   6        9.438371      9.438351
   7       10.053656     10.053620
   8       10.509437     10.509422
   9       13.231815     13.231817
  10       14.520361     14.520333
 
  0.4375000E+00  0.1875000E+00  0.6250000E-01  0.2343750E-01
   1       -4.390928     -4.390957
   2        0.100065      0.100035
   3        3.095847      3.095815
   4        3.970392      3.970367
   5        7.945689      7.945638
   6        9.364992      9.364978
   7       10.537704     10.537692
   8       10.802272     10.802224
   9       14.689024     14.688904
  10       16.558931     15.554508
 
 -0.4375000E+00  0.1875000E+00  0.6250000E-01  0.2343750E-01
   1       -3.635668     -3.635694
   2       -1.099762     -1.099796
   3        2.808578      2.808544
   4        3.878081      3.878056
   5        8.014737      8.014702
   6        9.060042      9.060007
   7       10.383445     10.383448
   8       12.816174     12.816091
   9       14.157457     14.157334
  10       15.630941     15.630870
 
 -0.3125000E+00  0.1875000E+00  0.6250000E-01  0.2343750E-01
   1       -4.089600     -4.089627
   2       -0.415347     -0.415379
   3        2.736148      2.736115
   4        4.160731      4.160704
   5        8.293706      8.293687
   6        8.973183      8.973139
   7       10.329533     10.329521
   8       12.069052     12.068996
   9       14.040527     14.040492
  10       14.954362     14.954198
 
 -0.1875000E+00  0.1875000E+00  0.6250000E-01  0.2343750E-01
   1       -4.983521     -4.983550
   2        1.299650      1.299623
   3        3.036693      3.036662
   4        4.664659      4.664630
   5        8.605145      8.605110
   6        8.909331      8.909317
   7       10.207999     10.207963
   8       10.678992     10.678941
   9       12.574237     12.574236
  10       15.647413     15.648285
 
 -0.6250000E-01  0.1875000E+00  0.6250000E-01  0.2343750E-01
   1       -5.621072     -5.621102
   2        2.767336      2.767309
   3        4.155140      4.155115
   4        5.035078      5.035050
   5        8.146633      8.146585
   6        8.809555      8.809544
   7        9.530941      9.530919
   8       10.754671     10.754618
   9       12.331875     12.331891
  10       13.615021     13.614996
 
  0.3125000E+00  0.3125000E+00  0.6250000E-01  0.1171875E-01
   1       -4.831867     -4.831896
   2        1.442058      1.442030
   3        3.448292      3.448272
   4        3.569300      3.569284
   5        6.779250      6.779172
   6        8.430040      8.429980
   7       11.568971     11.568969
   8       11.711419     11.711422
   9       14.372837     14.372848
  10       14.882956     14.882887
 
  0.4375000E+00  0.3125000E+00  0.6250000E-01  0.2343750E-01
   1       -4.085425     -4.085454
   2        0.212849      0.212822
   3        2.666939      2.666912
   4        3.224953      3.224933
   5        7.091464      7.091390
   6        8.269218      8.269154
   7       11.530616     11.530608
   8       12.698618     12.698620
   9       15.475800     15.475781
  10       16.904486     16.934873
 
 -0.4375000E+00  0.3125000E+00  0.6250000E-01  0.2343750E-01
   1       -3.194360     -3.194386
   2       -0.975721     -0.975749
   3        1.832520      1.832484
   4        3.193690      3.193669
   5        7.325155      7.325090
   6        9.921420      9.921342
   7       11.107297     11.107285
   8       12.612232     12.612225
   9       14.458333     14.458284
  10       16.278062     16.278048
 
 -0.3125000E+00  0.3125000E+00  0.6250000E-01  0.2343750E-01
   1       -3.265342     -3.265368
   2       -0.882364     -0.882392
   3        1.482260      1.482222
   4        3.535509      3.535485
   5        7.725580      7.725530
   6       10.649941     10.649889
   7       11.950391     11.950345
   8       12.234555     12.234481
   9       12.666446     12.666442
  10       14.012193     14.012190
 
 -0.1875000E+00  0.3125000E+00  0.6250000E-01  0.2343750E-01
   1       -4.154904     -4.154932
   2        0.064707      0.064679
   3        2.081847      2.081812
   4        4.116663      4.116636
   5        8.353674      8.353653
   6        9.551582      9.551533
   7       10.976663     10.976612
   8       11.246481     11.246449
   9       13.083751     13.083747
  10       15.148175     15.148069
 
 -0.6250000E-01  0.3125000E+00  0.6250000E-01  0.2343750E-01
   1       -4.871146     -4.871175
   2        0.699663      0.699633
   3        3.703285      3.703256
   4        4.566185      4.566155
   5        8.070862      8.070818
   6        8.923967      8.923961
   7        9.774822      9.774815
   8       11.450943     11.450891
   9       13.404338     13.404319
  10       15.299121     15.304998
 
  0.4375000E+00  0.4375000E+00  0.6250000E-01  0.1171875E-01
   1       -3.436328     -3.436357
   2       -0.644693     -0.644720
   3        2.764690      2.764671
   4        2.980348      2.980334
   5        6.386782      6.386696
   6        7.093386      7.093310
   7       13.854373     13.854382
   8       13.861763     13.861778
   9       16.696953     16.696752
  10       16.937559     16.937480
 
 -0.4375000E+00  0.4375000E+00  0.6250000E-01  0.2343750E-01
   1       -2.532714     -2.532740
   2       -1.627629     -1.627655
   3        2.210800      2.210774
   4        2.738465      2.738446
   5        6.815870      6.815792
   6        7.541253      7.541179
   7       13.603651     13.603637
   8       14.620832     14.620809
   9       15.273599     15.273615
  10       16.407155     16.407185
 
 -0.3125000E+00  0.4375000E+00  0.6250000E-01  0.2343750E-01
   1       -2.629652     -2.629677
   2       -1.462654     -1.462681
   3        1.486564      1.486527
   4        3.051242      3.051221
   5        7.178612      7.178543
   6        9.766477      9.766400
   7       12.085090     12.085070
   8       13.227700     13.227665
   9       13.799478     13.799468
  10       15.208529     15.208533
 
 -0.1875000E+00  0.4375000E+00  0.6250000E-01  0.2343750E-01
   1       -3.381481     -3.381506
   2       -1.055584     -1.055615
   3        2.034018      2.033982
   4        3.648187      3.648163
   5        7.845245      7.845201
   6        9.801831      9.801790
   7       11.335413     11.335400
   8       12.569006     12.568932
   9       13.142053     13.142007
  10       15.037804     15.037771
 
 -0.6250000E-01  0.4375000E+00  0.6250000E-01  0.2343750E-01
   1       -3.986120     -3.986147
   2       -0.905055     -0.905089
   3        3.529594      3.529562
   4        4.232836      4.232808
   5        7.870510      7.870474
   6        8.823324      8.823310
   7        9.596019      9.596030
   8       13.135195     13.135071
   9       14.377026     14.376855
  10       15.409214     15.409153
 
 -0.4375000E+00 -0.4375000E+00  0.6250000E-01  0.1171875E-01
   1       -2.583619     -2.583647
   2       -1.644994     -1.645021
   3        2.627895      2.627877
   4        2.860023      2.860009
   5        6.382697      6.382612
   6        6.740733      6.740652
   7       14.926916     14.926925
   8       14.998893     14.998896
   9       16.399030     16.399048
  10       16.468692     16.468742
 
 -0.3125000E+00 -0.4375000E+00  0.6250000E-01  0.2343750E-01
   1       -3.351448     -3.351476
   2       -0.708041     -0.708067
   3        2.367039      2.367012
   4        2.896945      2.896926
   5        6.903287      6.903210
   6        7.790705      7.790634
   7       12.538912     12.538903
   8       13.854666     13.854674
   9       16.001275     16.001235
  10       16.643168     16.643136
 
 -0.1875000E+00 -0.4375000E+00  0.6250000E-01  0.2343750E-01
   1       -3.819636     -3.819663
   2       -0.446810     -0.446839
   3        2.426980      2.426946
   4        3.491872      3.491850
   5        7.601246      7.601188
   6       10.105374     10.105309
   7       10.329702     10.329684
   8       11.546094     11.546091
   9       15.451114     15.450994
  10       16.081869     16.081860
 
 -0.3125000E+00 -0.3125000E+00  0.6250000E-01  0.1171875E-01
   1       -4.189746     -4.189775
   2        0.394265      0.394237
   3        3.038319      3.038300
   4        3.218623      3.218608
   5        6.517446      6.517363
   6        7.667814      7.667746
   7       12.694960     12.694965
   8       12.771724     12.771734
   9       15.698545     15.698537
  10       15.720237     15.720167
 
 -0.1875000E+00 -0.3125000E+00  0.6250000E-01  0.2343750E-01
   1       -4.715289     -4.715318
   2        1.099671      1.099644
   3        3.083741      3.083714
   4        3.730828      3.730808
   5        7.381482      7.381413
   6        8.943382      8.943328
   7       10.590890     10.590881
   8       11.573578     11.573572
   9       14.320493     14.320485
  10       15.669452     15.669430
 
 -0.1875000E+00 -0.1875000E+00  0.6250000E-01  0.1171875E-01
   1       -5.354142     -5.354173
   2        2.466775      2.466747
   3        3.989684      3.989662
   4        4.021357      4.021339
   5        7.149681      7.149613
   6        9.290652      9.290598
   7       10.524293     10.524285
   8       10.686752     10.686747
   9       13.101393     13.101411
  10       14.199278     14.199211
 
  0.1875000E+00  0.1875000E+00  0.1875000E+00  0.3906250E-02
   1       -5.753725     -5.753756
   2        2.860546      2.860520
   3        5.090578      5.090553
   4        5.090579      5.090553
   5        7.812041      7.811997
   6        8.902187      8.902174
   7        8.902187      8.902174
   8       11.261220     11.261152
   9       12.662810     12.662816
  10       12.662810     12.662816
 
  0.3125000E+00  0.1875000E+00  0.1875000E+00  0.1171875E-01
   1       -5.364049     -5.364079
   2        2.024305      2.024278
   3        3.586188      3.586159
   4        5.109214      5.109183
   5        8.464981      8.464967
   6        9.024294      9.024280
   7        9.314217      9.314166
   8       11.313495     11.313402
   9       11.840942     11.840988
  10       14.431753     14.431742
 
  0.4375000E+00  0.1875000E+00  0.1875000E+00  0.1171875E-01
   1       -4.621701     -4.621730
   2        0.662613      0.662585
   3        2.511639      2.511605
   4        4.607488      4.607459
   5        8.311821      8.311814
   6        9.776578      9.776566
   7        9.979712      9.979637
   8       11.597446     11.597337
   9       11.946975     11.947031
  10       15.876010     16.895124
 
 -0.4375000E+00  0.1875000E+00  0.1875000E+00  0.1171875E-01
   1       -3.733372     -3.733398
   2       -0.816572     -0.816604
   3        2.359949      2.359915
   4        4.079600      4.079575
   5        7.813748      7.813717
   6        9.954886      9.954822
   7       10.162326     10.162335
   8       13.443985     13.443857
   9       13.562325     13.562359
  10       13.878508     13.878409
 
 -0.3125000E+00  0.1875000E+00  0.1875000E+00  0.1171875E-01
   1       -3.717901     -3.717927
   2       -0.844637     -0.844669
   3        2.657562      2.657527
   4        3.763498      3.763476
   5        7.536779      7.536730
   6       10.027753     10.027712
   7       10.505475     10.505488
   8       11.490947     11.490883
   9       15.175948     15.175755
  10       16.018665     16.018685
 
 -0.1875000E+00  0.1875000E+00  0.1875000E+00  0.1171875E-01
   1       -4.604910     -4.604939
   2        0.659052      0.659024
   3        3.266565      3.266533
   4        3.739519      3.739501
   5        7.469351      7.469288
   6        9.654017      9.653967
   7       10.302216     10.302193
   8       10.878626     10.878631
   9       15.248089     15.248056
  10       15.422166     15.422142
 
  0.3125000E+00  0.3125000E+00  0.1875000E+00  0.1171875E-01
   1       -5.108877     -5.108907
   2        1.362381      1.362353
   3        4.089469      4.089437
   4        4.155249      4.155229
   5        7.862367      7.862310
   6        9.233768      9.233760
   7       10.140122     10.140121
   8       10.503443     10.503393
   9       14.043848     14.043846
  10       14.165065     14.165046
 
  0.4375000E+00  0.3125000E+00  0.1875000E+00  0.2343750E-01
   1       -4.486421     -4.486449
   2        0.596413      0.596386
   3        2.568153      2.568120
   4        3.960968      3.960943
   5        8.351243      8.351185
   6        9.394087      9.394081
   7        9.872882      9.872823
   8       11.393861     11.393842
   9       13.739632     13.739630
  10       16.188799     16.184617
 
 -0.4375000E+00  0.3125000E+00  0.1875000E+00  0.2343750E-01
   1       -3.600965     -3.600991
   2       -0.499205     -0.499232
   3        1.783237      1.783201
   4        3.396170      3.396143
   5        8.802749      8.802708
   6        9.285827      9.285772
   7       10.561583     10.561540
   8       12.482563     12.482541
   9       13.972595     13.972528
  10       14.510789     14.510790
 
 -0.3125000E+00  0.3125000E+00  0.1875000E+00  0.2343750E-01
   1       -3.116718     -3.116743
   2       -1.108977     -1.109005
   3        1.786811      1.786775
   4        3.085254      3.085229
   5        8.333150      8.333095
   6        9.613850      9.613805
   7       11.339231     11.339176
   8       12.631648     12.631639
   9       12.892694     12.892649
  10       16.479611     16.479606
 
 -0.1875000E+00  0.3125000E+00  0.1875000E+00  0.2343750E-01
   1       -3.883842     -3.883870
   2       -0.110020     -0.110047
   3        2.206697      2.206664
   4        3.263342      3.263317
   5        8.065277      8.065213
   6        9.272373      9.272307
   7       10.146840     10.146830
   8       12.611796     12.611788
   9       15.037770     15.037769
  10       15.474708     15.474622
 
  0.4375000E+00  0.4375000E+00  0.1875000E+00  0.1171875E-01
   1       -3.992593     -3.992621
   2       -0.053312     -0.053339
   3        2.539013      2.538981
   4        3.410978      3.410961
   5        7.089111      7.089042
   6        9.109475      9.109410
   7       11.381482     11.381463
   8       11.696530     11.696538
   9       16.478480     16.461325
  10       16.661684     16.593516
 
 -0.4375000E+00  0.4375000E+00  0.1875000E+00  0.2343750E-01
   1       -3.193746     -3.193773
   2       -0.847275     -0.847301
   3        1.964621      1.964588
   4        2.729628      2.729602
   5        7.860955      7.860887
   6        8.869026      8.868956
   7       11.032983     11.032967
   8       13.831033     13.831033
   9       14.363095     14.363047
  10       16.331455     16.331456
 
 -0.3125000E+00  0.4375000E+00  0.1875000E+00  0.2343750E-01
   1       -2.390769     -2.390794
   2       -1.598200     -1.598225
   3        1.647848      1.647813
   4        2.230882      2.230851
   5        8.977267      8.977196
   6        9.898699      9.898601
   7       10.589284     10.589282
   8       11.586281     11.586253
   9       15.110728     15.110728
  10       16.544404     16.544432
 
 -0.1875000E+00  0.4375000E+00  0.1875000E+00  0.2343750E-01
   1       -2.990042     -2.990067
   2       -1.053104     -1.053130
   3        1.640223      1.640187
   4        2.703857      2.703829
   5        9.073414      9.073342
   6        9.499208      9.499152
   7       10.266566     10.266541
   8       12.741431     12.741385
   9       13.829461     13.829453
  10       15.944447     15.944458
 
 -0.4375000E+00 -0.4375000E+00  0.1875000E+00  0.1171875E-01
   1       -2.553242     -2.553268
   2       -1.577603     -1.577630
   3        1.752000      1.751967
   4        3.070866      3.070851
   5        6.657402      6.657324
   6        8.553079      8.553007
   7       13.516654     13.516651
   8       13.727054     13.727021
   9       14.919921     14.919871
  10       15.050702     15.050741
 
 -0.3125000E+00 -0.4375000E+00  0.1875000E+00  0.2343750E-01
   1       -2.453466     -2.453492
   2       -1.607531     -1.607557
   3        1.845296      1.845263
   4        2.445088      2.445061
   5        7.755961      7.755891
   6        8.667571      8.667499
   7       12.030295     12.030273
   8       13.138280     13.138248
   9       15.118889     15.118895
  10       16.479268     16.479298
 
 -0.3125000E+00 -0.3125000E+00  0.1875000E+00  0.1171875E-01
   1       -3.290600     -3.290627
   2       -0.809809     -0.809836
   3        2.016955      2.016922
   4        3.185395      3.185379
   5        6.806341      6.806266
   6        8.736522      8.736452
   7       12.539290     12.539266
   8       12.597562     12.597569
   9       16.011129     16.011045
  10       16.179602     16.179629
 
  0.3125000E+00  0.3125000E+00  0.3125000E+00  0.3906250E-02
   1       -5.002204     -5.002233
   2        0.669242      0.669211
   3        4.680060      4.680031
   4        4.680060      4.680031
   5        7.360395      7.360348
   6        9.131035      9.131041
   7        9.131035      9.131041
   8       13.244395     13.244144
   9       13.317353     13.317372
  10       13.317359     13.317372
 
  0.4375000E+00  0.3125000E+00  0.3125000E+00  0.1171875E-01
   1       -4.525541     -4.525569
   2        0.094729      0.094698
   3        3.222124      3.222093
   4        4.593154      4.593124
   5        8.076345      8.076324
   6        9.354071      9.354025
   7        9.400261      9.400266
   8       12.606073     12.605949
   9       12.729342     12.729380
  10       15.079474     15.079264
 
 -0.4375000E+00  0.3125000E+00  0.3125000E+00  0.1171875E-01
   1       -3.738124     -3.738151
   2       -0.435031     -0.435058
   3        1.703601      1.703563
   4        4.015784      4.015760
   5        7.737521      7.737484
   6       10.793398     10.793389
   7       10.964807     10.964726
   8       12.365548     12.365445
   9       12.607837     12.607890
  10       13.860705     13.860638
 
 -0.3125000E+00  0.3125000E+00  0.3125000E+00  0.1171875E-01
   1       -2.921832     -2.921857
   2       -1.212442     -1.212470
   3        1.367394      1.367355
   4        3.472422      3.472403
   5        7.122863      7.122801
   6       10.996426     10.996332
   7       12.059107     12.059101
   8       12.335988     12.335952
   9       13.544072     13.543998
  10       13.686159     13.686204
 
  0.4375000E+00  0.4375000E+00  0.3125000E+00  0.1171875E-01
   1       -4.213261     -4.213288
   2       -0.460105     -0.460137
   3        3.556575      3.556541
   4        4.033012      4.032988
   5        7.787294      7.787250
   6        9.135387      9.135370
   7        9.879620      9.879633
   8       11.913323     11.913249
   9       14.739862     14.739648
  10       15.825317     15.827846
 
 -0.4375000E+00  0.4375000E+00  0.3125000E+00  0.2343750E-01
   1       -3.597212     -3.597238
   2       -0.817732     -0.817763
   3        2.254644      2.254609
   4        3.560005      3.559980
   5        8.555104      8.555065
   6        8.899841      8.899798
   7       11.435941     11.435928
   8       11.652744     11.652693
   9       14.040029     14.039944
  10       15.507935     15.507910
 
 -0.3125000E+00  0.4375000E+00  0.3125000E+00  0.2343750E-01
   1       -2.784463     -2.784488
   2       -1.277466     -1.277493
   3        1.458851      1.458814
   4        2.850694      2.850667
   5        8.204881      8.204822
   6       10.441417     10.441340
   7       11.231587     11.231546
   8       11.760037     11.760014
   9       13.786623     13.786611
  10       15.547646     15.547656
 
 -0.4375000E+00 -0.4375000E+00  0.3125000E+00  0.1171875E-01
   1       -3.240819     -3.240844
   2       -1.095585     -1.095615
   3        1.863863      1.863827
   4        3.571645      3.571625
   5        7.270760      7.270703
   6       10.957208     10.957103
   7       11.266820     11.266829
   8       11.372048     11.372036
   9       14.628281     14.628169
  10       14.748903     14.748932
 
  0.4375000E+00  0.4375000E+00  0.4375000E+00  0.3906250E-02
   1       -4.118553     -4.118580
   2       -0.965527     -0.965563
   3        4.460560      4.460529
   4        4.460560      4.460529
   5        7.108288      7.108244
   6        8.990618      8.990639
   7        8.990619      8.990640
   8       13.357971     13.357650
   9       15.190370     15.190384
  10       15.190467     15.190476
 
 -0.4375000E+00  0.4375000E+00  0.4375000E+00  0.1171875E-01
   1       -3.769930     -3.769955
   2       -1.140118     -1.140153
   3        3.241672      3.241640
   4        4.194008      4.193980
   5        7.818639      7.818610
   6        9.125557      9.125521
   7        9.567433      9.567450
   8       13.746731     13.746522
   9       14.412722     14.412607
  10       14.805613     14.805637
