<?xml version="1.0" encoding="ISO-8859-1"?>
<modeling>
 <generator>
  <i name="program" type="string">vasp </i>
  <i name="version" type="string">5.2.2  </i>
  <i name="subversion" type="string">15Apr09 complex  parallel </i>
  <i name="platform" type="string">unknown </i>
  <i name="date" type="string">2011 05 12 </i>
  <i name="time" type="string">17:07:09 </i>
 </generator>
 <incar>
  <i type="string" name="SYSTEM"> RubyVaspy :: Si</i>
  <i type="string" name="PREC">accurate</i>
  <i type="string" name="ALGO"> FAST</i>
  <i type="int" name="ISPIN">     2</i>
  <i type="int" name="ICHARG">     1</i>
  <i type="int" name="NELM">   100</i>
  <i type="int" name="NELMIN">     3</i>
  <i type="int" name="IBRION">     1</i>
  <i name="EDIFF">      0.00000200</i>
  <i type="int" name="NSW">   200</i>
  <i type="int" name="ISIF">     3</i>
  <i name="ENCUT">    520.00000000</i>
  <v name="MAGMOM">      0.60000000      0.60000000</v>
  <i type="string" name="LREAL"> AUTO</i>
  <i type="int" name="ISMEAR">    -5</i>
  <i name="SIGMA">      0.05000000</i>
  <i type="logical" name="LWAVE"> T  </i>
  <i type="int" name="NELM">   100</i>
  <i type="logical" name="LPEAD"> F  </i>
  <i type="logical" name="LCALCPOL"> F  </i>
  <i type="logical" name="LCALCEPS"> F  </i>
  <v name="EFIELD_PEAD">      0.00000000      0.00000000      0.00000000</v>
  <i type="logical" name="LEFG"> F  </i>
 </incar>
 <kpoints>
  <generation param="Monkhorst-Pack">
   <v type="int" name="divisions">       8        8        8 </v>
   <v name="usershift">      0.00000000       0.00000000       0.00000000 </v>
   <v name="genvec1">      0.12500000       0.00000000       0.00000000 </v>
   <v name="genvec2">      0.00000000       0.12500000       0.00000000 </v>
   <v name="genvec3">      0.00000000       0.00000000       0.12500000 </v>
   <v name="shift">      0.50000000       0.50000000       0.50000000 </v>
  </generation>
  <varray name="kpointlist" >
   <v>       0.06250000       0.06250000       0.06250000 </v>
   <v>       0.18750000       0.06250000       0.06250000 </v>
   <v>       0.31250000       0.06250000       0.06250000 </v>
   <v>       0.43750000       0.06250000       0.06250000 </v>
   <v>      -0.43750000       0.06250000       0.06250000 </v>
   <v>      -0.31250000       0.06250000       0.06250000 </v>
   <v>      -0.18750000       0.06250000       0.06250000 </v>
   <v>      -0.06250000       0.06250000       0.06250000 </v>
   <v>       0.18750000       0.18750000       0.06250000 </v>
   <v>       0.31250000       0.18750000       0.06250000 </v>
   <v>       0.43750000       0.18750000       0.06250000 </v>
   <v>      -0.43750000       0.18750000       0.06250000 </v>
   <v>      -0.31250000       0.18750000       0.06250000 </v>
   <v>      -0.18750000       0.18750000       0.06250000 </v>
   <v>      -0.06250000       0.18750000       0.06250000 </v>
   <v>       0.31250000       0.31250000       0.06250000 </v>
   <v>       0.43750000       0.31250000       0.06250000 </v>
   <v>      -0.43750000       0.31250000       0.06250000 </v>
   <v>      -0.31250000       0.31250000       0.06250000 </v>
   <v>      -0.18750000       0.31250000       0.06250000 </v>
   <v>      -0.06250000       0.31250000       0.06250000 </v>
   <v>       0.43750000       0.43750000       0.06250000 </v>
   <v>      -0.43750000       0.43750000       0.06250000 </v>
   <v>      -0.31250000       0.43750000       0.06250000 </v>
   <v>      -0.18750000       0.43750000       0.06250000 </v>
   <v>      -0.06250000       0.43750000       0.06250000 </v>
   <v>      -0.43750000      -0.43750000       0.06250000 </v>
   <v>      -0.31250000      -0.43750000       0.06250000 </v>
   <v>      -0.18750000      -0.43750000       0.06250000 </v>
   <v>      -0.31250000      -0.31250000       0.06250000 </v>
   <v>      -0.18750000      -0.31250000       0.06250000 </v>
   <v>      -0.18750000      -0.18750000       0.06250000 </v>
   <v>       0.18750000       0.18750000       0.18750000 </v>
   <v>       0.31250000       0.18750000       0.18750000 </v>
   <v>       0.43750000       0.18750000       0.18750000 </v>
   <v>      -0.43750000       0.18750000       0.18750000 </v>
   <v>      -0.31250000       0.18750000       0.18750000 </v>
   <v>      -0.18750000       0.18750000       0.18750000 </v>
   <v>       0.31250000       0.31250000       0.18750000 </v>
   <v>       0.43750000       0.31250000       0.18750000 </v>
   <v>      -0.43750000       0.31250000       0.18750000 </v>
   <v>      -0.31250000       0.31250000       0.18750000 </v>
   <v>      -0.18750000       0.31250000       0.18750000 </v>
   <v>       0.43750000       0.43750000       0.18750000 </v>
   <v>      -0.43750000       0.43750000       0.18750000 </v>
   <v>      -0.31250000       0.43750000       0.18750000 </v>
   <v>      -0.18750000       0.43750000       0.18750000 </v>
   <v>      -0.43750000      -0.43750000       0.18750000 </v>
   <v>      -0.31250000      -0.43750000       0.18750000 </v>
   <v>      -0.31250000      -0.31250000       0.18750000 </v>
   <v>       0.31250000       0.31250000       0.31250000 </v>
   <v>       0.43750000       0.31250000       0.31250000 </v>
   <v>      -0.43750000       0.31250000       0.31250000 </v>
   <v>      -0.31250000       0.31250000       0.31250000 </v>
   <v>       0.43750000       0.43750000       0.31250000 </v>
   <v>      -0.43750000       0.43750000       0.31250000 </v>
   <v>      -0.31250000       0.43750000       0.31250000 </v>
   <v>      -0.43750000      -0.43750000       0.31250000 </v>
   <v>       0.43750000       0.43750000       0.43750000 </v>
   <v>      -0.43750000       0.43750000       0.43750000 </v>
  </varray>
  <varray name="weights" >
   <v>       0.00390625 </v>
   <v>       0.01171875 </v>
   <v>       0.01171875 </v>
   <v>       0.01171875 </v>
   <v>       0.01171875 </v>
   <v>       0.01171875 </v>
   <v>       0.01171875 </v>
   <v>       0.01171875 </v>
   <v>       0.01171875 </v>
   <v>       0.02343750 </v>
   <v>       0.02343750 </v>
   <v>       0.02343750 </v>
   <v>       0.02343750 </v>
   <v>       0.02343750 </v>
   <v>       0.02343750 </v>
   <v>       0.01171875 </v>
   <v>       0.02343750 </v>
   <v>       0.02343750 </v>
   <v>       0.02343750 </v>
   <v>       0.02343750 </v>
   <v>       0.02343750 </v>
   <v>       0.01171875 </v>
   <v>       0.02343750 </v>
   <v>       0.02343750 </v>
   <v>       0.02343750 </v>
   <v>       0.02343750 </v>
   <v>       0.01171875 </v>
   <v>       0.02343750 </v>
   <v>       0.02343750 </v>
   <v>       0.01171875 </v>
   <v>       0.02343750 </v>
   <v>       0.01171875 </v>
   <v>       0.00390625 </v>
   <v>       0.01171875 </v>
   <v>       0.01171875 </v>
   <v>       0.01171875 </v>
   <v>       0.01171875 </v>
   <v>       0.01171875 </v>
   <v>       0.01171875 </v>
   <v>       0.02343750 </v>
   <v>       0.02343750 </v>
   <v>       0.02343750 </v>
   <v>       0.02343750 </v>
   <v>       0.01171875 </v>
   <v>       0.02343750 </v>
   <v>       0.02343750 </v>
   <v>       0.02343750 </v>
   <v>       0.01171875 </v>
   <v>       0.02343750 </v>
   <v>       0.01171875 </v>
   <v>       0.00390625 </v>
   <v>       0.01171875 </v>
   <v>       0.01171875 </v>
   <v>       0.01171875 </v>
   <v>       0.01171875 </v>
   <v>       0.02343750 </v>
   <v>       0.02343750 </v>
   <v>       0.01171875 </v>
   <v>       0.00390625 </v>
   <v>       0.01171875 </v>
  </varray>
  <varray name="tetrahedronlist"  type="int" >
   <v type="int" >       24        1        2        8       33 </v>
   <v type="int" >       24        2        7        8       15 </v>
   <v type="int" >       24        7        8        9       15 </v>
   <v type="int" >       24        2        7        8       33 </v>
   <v type="int" >       24        9       10       15       39 </v>
   <v type="int" >       24        9       10       32       39 </v>
   <v type="int" >       24        7        9       15       39 </v>
   <v type="int" >       24       10       31       32       38 </v>
   <v type="int" >       24       16       31       32       38 </v>
   <v type="int" >       24       10       32       38       39 </v>
   <v type="int" >       24       16       17       31       44 </v>
   <v type="int" >       24       16       17       30       44 </v>
   <v type="int" >       24       16       31       38       44 </v>
   <v type="int" >       24       17       28       30       50 </v>
   <v type="int" >       24       22       28       30       50 </v>
   <v type="int" >       24       17       30       44       50 </v>
   <v type="int" >       24       22       23       28       48 </v>
   <v type="int" >       24       22       23       27       48 </v>
   <v type="int" >       24       22       28       48       50 </v>
   <v type="int" >       24       23       23       27       48 </v>
   <v type="int" >       24       23       27       27       48 </v>
   <v type="int" >       24       23       27       48       48 </v>
   <v type="int" >       24       23       27       28       50 </v>
   <v type="int" >       24       22       27       28       50 </v>
   <v type="int" >       24       23       27       48       50 </v>
   <v type="int" >       24       17       22       28       44 </v>
   <v type="int" >       24       17       22       30       44 </v>
   <v type="int" >       24       22       28       44       50 </v>
   <v type="int" >       24       17       30       31       38 </v>
   <v type="int" >       24       16       30       31       38 </v>
   <v type="int" >       24       17       30       38       44 </v>
   <v type="int" >       24       10       16       31       39 </v>
   <v type="int" >       24       10       16       32       39 </v>
   <v type="int" >       24       16       31       38       39 </v>
   <v type="int" >       24        7       10       15       32 </v>
   <v type="int" >       24        7        9       15       32 </v>
   <v type="int" >       24        7       10       32       39 </v>
   <v type="int" >       24        2        9       15       33 </v>
   <v type="int" >       24        2        8        9       33 </v>
   <v type="int" >       24        7        9       15       33 </v>
   <v type="int" >       36        2        2        8        8 </v>
   <v type="int" >       48        1        2        8        8 </v>
   <v type="int" >       24        2        2        8       33 </v>
   <v type="int" >       24        1        1        2        8 </v>
   <v type="int" >       24        1        2        2        8 </v>
   <v type="int" >       24        2        3       15       34 </v>
   <v type="int" >       24        2        3        7       15 </v>
   <v type="int" >       24        2        3        7       33 </v>
   <v type="int" >       24       14       15       21       34 </v>
   <v type="int" >       24       10       14       15       21 </v>
   <v type="int" >       24       10       15       21       39 </v>
   <v type="int" >       24        3       15       21       34 </v>
   <v type="int" >       24        3        7       15       21 </v>
   <v type="int" >       24        7       15       21       39 </v>
   <v type="int" >       24       10       11       14       40 </v>
   <v type="int" >       24       10       11       31       40 </v>
   <v type="int" >       24       10       11       31       38 </v>
   <v type="int" >       24       10       11       14       21 </v>
   <v type="int" >       24       10       11       21       39 </v>
   <v type="int" >       24       10       11       38       39 </v>
   <v type="int" >       24       29       31       40       43 </v>
   <v type="int" >       24       17       29       31       43 </v>
   <v type="int" >       24       17       29       31       44 </v>
   <v type="int" >       24       11       29       31       40 </v>
   <v type="int" >       24       11       29       31       38 </v>
   <v type="int" >       24       29       31       38       44 </v>
   <v type="int" >       24       17       18       43       45 </v>
   <v type="int" >       24       17       18       28       45 </v>
   <v type="int" >       24       17       18       28       50 </v>
   <v type="int" >       24       17       18       29       43 </v>
   <v type="int" >       24       17       18       29       44 </v>
   <v type="int" >       24       17       18       44       50 </v>
   <v type="int" >       24       24       28       45       49 </v>
   <v type="int" >       24       23       24       28       49 </v>
   <v type="int" >       24       23       24       28       48 </v>
   <v type="int" >       24       18       24       28       45 </v>
   <v type="int" >       24       18       24       28       50 </v>
   <v type="int" >       24       24       28       48       50 </v>
   <v type="int" >       24       23       24       49       49 </v>
   <v type="int" >       24       23       23       24       49 </v>
   <v type="int" >       24       23       23       24       48 </v>
   <v type="int" >       24       23       24       24       49 </v>
   <v type="int" >       24       23       24       24       48 </v>
   <v type="int" >       24       23       24       48       48 </v>
   <v type="int" >       24       18       23       45       49 </v>
   <v type="int" >       24       18       23       28       45 </v>
   <v type="int" >       24       18       23       28       50 </v>
   <v type="int" >       24       18       23       24       49 </v>
   <v type="int" >       24       18       23       24       48 </v>
   <v type="int" >       24       18       23       48       50 </v>
   <v type="int" >       24       28       29       43       45 </v>
   <v type="int" >       24       17       28       29       43 </v>
   <v type="int" >       24       17       28       29       44 </v>
   <v type="int" >       24       18       28       29       45 </v>
   <v type="int" >       24       18       28       29       50 </v>
   <v type="int" >       24       28       29       44       50 </v>
   <v type="int" >       24       11       17       40       43 </v>
   <v type="int" >       24       11       17       31       40 </v>
   <v type="int" >       24       11       17       31       38 </v>
   <v type="int" >       24       11       17       29       43 </v>
   <v type="int" >       24       11       17       29       44 </v>
   <v type="int" >       24       11       17       38       44 </v>
   <v type="int" >       24       14       21       31       40 </v>
   <v type="int" >       24       10       14       21       31 </v>
   <v type="int" >       24       10       21       31       39 </v>
   <v type="int" >       24       11       21       31       40 </v>
   <v type="int" >       24       11       21       31       38 </v>
   <v type="int" >       24       21       31       38       39 </v>
   <v type="int" >       24        3       10       14       34 </v>
   <v type="int" >       24        3       10       15       34 </v>
   <v type="int" >       24        3        7       10       15 </v>
   <v type="int" >       24        3       10       14       21 </v>
   <v type="int" >       24        3       10       21       39 </v>
   <v type="int" >       24        3        7       10       39 </v>
   <v type="int" >       24        7       15       15       34 </v>
   <v type="int" >       48        2        7       15       15 </v>
   <v type="int" >       48        2        7       15       33 </v>
   <v type="int" >       24        3        7       15       34 </v>
   <v type="int" >       24        3        7        7       15 </v>
   <v type="int" >       24        7        7       15       33 </v>
   <v type="int" >       48        2        9       15       15 </v>
   <v type="int" >       24        2        8        9       15 </v>
   <v type="int" >       48        2        2        8       15 </v>
   <v type="int" >       24        2        2       15       33 </v>
   <v type="int" >       24        8        9        9       15 </v>
   <v type="int" >       24        8        8        9       15 </v>
   <v type="int" >       24        2        8        8       15 </v>
   <v type="int" >       24        8        9       15       15 </v>
   <v type="int" >       24        2        8       15       15 </v>
   <v type="int" >       24       14       34       35       52 </v>
   <v type="int" >       24       14       21       34       52 </v>
   <v type="int" >       24        3       21       34       52 </v>
   <v type="int" >       24       13       14       20       35 </v>
   <v type="int" >       24       13       14       20       40 </v>
   <v type="int" >       24       11       13       14       40 </v>
   <v type="int" >       24       13       14       35       52 </v>
   <v type="int" >       24       13       14       21       52 </v>
   <v type="int" >       24       11       13       14       21 </v>
   <v type="int" >       24       20       40       41       56 </v>
   <v type="int" >       24       40       41       43       56 </v>
   <v type="int" >       24       29       40       43       56 </v>
   <v type="int" >       24       13       20       40       56 </v>
   <v type="int" >       24       11       13       40       56 </v>
   <v type="int" >       24       11       29       40       56 </v>
   <v type="int" >       24       41       42       43       47 </v>
   <v type="int" >       24       42       43       45       47 </v>
   <v type="int" >       24       18       42       43       45 </v>
   <v type="int" >       24       41       42       43       56 </v>
   <v type="int" >       24       29       42       43       56 </v>
   <v type="int" >       24       18       29       42       43 </v>
   <v type="int" >       24       45       46       47       57 </v>
   <v type="int" >       24       45       46       49       57 </v>
   <v type="int" >       24       24       45       49       57 </v>
   <v type="int" >       24       42       45       47       57 </v>
   <v type="int" >       24       18       42       45       57 </v>
   <v type="int" >       24       18       24       45       57 </v>
   <v type="int" >       24       46       46       49       57 </v>
   <v type="int" >       24       46       49       49       57 </v>
   <v type="int" >       24       24       49       49       57 </v>
   <v type="int" >       24       46       49       57       57 </v>
   <v type="int" >       24       24       49       57       57 </v>
   <v type="int" >       24       24       24       49       57 </v>
   <v type="int" >       24       42       46       47       49 </v>
   <v type="int" >       24       42       45       47       49 </v>
   <v type="int" >       24       18       42       45       49 </v>
   <v type="int" >       24       42       46       49       57 </v>
   <v type="int" >       24       24       42       49       57 </v>
   <v type="int" >       24       18       24       42       49 </v>
   <v type="int" >       24       41       45       47       56 </v>
   <v type="int" >       24       41       43       45       56 </v>
   <v type="int" >       24       29       43       45       56 </v>
   <v type="int" >       24       42       45       47       56 </v>
   <v type="int" >       24       18       42       45       56 </v>
   <v type="int" >       24       18       29       45       56 </v>
   <v type="int" >       24       13       20       41       43 </v>
   <v type="int" >       24       13       20       40       43 </v>
   <v type="int" >       24       11       13       40       43 </v>
   <v type="int" >       24       13       41       43       56 </v>
   <v type="int" >       24       13       29       43       56 </v>
   <v type="int" >       24       11       13       29       43 </v>
   <v type="int" >       24       20       35       40       52 </v>
   <v type="int" >       24       14       35       40       52 </v>
   <v type="int" >       24       14       21       40       52 </v>
   <v type="int" >       24       13       20       40       52 </v>
   <v type="int" >       24       11       13       40       52 </v>
   <v type="int" >       24       11       21       40       52 </v>
   <v type="int" >       24       14       14       21       35 </v>
   <v type="int" >       24       14       14       21       34 </v>
   <v type="int" >       24        3       14       21       34 </v>
   <v type="int" >       24       14       21       35       52 </v>
   <v type="int" >       24       14       21       21       52 </v>
   <v type="int" >       24        3       14       21       21 </v>
   <v type="int" >       24       10       14       34       39 </v>
   <v type="int" >       24       10       15       34       39 </v>
   <v type="int" >       24        7       15       34       39 </v>
   <v type="int" >       24       14       21       34       39 </v>
   <v type="int" >       24        3       21       34       39 </v>
   <v type="int" >       24        3        7       34       39 </v>
   <v type="int" >       48       10       10       15       32 </v>
   <v type="int" >       24        9       10       15       32 </v>
   <v type="int" >       48        9       10       15       15 </v>
   <v type="int" >       24       10       10       15       39 </v>
   <v type="int" >       24        7       10       15       39 </v>
   <v type="int" >       24        7       10       15       15 </v>
   <v type="int" >       24        9       10       32       32 </v>
   <v type="int" >       24        9        9       10       32 </v>
   <v type="int" >       24        9        9       10       15 </v>
   <v type="int" >       24        9       10       10       32 </v>
   <v type="int" >       24        9       10       10       15 </v>
   <v type="int" >       24       20       35       36       53 </v>
   <v type="int" >       24       13       20       35       36 </v>
   <v type="int" >       24       13       35       36       52 </v>
   <v type="int" >       24       19       20       25       53 </v>
   <v type="int" >       24       19       20       25       41 </v>
   <v type="int" >       24       20       25       41       56 </v>
   <v type="int" >       24       20       25       36       53 </v>
   <v type="int" >       24       13       20       25       36 </v>
   <v type="int" >       24       13       20       25       56 </v>
   <v type="int" >       24       19       41       42       57 </v>
   <v type="int" >       24       41       42       47       57 </v>
   <v type="int" >       24       41       42       42       47 </v>
   <v type="int" >       24       19       25       41       42 </v>
   <v type="int" >       24       25       41       42       56 </v>
   <v type="int" >       24       41       42       42       56 </v>
   <v type="int" >       72       46       47       47       57 </v>
   <v type="int" >       36       46       46       47       47 </v>
   <v type="int" >       24       42       47       47       57 </v>
   <v type="int" >       12       42       42       47       47 </v>
   <v type="int" >       48       46       46       46       47 </v>
   <v type="int" >       48       46       46       47       57 </v>
   <v type="int" >       72       46       47       57       57 </v>
   <v type="int" >       24       42       46       46       57 </v>
   <v type="int" >       48       42       46       47       57 </v>
   <v type="int" >       24       42       42       46       47 </v>
   <v type="int" >       24       42       46       46       47 </v>
   <v type="int" >       24       42       42       46       57 </v>
   <v type="int" >       24       19       25       47       57 </v>
   <v type="int" >       24       19       25       41       47 </v>
   <v type="int" >       24       25       41       47       56 </v>
   <v type="int" >       24       25       42       47       57 </v>
   <v type="int" >       24       25       42       42       47 </v>
   <v type="int" >       24       25       42       47       56 </v>
   <v type="int" >       24       19       36       41       53 </v>
   <v type="int" >       24       20       36       41       53 </v>
   <v type="int" >       24       13       20       36       41 </v>
   <v type="int" >       24       19       25       36       41 </v>
   <v type="int" >       24       25       36       41       56 </v>
   <v type="int" >       24       13       36       41       56 </v>
   <v type="int" >       24       13       20       20       53 </v>
   <v type="int" >       24       13       20       20       35 </v>
   <v type="int" >       24       13       20       35       52 </v>
   <v type="int" >       24       13       20       36       53 </v>
   <v type="int" >       24       13       13       20       36 </v>
   <v type="int" >       24       13       13       20       52 </v>
   <v type="int" >       24       11       20       35       40 </v>
   <v type="int" >       24       11       14       35       40 </v>
   <v type="int" >       24       11       14       21       35 </v>
   <v type="int" >       24       11       13       20       35 </v>
   <v type="int" >       24       11       13       35       52 </v>
   <v type="int" >       24       11       21       35       52 </v>
   <v type="int" >       24       14       31       38       40 </v>
   <v type="int" >       24       10       14       31       38 </v>
   <v type="int" >       24       10       14       38       39 </v>
   <v type="int" >       24       11       14       38       40 </v>
   <v type="int" >       24       11       14       21       38 </v>
   <v type="int" >       24       14       21       38       39 </v>
   <v type="int" >       48       10       16       31       31 </v>
   <v type="int" >       24       10       16       31       32 </v>
   <v type="int" >       48       10       10       31       32 </v>
   <v type="int" >       24       10       31       31       38 </v>
   <v type="int" >       24       10       31       38       39 </v>
   <v type="int" >       24       10       10       31       39 </v>
   <v type="int" >       24       16       16       31       32 </v>
   <v type="int" >       24       16       31       32       32 </v>
   <v type="int" >       24       10       31       32       32 </v>
   <v type="int" >       24       16       31       31       32 </v>
   <v type="int" >       24       10       31       31       32 </v>
   <v type="int" >       24       19       53       54       58 </v>
   <v type="int" >       24       19       25       53       58 </v>
   <v type="int" >       24       25       36       53       58 </v>
   <v type="int" >       24       18       19       24       54 </v>
   <v type="int" >       24       18       19       24       57 </v>
   <v type="int" >       24       18       19       42       57 </v>
   <v type="int" >       24       18       19       54       58 </v>
   <v type="int" >       24       18       19       25       58 </v>
   <v type="int" >       24       18       19       25       42 </v>
   <v type="int" >       24       45       46       49       49 </v>
   <v type="int" >       24       45       46       46       49 </v>
   <v type="int" >       24       45       46       46       47 </v>
   <v type="int" >       24       45       45       46       49 </v>
   <v type="int" >       24       45       45       46       47 </v>
   <v type="int" >       24       45       46       47       47 </v>
   <v type="int" >       24       18       24       46       49 </v>
   <v type="int" >       24       18       24       46       57 </v>
   <v type="int" >       24       18       42       46       57 </v>
   <v type="int" >       24       18       45       46       49 </v>
   <v type="int" >       24       18       45       46       47 </v>
   <v type="int" >       24       18       42       46       47 </v>
   <v type="int" >       24       24       54       57       58 </v>
   <v type="int" >       24       19       54       57       58 </v>
   <v type="int" >       24       19       25       57       58 </v>
   <v type="int" >       24       18       24       57       58 </v>
   <v type="int" >       24       18       42       57       58 </v>
   <v type="int" >       24       25       42       57       58 </v>
   <v type="int" >       24       19       19       25       54 </v>
   <v type="int" >       24       19       19       25       53 </v>
   <v type="int" >       24       19       25       36       53 </v>
   <v type="int" >       24       19       25       54       58 </v>
   <v type="int" >       24       19       25       25       58 </v>
   <v type="int" >       24       19       25       25       36 </v>
   <v type="int" >       24       19       41       53       56 </v>
   <v type="int" >       24       20       41       53       56 </v>
   <v type="int" >       24       13       20       53       56 </v>
   <v type="int" >       24       19       25       53       56 </v>
   <v type="int" >       24       25       36       53       56 </v>
   <v type="int" >       24       13       36       53       56 </v>
   <v type="int" >       24       20       29       41       43 </v>
   <v type="int" >       24       20       29       40       43 </v>
   <v type="int" >       24       11       20       29       40 </v>
   <v type="int" >       24       20       29       41       56 </v>
   <v type="int" >       24       13       20       29       56 </v>
   <v type="int" >       24       11       13       20       29 </v>
   <v type="int" >       24       17       40       43       44 </v>
   <v type="int" >       24       17       31       40       44 </v>
   <v type="int" >       24       31       38       40       44 </v>
   <v type="int" >       24       29       40       43       44 </v>
   <v type="int" >       24       11       29       40       44 </v>
   <v type="int" >       24       11       38       40       44 </v>
   <v type="int" >       48       17       17       30       31 </v>
   <v type="int" >       24       16       17       30       31 </v>
   <v type="int" >       48       16       17       31       31 </v>
   <v type="int" >       24       17       17       31       44 </v>
   <v type="int" >       24       17       31       38       44 </v>
   <v type="int" >       24       17       31       31       38 </v>
   <v type="int" >       24       16       17       30       30 </v>
   <v type="int" >       24       16       16       17       30 </v>
   <v type="int" >       24       16       16       17       31 </v>
   <v type="int" >       24       16       17       17       30 </v>
   <v type="int" >       24       16       17       17       31 </v>
   <v type="int" >       24       24       48       50       54 </v>
   <v type="int" >       24       18       24       50       54 </v>
   <v type="int" >       24       18       50       54       58 </v>
   <v type="int" >       24       23       23       28       49 </v>
   <v type="int" >       24       23       28       49       49 </v>
   <v type="int" >       24       28       45       49       49 </v>
   <v type="int" >       24       23       28       28       49 </v>
   <v type="int" >       24       28       28       45       49 </v>
   <v type="int" >       24       28       45       45       49 </v>
   <v type="int" >       24       23       48       49       50 </v>
   <v type="int" >       24       24       48       49       50 </v>
   <v type="int" >       24       18       24       49       50 </v>
   <v type="int" >       24       23       28       49       50 </v>
   <v type="int" >       24       28       45       49       50 </v>
   <v type="int" >       24       18       45       49       50 </v>
   <v type="int" >       24       18       24       24       48 </v>
   <v type="int" >       24       18       24       24       54 </v>
   <v type="int" >       24       18       24       54       58 </v>
   <v type="int" >       24       18       24       48       50 </v>
   <v type="int" >       24       18       18       24       50 </v>
   <v type="int" >       24       18       18       24       58 </v>
   <v type="int" >       24       24       42       54       57 </v>
   <v type="int" >       24       19       42       54       57 </v>
   <v type="int" >       24       19       25       42       54 </v>
   <v type="int" >       24       18       24       42       54 </v>
   <v type="int" >       24       18       42       54       58 </v>
   <v type="int" >       24       25       42       54       58 </v>
   <v type="int" >       24       19       42       47       57 </v>
   <v type="int" >       24       19       41       42       47 </v>
   <v type="int" >       24       19       41       42       56 </v>
   <v type="int" >       24       19       42       42       57 </v>
   <v type="int" >       24       19       25       42       42 </v>
   <v type="int" >       24       19       25       42       56 </v>
   <v type="int" >       24       18       41       45       47 </v>
   <v type="int" >       24       18       41       43       45 </v>
   <v type="int" >       24       18       29       41       43 </v>
   <v type="int" >       24       18       41       42       47 </v>
   <v type="int" >       24       18       41       42       56 </v>
   <v type="int" >       24       18       29       41       56 </v>
   <v type="int" >       24       28       43       45       50 </v>
   <v type="int" >       24       17       28       43       50 </v>
   <v type="int" >       24       17       43       44       50 </v>
   <v type="int" >       24       18       43       45       50 </v>
   <v type="int" >       24       18       29       43       50 </v>
   <v type="int" >       24       29       43       44       50 </v>
   <v type="int" >       48       17       22       28       28 </v>
   <v type="int" >       24       17       22       28       30 </v>
   <v type="int" >       48       17       17       28       30 </v>
   <v type="int" >       24       17       28       28       50 </v>
   <v type="int" >       24       17       28       44       50 </v>
   <v type="int" >       24       17       17       28       44 </v>
   <v type="int" >       24       22       22       28       30 </v>
   <v type="int" >       24       22       28       30       30 </v>
   <v type="int" >       24       17       28       30       30 </v>
   <v type="int" >       24       22       28       28       30 </v>
   <v type="int" >       24       17       28       28       30 </v>
   <v type="int" >       24       22       23       27       27 </v>
   <v type="int" >       24       22       23       23       27 </v>
   <v type="int" >       24       22       23       23       28 </v>
   <v type="int" >       24       22       22       23       27 </v>
   <v type="int" >       24       22       22       23       28 </v>
   <v type="int" >       48       22       23       28       28 </v>
   <v type="int" >       48       23       23       27       28 </v>
   <v type="int" >       24       23       23       28       48 </v>
   <v type="int" >       24       23       28       48       50 </v>
   <v type="int" >       24       22       23       27       28 </v>
   <v type="int" >       24       23       28       28       50 </v>
   <v type="int" >       24       23       45       48       49 </v>
   <v type="int" >       24       24       45       48       49 </v>
   <v type="int" >       24       18       24       45       48 </v>
   <v type="int" >       24       23       28       45       48 </v>
   <v type="int" >       24       28       45       48       50 </v>
   <v type="int" >       24       18       45       48       50 </v>
   <v type="int" >       24       24       46       47       49 </v>
   <v type="int" >       24       24       46       47       57 </v>
   <v type="int" >       24       24       42       47       57 </v>
   <v type="int" >       24       24       45       47       49 </v>
   <v type="int" >       24       18       24       45       47 </v>
   <v type="int" >       24       18       24       42       47 </v>
   <v type="int" >       36       46       46       57       57 </v>
   <v type="int" >       24       42       47       57       57 </v>
   <v type="int" >       12       42       42       57       57 </v>
   <v type="int" >       24       22       27       27       27 </v>
   <v type="int" >       24       22       22       27       27 </v>
   <v type="int" >       24       22       22       22       27 </v>
   <v type="int" >       24       23       27       27       28 </v>
   <v type="int" >       24       23       27       28       28 </v>
   <v type="int" >       24       22       27       27       28 </v>
   <v type="int" >       24       22       22       27       28 </v>
   <v type="int" >       24       22       27       28       28 </v>
   <v type="int" >       24       23       23       45       49 </v>
   <v type="int" >       24       23       45       49       49 </v>
   <v type="int" >       24       23       45       45       49 </v>
   <v type="int" >       24       23       23       28       45 </v>
   <v type="int" >       24       23       28       28       45 </v>
   <v type="int" >       24       23       28       45       45 </v>
   <v type="int" >       24       46       47       49       49 </v>
   <v type="int" >       24       46       46       47       49 </v>
   <v type="int" >       24       46       47       47       49 </v>
   <v type="int" >       24       45       47       49       49 </v>
   <v type="int" >       24       45       45       47       49 </v>
   <v type="int" >       24       45       47       47       49 </v>
   <v type="int" >       48       46       46       46       57 </v>
   <v type="int" >       24       24       46       46       49 </v>
   <v type="int" >       24       24       46       49       49 </v>
   <v type="int" >       24       24       24       46       49 </v>
   <v type="int" >       24       24       46       46       57 </v>
   <v type="int" >       24       24       46       57       57 </v>
   <v type="int" >       24       24       24       46       57 </v>
   <v type="int" >       24       23       48       49       49 </v>
   <v type="int" >       24       23       23       48       49 </v>
   <v type="int" >       24       23       48       48       49 </v>
   <v type="int" >       24       24       48       49       49 </v>
   <v type="int" >       24       24       24       48       49 </v>
   <v type="int" >       24       24       48       48       49 </v>
   <v type="int" >       72       23       23       23       27 </v>
   <v type="int" >       60       23       23       27       27 </v>
   <v type="int" >       24       23       23       23       48 </v>
   <v type="int" >       12       23       23       48       48 </v>
   <v type="int" >       48       23       27       27       27 </v>
   <v type="int" >       24       24       48       54       58 </v>
   <v type="int" >       24       18       24       48       58 </v>
   <v type="int" >       24       18       48       50       58 </v>
   <v type="int" >       24       19       24       25       54 </v>
   <v type="int" >       24       19       24       25       57 </v>
   <v type="int" >       24       24       25       42       57 </v>
   <v type="int" >       24       24       25       54       58 </v>
   <v type="int" >       24       18       24       25       58 </v>
   <v type="int" >       24       18       24       25       42 </v>
   <v type="int" >       24       19       41       56       57 </v>
   <v type="int" >       24       41       47       56       57 </v>
   <v type="int" >       24       42       47       56       57 </v>
   <v type="int" >       24       19       25       56       57 </v>
   <v type="int" >       24       25       42       56       57 </v>
   <v type="int" >       24       42       42       56       57 </v>
   <v type="int" >       24       29       41       43       47 </v>
   <v type="int" >       24       29       43       45       47 </v>
   <v type="int" >       24       18       29       45       47 </v>
   <v type="int" >       24       29       41       47       56 </v>
   <v type="int" >       24       29       42       47       56 </v>
   <v type="int" >       24       18       29       42       47 </v>
   <v type="int" >       24       17       43       44       45 </v>
   <v type="int" >       24       17       28       44       45 </v>
   <v type="int" >       24       28       44       45       50 </v>
   <v type="int" >       24       29       43       44       45 </v>
   <v type="int" >       24       18       29       44       45 </v>
   <v type="int" >       24       18       44       45       50 </v>
   <v type="int" >       24       17       22       30       30 </v>
   <v type="int" >       24       17       22       22       30 </v>
   <v type="int" >       24       17       22       22       28 </v>
   <v type="int" >       24       17       17       22       30 </v>
   <v type="int" >       24       17       17       22       28 </v>
   <v type="int" >       24       19       36       53       54 </v>
   <v type="int" >       24       19       25       36       54 </v>
   <v type="int" >       24       25       36       54       58 </v>
   <v type="int" >       24       13       19       20       53 </v>
   <v type="int" >       24       13       19       20       41 </v>
   <v type="int" >       24       13       19       41       56 </v>
   <v type="int" >       24       13       19       36       53 </v>
   <v type="int" >       24       13       19       25       36 </v>
   <v type="int" >       24       13       19       25       56 </v>
   <v type="int" >       24       11       20       40       41 </v>
   <v type="int" >       24       11       40       41       43 </v>
   <v type="int" >       24       11       29       41       43 </v>
   <v type="int" >       24       11       13       20       41 </v>
   <v type="int" >       24       11       13       41       56 </v>
   <v type="int" >       24       11       29       41       56 </v>
   <v type="int" >       24       31       38       40       43 </v>
   <v type="int" >       24       17       31       38       43 </v>
   <v type="int" >       24       17       38       43       44 </v>
   <v type="int" >       24       11       38       40       43 </v>
   <v type="int" >       24       11       29       38       43 </v>
   <v type="int" >       24       29       38       43       44 </v>
   <v type="int" >       24       16       16       30       31 </v>
   <v type="int" >       24       16       30       30       31 </v>
   <v type="int" >       24       17       30       30       31 </v>
   <v type="int" >       24       16       30       31       31 </v>
   <v type="int" >       24       17       30       31       31 </v>
   <v type="int" >       24       20       35       52       53 </v>
   <v type="int" >       24       13       20       52       53 </v>
   <v type="int" >       24       13       36       52       53 </v>
   <v type="int" >       24       14       20       21       35 </v>
   <v type="int" >       24       14       20       21       40 </v>
   <v type="int" >       24       11       20       21       40 </v>
   <v type="int" >       24       20       21       35       52 </v>
   <v type="int" >       24       13       20       21       52 </v>
   <v type="int" >       24       11       13       20       21 </v>
   <v type="int" >       24       10       14       39       40 </v>
   <v type="int" >       24       10       31       39       40 </v>
   <v type="int" >       24       31       38       39       40 </v>
   <v type="int" >       24       14       21       39       40 </v>
   <v type="int" >       24       11       21       39       40 </v>
   <v type="int" >       24       11       38       39       40 </v>
   <v type="int" >       24       10       16       32       32 </v>
   <v type="int" >       24       10       16       16       32 </v>
   <v type="int" >       24       10       16       16       31 </v>
   <v type="int" >       24       10       10       16       32 </v>
   <v type="int" >       24       10       10       16       31 </v>
   <v type="int" >       24        3       14       34       35 </v>
   <v type="int" >       24        3       14       21       35 </v>
   <v type="int" >       24        3       21       35       52 </v>
   <v type="int" >       24        7       14       15       34 </v>
   <v type="int" >       24        7       10       14       15 </v>
   <v type="int" >       24        7       10       14       39 </v>
   <v type="int" >       24        3        7       14       34 </v>
   <v type="int" >       24        3        7       14       21 </v>
   <v type="int" >       24        7       14       21       39 </v>
   <v type="int" >       24        9        9       15       32 </v>
   <v type="int" >       24        9       15       32       32 </v>
   <v type="int" >       24       10       15       32       32 </v>
   <v type="int" >       24        9       15       15       32 </v>
   <v type="int" >       24       10       15       15       32 </v>
   <v type="int" >       24        2       15       33       34 </v>
   <v type="int" >       24        7       15       33       34 </v>
   <v type="int" >       24        3        7       33       34 </v>
   <v type="int" >       24        2        8        8        9 </v>
   <v type="int" >       24        2        8        9        9 </v>
   <v type="int" >       24        2        9        9       15 </v>
   <v type="int" >       24        2        2        8        9 </v>
   <v type="int" >       24        2        2        9       15 </v>
   <v type="int" >       36        1        1        8        8 </v>
   <v type="int" >       48        1        8        8        8 </v>
   <v type="int" >       24        2        8        8        8 </v>
   <v type="int" >       24        1        1        1        8 </v>
   <v type="int" >       24        3        7       33       51 </v>
   <v type="int" >       24        3        6        7       21 </v>
   <v type="int" >       24        6        7       21       39 </v>
   <v type="int" >       24        3        6        7       51 </v>
   <v type="int" >       24       11       21       39       55 </v>
   <v type="int" >       24       11       38       39       55 </v>
   <v type="int" >       24        6       21       39       55 </v>
   <v type="int" >       24       11       29       37       38 </v>
   <v type="int" >       24       29       37       38       44 </v>
   <v type="int" >       24       11       37       38       55 </v>
   <v type="int" >       24       18       29       44       58 </v>
   <v type="int" >       24       18       44       50       58 </v>
   <v type="int" >       24       29       37       44       58 </v>
   <v type="int" >       24       24       24       48       54 </v>
   <v type="int" >       24       24       48       48       54 </v>
   <v type="int" >       24       24       48       54       54 </v>
   <v type="int" >       24       18       29       37       50 </v>
   <v type="int" >       24       29       37       44       50 </v>
   <v type="int" >       24       18       37       50       58 </v>
   <v type="int" >       24       11       29       44       55 </v>
   <v type="int" >       24       11       38       44       55 </v>
   <v type="int" >       24       29       37       44       55 </v>
   <v type="int" >       24        6       11       21       38 </v>
   <v type="int" >       24        6       21       38       39 </v>
   <v type="int" >       24        6       11       38       55 </v>
   <v type="int" >       24        3       21       39       51 </v>
   <v type="int" >       24        3        7       39       51 </v>
   <v type="int" >       24        6       21       39       51 </v>
   <v type="int" >       24        3        3        7        7 </v>
   <v type="int" >       24        3        7        7       33 </v>
   <v type="int" >       24        3        3        7       51 </v>
   <v type="int" >       24        2       15       15       34 </v>
   <v type="int" >       24        2        2       15       34 </v>
   <v type="int" >       24        2       15       34       34 </v>
   <v type="int" >       24        3        4       21       52 </v>
   <v type="int" >       24        3        4        6       21 </v>
   <v type="int" >       24        3        4        6       51 </v>
   <v type="int" >       24       13       21       26       52 </v>
   <v type="int" >       24       11       13       21       26 </v>
   <v type="int" >       24       11       21       26       55 </v>
   <v type="int" >       24        4       21       26       52 </v>
   <v type="int" >       24        4        6       21       26 </v>
   <v type="int" >       24        6       21       26       55 </v>
   <v type="int" >       24       11       12       13       56 </v>
   <v type="int" >       24       11       12       29       56 </v>
   <v type="int" >       24       11       12       29       37 </v>
   <v type="int" >       24       11       12       13       26 </v>
   <v type="int" >       24       11       12       26       55 </v>
   <v type="int" >       24       11       12       37       55 </v>
   <v type="int" >       24       25       29       42       56 </v>
   <v type="int" >       24       18       25       29       42 </v>
   <v type="int" >       24       18       25       29       58 </v>
   <v type="int" >       24       12       25       29       56 </v>
   <v type="int" >       24       12       25       29       37 </v>
   <v type="int" >       24       25       29       37       58 </v>
   <v type="int" >       24       19       24       57       57 </v>
   <v type="int" >       24       19       24       24       57 </v>
   <v type="int" >       24       19       24       24       54 </v>
   <v type="int" >       24       19       19       24       57 </v>
   <v type="int" >       24       19       19       24       54 </v>
   <v type="int" >       24       19       24       54       54 </v>
   <v type="int" >       24       12       18       42       56 </v>
   <v type="int" >       24       12       18       29       56 </v>
   <v type="int" >       24       12       18       29       37 </v>
   <v type="int" >       24       12       18       25       42 </v>
   <v type="int" >       24       12       18       25       58 </v>
   <v type="int" >       24       12       18       37       58 </v>
   <v type="int" >       24       13       26       29       56 </v>
   <v type="int" >       24       11       13       26       29 </v>
   <v type="int" >       24       11       26       29       55 </v>
   <v type="int" >       24       12       26       29       56 </v>
   <v type="int" >       24       12       26       29       37 </v>
   <v type="int" >       24       26       29       37       55 </v>
   <v type="int" >       24        4       11       13       52 </v>
   <v type="int" >       24        4       11       21       52 </v>
   <v type="int" >       24        4        6       11       21 </v>
   <v type="int" >       24        4       11       13       26 </v>
   <v type="int" >       24        4       11       26       55 </v>
   <v type="int" >       24        4        6       11       55 </v>
   <v type="int" >       24        6       21       21       52 </v>
   <v type="int" >       48        3        6       21       21 </v>
   <v type="int" >       48        3        6       21       51 </v>
   <v type="int" >       24        4        6       21       52 </v>
   <v type="int" >       24        4        6        6       21 </v>
   <v type="int" >       24        6        6       21       51 </v>
   <v type="int" >       24        3       21       21       39 </v>
   <v type="int" >       24        3        7       21       39 </v>
   <v type="int" >       24        3        3        7       21 </v>
   <v type="int" >       24        3        3       21       51 </v>
   <v type="int" >       24       10       10       14       15 </v>
   <v type="int" >       24       10       14       15       15 </v>
   <v type="int" >       24       14       15       15       34 </v>
   <v type="int" >       24       10       14       14       15 </v>
   <v type="int" >       24       14       14       15       34 </v>
   <v type="int" >       24       14       15       34       34 </v>
   <v type="int" >       24       13       36       52       60 </v>
   <v type="int" >       24       13       26       52       60 </v>
   <v type="int" >       24        4       26       52       60 </v>
   <v type="int" >       24       12       13       25       36 </v>
   <v type="int" >       24       12       13       25       56 </v>
   <v type="int" >       24       12       12       13       56 </v>
   <v type="int" >       24       12       13       36       60 </v>
   <v type="int" >       24       12       13       26       60 </v>
   <v type="int" >       24       12       12       13       26 </v>
   <v type="int" >       24       25       42       56       56 </v>
   <v type="int" >       12       42       42       56       56 </v>
   <v type="int" >       24       12       25       56       56 </v>
   <v type="int" >       12       12       12       56       56 </v>
   <v type="int" >       24       41       47       47       57 </v>
   <v type="int" >       24       41       47       57       57 </v>
   <v type="int" >       24       19       41       57       57 </v>
   <v type="int" >       24       41       41       47       57 </v>
   <v type="int" >       24       19       41       41       57 </v>
   <v type="int" >       24       19       19       41       57 </v>
   <v type="int" >       24       12       25       42       42 </v>
   <v type="int" >       48       12       25       42       56 </v>
   <v type="int" >       24       12       12       42       56 </v>
   <v type="int" >       24       12       42       42       56 </v>
   <v type="int" >       24       12       12       25       42 </v>
   <v type="int" >       24       25       36       56       60 </v>
   <v type="int" >       24       13       36       56       60 </v>
   <v type="int" >       24       13       26       56       60 </v>
   <v type="int" >       24       12       25       56       60 </v>
   <v type="int" >       24       12       12       56       60 </v>
   <v type="int" >       24       12       26       56       60 </v>
   <v type="int" >       24       13       13       26       36 </v>
   <v type="int" >       24       13       13       26       52 </v>
   <v type="int" >       24        4       13       26       52 </v>
   <v type="int" >       24       13       26       36       60 </v>
   <v type="int" >       24       13       26       26       60 </v>
   <v type="int" >       24        4       13       26       26 </v>
   <v type="int" >       24       11       13       52       55 </v>
   <v type="int" >       24       11       21       52       55 </v>
   <v type="int" >       24        6       21       52       55 </v>
   <v type="int" >       24       13       26       52       55 </v>
   <v type="int" >       24        4       26       52       55 </v>
   <v type="int" >       24        4        6       52       55 </v>
   <v type="int" >       24       11       11       21       38 </v>
   <v type="int" >       24       11       21       38       39 </v>
   <v type="int" >       24       11       21       21       39 </v>
   <v type="int" >       24       11       11       21       55 </v>
   <v type="int" >       24        6       11       21       55 </v>
   <v type="int" >       24        6       11       21       21 </v>
   <v type="int" >       24       10       31       31       40 </v>
   <v type="int" >       24       10       10       31       40 </v>
   <v type="int" >       24       10       10       14       40 </v>
   <v type="int" >       24       10       31       40       40 </v>
   <v type="int" >       24       10       14       40       40 </v>
   <v type="int" >       24       10       14       14       40 </v>
   <v type="int" >       24       25       36       37       58 </v>
   <v type="int" >       24       12       25       36       37 </v>
   <v type="int" >       24       12       36       37       60 </v>
   <v type="int" >       24       43       45       45       47 </v>
   <v type="int" >       24       43       45       47       47 </v>
   <v type="int" >       24       41       43       47       47 </v>
   <v type="int" >       24       43       43       45       47 </v>
   <v type="int" >       24       41       43       43       47 </v>
   <v type="int" >       24       41       41       43       47 </v>
   <v type="int" >       24       18       37       42       58 </v>
   <v type="int" >       24       25       37       42       58 </v>
   <v type="int" >       24       12       25       37       42 </v>
   <v type="int" >       24       18       29       37       42 </v>
   <v type="int" >       24       29       37       42       56 </v>
   <v type="int" >       24       12       37       42       56 </v>
   <v type="int" >       24       12       25       25       58 </v>
   <v type="int" >       24       12       25       25       36 </v>
   <v type="int" >       24       12       25       36       60 </v>
   <v type="int" >       24       12       25       37       58 </v>
   <v type="int" >       24       12       12       25       37 </v>
   <v type="int" >       24       12       12       25       60 </v>
   <v type="int" >       24       12       25       36       56 </v>
   <v type="int" >       24       12       13       36       56 </v>
   <v type="int" >       24       12       13       26       36 </v>
   <v type="int" >       24       12       12       25       36 </v>
   <v type="int" >       24       12       12       36       60 </v>
   <v type="int" >       24       12       26       36       60 </v>
   <v type="int" >       24       13       29       37       56 </v>
   <v type="int" >       24       11       13       29       37 </v>
   <v type="int" >       24       11       13       37       55 </v>
   <v type="int" >       24       12       13       37       56 </v>
   <v type="int" >       24       12       13       26       37 </v>
   <v type="int" >       24       13       26       37       55 </v>
   <v type="int" >       24       11       29       29       44 </v>
   <v type="int" >       24       11       29       38       44 </v>
   <v type="int" >       24       11       11       29       38 </v>
   <v type="int" >       24       11       29       29       37 </v>
   <v type="int" >       24       11       29       37       55 </v>
   <v type="int" >       24       11       11       29       55 </v>
   <v type="int" >       24       17       17       31       43 </v>
   <v type="int" >       24       17       31       31       43 </v>
   <v type="int" >       24       31       31       40       43 </v>
   <v type="int" >       24       17       31       43       43 </v>
   <v type="int" >       24       31       40       43       43 </v>
   <v type="int" >       24       31       40       40       43 </v>
   <v type="int" >       24       17       28       28       45 </v>
   <v type="int" >       24       17       28       45       45 </v>
   <v type="int" >       24       17       43       45       45 </v>
   <v type="int" >       24       17       17       28       45 </v>
   <v type="int" >       24       17       17       43       45 </v>
   <v type="int" >       24       17       43       43       45 </v>
   <v type="int" >       24       18       18       29       50 </v>
   <v type="int" >       24       18       18       29       58 </v>
   <v type="int" >       24       18       29       37       58 </v>
   <v type="int" >       24       18       29       44       50 </v>
   <v type="int" >       24       18       29       29       44 </v>
   <v type="int" >       24       18       29       29       37 </v>
   <v type="int" >       24       18       42       56       58 </v>
   <v type="int" >       24       25       42       56       58 </v>
   <v type="int" >       24       12       25       56       58 </v>
   <v type="int" >       24       18       29       56       58 </v>
   <v type="int" >       24       29       37       56       58 </v>
   <v type="int" >       24       12       37       56       58 </v>
   <v type="int" >       12       25       25       42       42 </v>
   <v type="int" >       24       25       25       42       56 </v>
   <v type="int" >       24       12       25       25       56 </v>
   <v type="int" >       12       12       12       25       25 </v>
   <v type="int" >       24       22       22       22       30 </v>
   <v type="int" >       24       22       22       30       30 </v>
   <v type="int" >       24       22       30       30       30 </v>
   <v type="int" >       24       28       28       43       45 </v>
   <v type="int" >       24       28       43       45       45 </v>
   <v type="int" >       24       28       43       43       45 </v>
   <v type="int" >       24       17       28       28       43 </v>
   <v type="int" >       24       17       17       28       43 </v>
   <v type="int" >       24       17       28       43       43 </v>
   <v type="int" >       24       41       45       45       47 </v>
   <v type="int" >       24       41       45       47       47 </v>
   <v type="int" >       24       41       41       45       47 </v>
   <v type="int" >       24       41       43       45       45 </v>
   <v type="int" >       24       41       43       43       45 </v>
   <v type="int" >       24       41       41       43       45 </v>
   <v type="int" >       24       19       47       47       57 </v>
   <v type="int" >       24       19       47       57       57 </v>
   <v type="int" >       24       19       19       47       57 </v>
   <v type="int" >       24       19       41       47       47 </v>
   <v type="int" >       24       19       41       41       47 </v>
   <v type="int" >       24       19       19       41       47 </v>
   <v type="int" >       24       24       54       57       57 </v>
   <v type="int" >       24       24       24       54       57 </v>
   <v type="int" >       24       24       54       54       57 </v>
   <v type="int" >       24       19       54       57       57 </v>
   <v type="int" >       24       19       19       54       57 </v>
   <v type="int" >       24       19       54       54       57 </v>
   <v type="int" >       24       24       24       24       48 </v>
   <v type="int" >       12       24       24       48       48 </v>
   <v type="int" >       24       24       24       24       54 </v>
   <v type="int" >       12       24       24       54       54 </v>
   <v type="int" >       48       23       23       23       49 </v>
   <v type="int" >       48       23       23       49       49 </v>
   <v type="int" >       48       23       49       49       49 </v>
   <v type="int" >       24       25       36       58       60 </v>
   <v type="int" >       24       12       25       58       60 </v>
   <v type="int" >       24       12       37       58       60 </v>
   <v type="int" >       24       13       25       26       36 </v>
   <v type="int" >       24       13       25       26       56 </v>
   <v type="int" >       24       12       25       26       56 </v>
   <v type="int" >       24       25       26       36       60 </v>
   <v type="int" >       24       12       25       26       60 </v>
   <v type="int" >       24       12       12       25       26 </v>
   <v type="int" >       24       11       13       55       56 </v>
   <v type="int" >       24       11       29       55       56 </v>
   <v type="int" >       24       29       37       55       56 </v>
   <v type="int" >       24       13       26       55       56 </v>
   <v type="int" >       24       12       26       55       56 </v>
   <v type="int" >       24       12       37       55       56 </v>
   <v type="int" >       24       17       31       31       40 </v>
   <v type="int" >       24       17       17       31       40 </v>
   <v type="int" >       24       17       17       40       43 </v>
   <v type="int" >       24       17       31       40       40 </v>
   <v type="int" >       24       17       40       40       43 </v>
   <v type="int" >       24       17       40       43       43 </v>
   <v type="int" >       24        4       13       36       52 </v>
   <v type="int" >       24        4       13       26       36 </v>
   <v type="int" >       24        4       26       36       60 </v>
   <v type="int" >       24        6       13       21       52 </v>
   <v type="int" >       24        6       11       13       21 </v>
   <v type="int" >       24        6       11       13       55 </v>
   <v type="int" >       24        4        6       13       52 </v>
   <v type="int" >       24        4        6       13       26 </v>
   <v type="int" >       24        6       13       26       55 </v>
   <v type="int" >       24       10       10       14       31 </v>
   <v type="int" >       24       10       14       31       31 </v>
   <v type="int" >       24       14       31       31       40 </v>
   <v type="int" >       24       10       14       14       31 </v>
   <v type="int" >       24       14       14       31       40 </v>
   <v type="int" >       24       14       31       40       40 </v>
   <v type="int" >       24        3       21       51       52 </v>
   <v type="int" >       24        6       21       51       52 </v>
   <v type="int" >       24        4        6       51       52 </v>
   <v type="int" >       24       10       15       15       34 </v>
   <v type="int" >       24       10       10       15       34 </v>
   <v type="int" >       24       10       10       14       34 </v>
   <v type="int" >       24       10       15       34       34 </v>
   <v type="int" >       24       10       14       34       34 </v>
   <v type="int" >       24       10       14       14       34 </v>
   <v type="int" >       12        2        2       15       15 </v>
   <v type="int" >       24        2       15       15       15 </v>
   <v type="int" >       24       15       15       15       34 </v>
   <v type="int" >       12       15       15       34       34 </v>
   <v type="int" >       24        8        8        8        9 </v>
   <v type="int" >       24        8        8        9        9 </v>
   <v type="int" >       24        8        9        9        9 </v>
   <v type="int" >       24        4        6       51       59 </v>
   <v type="int" >       24        4        5        6       26 </v>
   <v type="int" >       24        5        6       26       55 </v>
   <v type="int" >       24        4        5        6       59 </v>
   <v type="int" >       24       12       26       55       60 </v>
   <v type="int" >       24       12       37       55       60 </v>
   <v type="int" >       24        5       26       55       60 </v>
   <v type="int" >       24       19       19       53       54 </v>
   <v type="int" >       24       19       53       54       54 </v>
   <v type="int" >       24       19       53       53       54 </v>
   <v type="int" >       24        5       12       26       37 </v>
   <v type="int" >       24        5       26       37       55 </v>
   <v type="int" >       24        5       12       37       60 </v>
   <v type="int" >       24        4       26       55       59 </v>
   <v type="int" >       24        4        6       55       59 </v>
   <v type="int" >       24        5       26       55       59 </v>
   <v type="int" >       24        4        4        6        6 </v>
   <v type="int" >       24        4        6        6       51 </v>
   <v type="int" >       24        4        4        6       59 </v>
   <v type="int" >       24       14       14       34       35 </v>
   <v type="int" >       24       14       34       34       35 </v>
   <v type="int" >       24       14       34       35       35 </v>
   <v type="int" >       24        4        5       26       60 </v>
   <v type="int" >       24        4        5        5       26 </v>
   <v type="int" >       24        4        5        5       59 </v>
   <v type="int" >       24       12       26       26       60 </v>
   <v type="int" >       12       12       12       26       26 </v>
   <v type="int" >       48        5       26       26       60 </v>
   <v type="int" >       12        5        5       26       26 </v>
   <v type="int" >       24       19       20       41       41 </v>
   <v type="int" >       24       19       19       20       41 </v>
   <v type="int" >       24       19       19       20       53 </v>
   <v type="int" >       24       19       20       20       41 </v>
   <v type="int" >       24       19       20       20       53 </v>
   <v type="int" >       24       19       20       53       53 </v>
   <v type="int" >       24        5       12       12       60 </v>
   <v type="int" >       72        5       12       26       60 </v>
   <v type="int" >       24        5        5       12       26 </v>
   <v type="int" >       24        5       12       12       26 </v>
   <v type="int" >       24        5        5       12       60 </v>
   <v type="int" >       48        4        5       26       26 </v>
   <v type="int" >       48        4        5       26       59 </v>
   <v type="int" >       24        5        5       26       60 </v>
   <v type="int" >       24        5        5        5       26 </v>
   <v type="int" >       24        5        5       26       59 </v>
   <v type="int" >       24        4       26       26       55 </v>
   <v type="int" >       24        4        6       26       55 </v>
   <v type="int" >       24        4        4        6       26 </v>
   <v type="int" >       24        4        4       26       59 </v>
   <v type="int" >       24       14       20       40       40 </v>
   <v type="int" >       24       14       14       20       40 </v>
   <v type="int" >       24       14       14       20       35 </v>
   <v type="int" >       24       14       20       20       40 </v>
   <v type="int" >       24       14       20       20       35 </v>
   <v type="int" >       24       14       20       35       35 </v>
   <v type="int" >       24       40       41       43       43 </v>
   <v type="int" >       24       40       41       41       43 </v>
   <v type="int" >       24       20       40       41       41 </v>
   <v type="int" >       24       40       40       41       43 </v>
   <v type="int" >       24       20       40       40       41 </v>
   <v type="int" >       24       20       20       40       41 </v>
   <v type="int" >       24       12       12       26       37 </v>
   <v type="int" >       24       12       12       26       60 </v>
   <v type="int" >       24       12       26       37       55 </v>
   <v type="int" >       24       12       26       26       55 </v>
   <v type="int" >       24        5       12       26       26 </v>
   <v type="int" >       12       12       12       60       60 </v>
   <v type="int" >       24       12       26       60       60 </v>
   <v type="int" >       24        5       26       60       60 </v>
   <v type="int" >       12        5        5       60       60 </v>
   <v type="int" >       24       16       30       30       30 </v>
   <v type="int" >       24       16       16       30       30 </v>
   <v type="int" >       24       16       16       16       30 </v>
   <v type="int" >       24       20       41       43       43 </v>
   <v type="int" >       24       20       41       41       43 </v>
   <v type="int" >       24       20       20       41       43 </v>
   <v type="int" >       24       20       40       43       43 </v>
   <v type="int" >       24       20       40       40       43 </v>
   <v type="int" >       24       20       20       40       43 </v>
   <v type="int" >       24       19       41       41       53 </v>
   <v type="int" >       24       19       19       41       53 </v>
   <v type="int" >       24       19       41       53       53 </v>
   <v type="int" >       24       20       41       41       53 </v>
   <v type="int" >       24       20       20       41       53 </v>
   <v type="int" >       24       20       41       53       53 </v>
   <v type="int" >       24       19       19       19       54 </v>
   <v type="int" >       12       19       19       54       54 </v>
   <v type="int" >       24       19       19       19       53 </v>
   <v type="int" >       12       19       19       53       53 </v>
   <v type="int" >       48       46       49       49       49 </v>
   <v type="int" >       48       46       46       49       49 </v>
   <v type="int" >       48       46       46       46       49 </v>
   <v type="int" >       24        4       26       59       60 </v>
   <v type="int" >       24        5       26       59       60 </v>
   <v type="int" >       24        5        5       59       60 </v>
   <v type="int" >       24       14       14       35       40 </v>
   <v type="int" >       24       14       35       40       40 </v>
   <v type="int" >       24       20       35       40       40 </v>
   <v type="int" >       24       14       35       35       40 </v>
   <v type="int" >       24       20       35       35       40 </v>
   <v type="int" >       24       20       20       35       40 </v>
   <v type="int" >       12       14       14       34       34 </v>
   <v type="int" >       24       14       14       14       34 </v>
   <v type="int" >       24       14       14       14       35 </v>
   <v type="int" >       12       14       14       35       35 </v>
   <v type="int" >       24        9        9        9       32 </v>
   <v type="int" >       24        9        9       32       32 </v>
   <v type="int" >       24        9       32       32       32 </v>
   <v type="int" >       12        5        5       59       59 </v>
   <v type="int" >       24       20       20       35       53 </v>
   <v type="int" >       24       20       35       53       53 </v>
   <v type="int" >       24       20       35       35       53 </v>
   <v type="int" >       12        5        5        5        5 </v>
   <v type="int" >       24        5        5        5       59 </v>
   <v type="int" >       24       16       16       16       32 </v>
   <v type="int" >       24       16       16       32       32 </v>
   <v type="int" >       24       16       32       32       32 </v>
   <v type="int" >       24       20       20       20       53 </v>
   <v type="int" >       12       20       20       53       53 </v>
   <v type="int" >       24       20       20       20       35 </v>
   <v type="int" >       12       20       20       35       35 </v>
   <v type="int" >       72       46       46       46       46 </v>
   <v type="int" >       12        1        1        1        1 </v>
   <v type="int" >       36       27       27       27       27 </v>
  </varray>
  <i name="volumeweight">      0.00004069 </i>
 </kpoints>
 <parameters>
  <separator name="general" >
   <i type="string" name="SYSTEM">RubyVaspy :: Si</i>
   <i type="logical" name="LCOMPAT"> F  </i>
  </separator>
  <separator name="electronic" >
   <i type="string" name="PREC">accura</i>
   <i name="ENMAX">    520.00000000</i>
   <i name="ENAUG">    322.06900000</i>
   <i name="EDIFF">      0.00000200</i>
   <i type="int" name="IALGO">    68</i>
   <i type="int" name="IWAVPR">    11</i>
   <i type="int" name="NBANDS">     9</i>
   <i name="NELECT">      8.00000000</i>
   <separator name="electronic smearing" >
    <i type="int" name="ISMEAR">    -5</i>
    <i name="SIGMA">      0.05000000</i>
   </separator>
   <separator name="electronic projectors" >
    <i type="logical" name="LREAL"> T  </i>
    <v name="ROPT">     -0.00025000</v>
    <i type="int" name="LMAXPAW">  -100</i>
    <i type="int" name="LMAXMIX">     2</i>
   </separator>
   <separator name="electronic startup" >
    <i type="int" name="ISTART">     1</i>
    <i type="int" name="ICHARG">     1</i>
    <i type="int" name="INIWAV">     1</i>
   </separator>
   <separator name="electronic spin" >
    <i type="int" name="ISPIN">     2</i>
    <i type="logical" name="LNONCOLLINEAR"> F  </i>
    <v name="MAGMOM">      0.60000000      0.60000000</v>
    <i name="NUPDOWN">     -1.00000000</i>
    <i type="logical" name="LSORBIT"> F  </i>
    <v name="SAXIS">      0.00000000      0.00000000      1.00000000</v>
    <i type="logical" name="LSPIRAL"> F  </i>
    <v name="QSPIRAL">      0.00000000      0.00000000      0.00000000</v>
    <i type="logical" name="LZEROZ"> F  </i>
   </separator>
   <separator name="electronic exchange-correlation" >
    <i type="logical" name="LASPH"> F  </i>
    <i type="logical" name="LMETAGGA"> F  </i>
   </separator>
   <separator name="electronic convergence" >
    <i type="int" name="NELM">   100</i>
    <i type="int" name="NELMDL">     0</i>
    <i type="int" name="NELMIN">     3</i>
    <i name="ENINI">    520.00000000</i>
    <separator name="electronic convergence detail" >
     <i type="logical" name="LDIAG"> T  </i>
     <i name="WEIMIN">      0.00100000</i>
     <i name="EBREAK">      0.00000006</i>
     <i name="DEPER">      0.30000000</i>
     <i type="int" name="NRMM">     4</i>
     <i name="TIME">      0.40000000</i>
    </separator>
   </separator>
   <separator name="electronic mixer" >
    <i name="AMIX">      0.40000000</i>
    <i name="BMIX">      1.00000000</i>
    <i name="AMIN">      0.10000000</i>
    <i name="AMIX_MAG">      1.60000000</i>
    <i name="BMIX_MAG">      1.00000000</i>
    <separator name="electronic mixer details" >
     <i type="int" name="IMIX">     4</i>
     <i type="int" name="MAXMIX">   -45</i>
     <i name="WC">    100.00000000</i>
     <i type="int" name="INIMIX">     1</i>
     <i type="int" name="MIXPRE">     1</i>
     <i type="int" name="MREMOVE">     5</i>
    </separator>
   </separator>
   <separator name="electronic dipolcorrection" >
    <i type="logical" name="LDIPOL"> F  </i>
    <i type="logical" name="LMONO"> F  </i>
    <i type="int" name="IDIPOL">     0</i>
    <i name="EPSILON">      1.00000000</i>
    <v name="DIPOL">   -100.00000000   -100.00000000   -100.00000000</v>
    <i name="EFIELD">      0.00000000</i>
   </separator>
  </separator>
  <separator name="grids" >
   <i type="int" name="NGX">    30</i>
   <i type="int" name="NGY">    30</i>
   <i type="int" name="NGZ">    30</i>
   <i type="int" name="NGXF">    60</i>
   <i type="int" name="NGYF">    60</i>
   <i type="int" name="NGZF">    60</i>
   <i type="logical" name="ADDGRID"> F  </i>
  </separator>
  <separator name="ionic" >
   <i type="int" name="NSW">   200</i>
   <i type="int" name="IBRION">     1</i>
   <i type="int" name="ISIF">     3</i>
   <i name="PSTRESS">      0.00000000</i>
   <i name="EDIFFG">      0.00002000</i>
   <i type="int" name="NFREE">     0</i>
   <i name="POTIM">      0.50000000</i>
   <i name="SMASS">     -3.00000000</i>
  </separator>
  <separator name="ionic md" >
   <i name="TEBEG">      0.00010000</i>
   <i name="TEEND">      0.00010000</i>
[...]
       <r>    7.5904    0.0000 </r>
       <r>    9.3348    0.0000 </r>
       <r>    9.7235    0.0000 </r>
       <r>   10.2369    0.0000 </r>
       <r>   12.1905    0.0000 </r>
      </set>
      <set comment="kpoint 10">
       <r>   -5.2274    1.0000 </r>
       <r>    1.9497    1.0000 </r>
       <r>    3.5927    1.0000 </r>
       <r>    4.3821    1.0000 </r>
       <r>    7.7580    0.0000 </r>
       <r>    9.4451    0.0000 </r>
       <r>   10.0584    0.0000 </r>
       <r>   10.5154    0.0000 </r>
       <r>   13.2389    0.0000 </r>
      </set>
      <set comment="kpoint 11">
       <r>   -4.3882    1.0000 </r>
       <r>    0.1039    1.0000 </r>
       <r>    3.0999    1.0000 </r>
       <r>    3.9747    1.0000 </r>
       <r>    7.9508    0.0000 </r>
       <r>    9.3708    0.0000 </r>
       <r>   10.5436    0.0000 </r>
       <r>   10.8076    0.0000 </r>
       <r>   14.6956    0.0000 </r>
      </set>
      <set comment="kpoint 12">
       <r>   -3.6325    1.0000 </r>
       <r>   -1.0966    1.0000 </r>
       <r>    2.8126    1.0000 </r>
       <r>    3.8823    1.0000 </r>
       <r>    8.0201    0.0000 </r>
       <r>    9.0653    0.0000 </r>
       <r>   10.3891    0.0000 </r>
       <r>   12.8225    0.0000 </r>
       <r>   14.1641    0.0000 </r>
      </set>
      <set comment="kpoint 13">
       <r>   -4.0868    1.0000 </r>
       <r>   -0.4118    1.0000 </r>
       <r>    2.7400    1.0000 </r>
       <r>    4.1651    1.0000 </r>
       <r>    8.2996    0.0000 </r>
       <r>    8.9780    0.0000 </r>
       <r>   10.3353    0.0000 </r>
       <r>   12.0750    0.0000 </r>
       <r>   14.0470    0.0000 </r>
      </set>
      <set comment="kpoint 14">
       <r>   -4.9811    1.0000 </r>
       <r>    1.3041    1.0000 </r>
       <r>    3.0405    1.0000 </r>
       <r>    4.6693    1.0000 </r>
       <r>    8.6110    0.0000 </r>
       <r>    8.9149    0.0000 </r>
       <r>   10.2139    0.0000 </r>
       <r>   10.6844    0.0000 </r>
       <r>   12.5801    0.0000 </r>
      </set>
      <set comment="kpoint 15">
       <r>   -5.6189    1.0000 </r>
       <r>    2.7721    1.0000 </r>
       <r>    4.1594    1.0000 </r>
       <r>    5.0399    1.0000 </r>
       <r>    8.1518    0.0000 </r>
       <r>    8.8160    0.0000 </r>
       <r>    9.5366    0.0000 </r>
       <r>   10.7609    0.0000 </r>
       <r>   12.3381    0.0000 </r>
      </set>
      <set comment="kpoint 16">
       <r>   -4.8294    1.0000 </r>
       <r>    1.4469    1.0000 </r>
       <r>    3.4523    1.0000 </r>
       <r>    3.5733    1.0000 </r>
       <r>    6.7837    0.0000 </r>
       <r>    8.4347    0.0000 </r>
       <r>   11.5756    0.0000 </r>
       <r>   11.7178    0.0000 </r>
       <r>   14.3823    0.0000 </r>
      </set>
      <set comment="kpoint 17">
       <r>   -4.0827    1.0000 </r>
       <r>    0.2173    1.0000 </r>
       <r>    2.6705    1.0000 </r>
       <r>    3.2288    1.0000 </r>
       <r>    7.0960    0.0000 </r>
       <r>    8.2738    0.0000 </r>
       <r>   11.5372    0.0000 </r>
       <r>   12.7054    0.0000 </r>
       <r>   15.4832    0.0000 </r>
      </set>
      <set comment="kpoint 18">
       <r>   -3.1911    1.0000 </r>
       <r>   -0.9719    1.0000 </r>
       <r>    1.8357    1.0000 </r>
       <r>    3.1975    1.0000 </r>
       <r>    7.3296    0.0000 </r>
       <r>    9.9267    0.0000 </r>
       <r>   11.1137    0.0000 </r>
       <r>   12.6190    0.0000 </r>
       <r>   14.4653    0.0000 </r>
      </set>
      <set comment="kpoint 19">
       <r>   -3.2621    1.0000 </r>
       <r>   -0.8785    1.0000 </r>
       <r>    1.4852    1.0000 </r>
       <r>    3.5395    1.0000 </r>
       <r>    7.7303    0.0000 </r>
       <r>   10.6557    0.0000 </r>
       <r>   11.9569    0.0000 </r>
       <r>   12.2402    0.0000 </r>
       <r>   12.6736    0.0000 </r>
      </set>
      <set comment="kpoint 20">
       <r>   -4.1521    1.0000 </r>
       <r>    0.0688    1.0000 </r>
       <r>    2.0852    1.0000 </r>
       <r>    4.1210    1.0000 </r>
       <r>    8.3590    0.0000 </r>
       <r>    9.5570    0.0000 </r>
       <r>   10.9829    0.0000 </r>
       <r>   11.2522    0.0000 </r>
       <r>   13.0899    0.0000 </r>
      </set>
      <set comment="kpoint 21">
       <r>   -4.8687    1.0000 </r>
       <r>    0.7036    1.0000 </r>
       <r>    3.7076    1.0000 </r>
       <r>    4.5708    1.0000 </r>
       <r>    8.0770    0.0000 </r>
       <r>    8.9291    0.0000 </r>
       <r>    9.7802    0.0000 </r>
       <r>   11.4566    0.0000 </r>
       <r>   13.4106    0.0000 </r>
      </set>
      <set comment="kpoint 22">
       <r>   -3.4333    1.0000 </r>
       <r>   -0.6405    1.0000 </r>
       <r>    2.7683    1.0000 </r>
       <r>    2.9841    1.0000 </r>
       <r>    6.3909    0.0000 </r>
       <r>    7.0975    0.0000 </r>
       <r>   13.8619    0.0000 </r>
       <r>   13.8689    0.0000 </r>
       <r>   16.7031    0.0000 </r>
      </set>
      <set comment="kpoint 23">
       <r>   -2.5293    1.0000 </r>
       <r>   -1.6238    1.0000 </r>
       <r>    2.2141    1.0000 </r>
       <r>    2.7421    1.0000 </r>
       <r>    6.8201    0.0000 </r>
       <r>    7.5458    0.0000 </r>
       <r>   13.6107    0.0000 </r>
       <r>   14.6288    0.0000 </r>
       <r>   15.2803    0.0000 </r>
      </set>
      <set comment="kpoint 24">
       <r>   -2.6261    1.0000 </r>
       <r>   -1.4589    1.0000 </r>
       <r>    1.4894    1.0000 </r>
       <r>    3.0550    1.0000 </r>
       <r>    7.1830    0.0000 </r>
       <r>    9.7717    0.0000 </r>
       <r>   12.0916    0.0000 </r>
       <r>   13.2349    0.0000 </r>
       <r>   13.8062    0.0000 </r>
      </set>
      <set comment="kpoint 25">
       <r>   -3.3782    1.0000 </r>
       <r>   -1.0522    1.0000 </r>
       <r>    2.0375    1.0000 </r>
       <r>    3.6523    1.0000 </r>
       <r>    7.8501    0.0000 </r>
       <r>    9.8074    0.0000 </r>
       <r>   11.3416    0.0000 </r>
       <r>   12.5753    0.0000 </r>
       <r>   13.1487    0.0000 </r>
      </set>
      <set comment="kpoint 26">
       <r>   -3.9832    1.0000 </r>
       <r>   -0.9019    1.0000 </r>
       <r>    3.5339    1.0000 </r>
       <r>    4.2373    1.0000 </r>
       <r>    7.8769    0.0000 </r>
       <r>    8.8279    0.0000 </r>
       <r>    9.6011    0.0000 </r>
       <r>   13.1415    0.0000 </r>
       <r>   14.3830    0.0000 </r>
      </set>
      <set comment="kpoint 27">
       <r>   -2.5802    1.0000 </r>
       <r>   -1.6412    1.0000 </r>
       <r>    2.6315    1.0000 </r>
       <r>    2.8638    1.0000 </r>
       <r>    6.3867    0.0000 </r>
       <r>    6.7449    0.0000 </r>
       <r>   14.9347    0.0000 </r>
       <r>   15.0070    0.0000 </r>
       <r>   16.4072    0.0000 </r>
      </set>
      <set comment="kpoint 28">
       <r>   -3.3484    1.0000 </r>
       <r>   -0.7039    1.0000 </r>
       <r>    2.3704    1.0000 </r>
       <r>    2.9006    1.0000 </r>
       <r>    6.9076    0.0000 </r>
       <r>    7.7952    0.0000 </r>
       <r>   12.5457    0.0000 </r>
       <r>   13.8620    0.0000 </r>
       <r>   16.0087    0.0000 </r>
      </set>
      <set comment="kpoint 29">
       <r>   -3.8167    1.0000 </r>
       <r>   -0.4430    1.0000 </r>
       <r>    2.4306    1.0000 </r>
       <r>    3.4959    1.0000 </r>
       <r>    7.6059    0.0000 </r>
       <r>   10.1106    0.0000 </r>
       <r>   10.3360    0.0000 </r>
       <r>   11.5523    0.0000 </r>
       <r>   15.4584    0.0000 </r>
      </set>
      <set comment="kpoint 30">
       <r>   -4.1870    1.0000 </r>
       <r>    0.3988    1.0000 </r>
       <r>    3.0421    1.0000 </r>
       <r>    3.2225    1.0000 </r>
       <r>    6.5217    0.0000 </r>
       <r>    7.6721    0.0000 </r>
       <r>   12.7020    0.0000 </r>
       <r>   12.7785    0.0000 </r>
       <r>   15.7092    0.0000 </r>
      </set>
      <set comment="kpoint 31">
       <r>   -4.7128    1.0000 </r>
       <r>    1.1043    1.0000 </r>
       <r>    3.0875    1.0000 </r>
       <r>    3.7350    1.0000 </r>
       <r>    7.3862    0.0000 </r>
       <r>    8.9483    0.0000 </r>
       <r>   10.5971    0.0000 </r>
       <r>   11.5800    0.0000 </r>
       <r>   14.3277    0.0000 </r>
      </set>
      <set comment="kpoint 32">
       <r>   -5.3519    1.0000 </r>
       <r>    2.4719    1.0000 </r>
       <r>    3.9940    1.0000 </r>
       <r>    4.0256    1.0000 </r>
       <r>    7.1543    0.0000 </r>
       <r>    9.2962    0.0000 </r>
       <r>   10.5303    0.0000 </r>
       <r>   10.6928    0.0000 </r>
       <r>   13.1101    0.0000 </r>
      </set>
      <set comment="kpoint 33">
       <r>   -5.7516    1.0000 </r>
       <r>    2.8651    1.0000 </r>
       <r>    5.0954    1.0000 </r>
       <r>    5.0954    1.0000 </r>
       <r>    7.8185    0.0000 </r>
       <r>    8.9074    0.0000 </r>
       <r>    8.9074    0.0000 </r>
       <r>   11.2701    0.0000 </r>
       <r>   12.6675    0.0000 </r>
      </set>
      <set comment="kpoint 34">
       <r>   -5.3618    1.0000 </r>
       <r>    2.0289    1.0000 </r>
       <r>    3.5902    1.0000 </r>
       <r>    5.1141    1.0000 </r>
       <r>    8.4714    0.0000 </r>
       <r>    9.0295    0.0000 </r>
       <r>    9.3198    0.0000 </r>
       <r>   11.3204    0.0000 </r>
       <r>   11.8454    0.0000 </r>
      </set>
      <set comment="kpoint 35">
       <r>   -4.6191    1.0000 </r>
       <r>    0.6668    1.0000 </r>
       <r>    2.5152    1.0000 </r>
       <r>    4.6121    1.0000 </r>
       <r>    8.3175    0.0000 </r>
       <r>    9.7820    0.0000 </r>
       <r>    9.9856    0.0000 </r>
       <r>   11.6044    0.0000 </r>
       <r>   11.9516    0.0000 </r>
      </set>
      <set comment="kpoint 36">
       <r>   -3.7303    1.0000 </r>
       <r>   -0.8132    1.0000 </r>
       <r>    2.3636    1.0000 </r>
       <r>    4.0840    1.0000 </r>
       <r>    7.8188    0.0000 </r>
       <r>    9.9610    0.0000 </r>
       <r>   10.1675    0.0000 </r>
       <r>   13.4512    0.0000 </r>
       <r>   13.5679    0.0000 </r>
      </set>
      <set comment="kpoint 37">
       <r>   -3.7148    1.0000 </r>
       <r>   -0.8412    1.0000 </r>
       <r>    2.6614    1.0000 </r>
       <r>    3.7677    1.0000 </r>
       <r>    7.5415    0.0000 </r>
       <r>   10.0341    0.0000 </r>
       <r>   10.5108    0.0000 </r>
       <r>   11.4970    0.0000 </r>
       <r>   15.1829    0.0000 </r>
      </set>
      <set comment="kpoint 38">
       <r>   -4.6023    1.0000 </r>
       <r>    0.6633    1.0000 </r>
       <r>    3.2707    1.0000 </r>
       <r>    3.7436    1.0000 </r>
       <r>    7.4741    0.0000 </r>
       <r>    9.6595    0.0000 </r>
       <r>   10.3084    0.0000 </r>
       <r>   10.8844    0.0000 </r>
       <r>   15.2545    0.0000 </r>
      </set>
      <set comment="kpoint 39">
       <r>   -5.1065    1.0000 </r>
       <r>    1.3666    1.0000 </r>
       <r>    4.0940    1.0000 </r>
       <r>    4.1596    1.0000 </r>
       <r>    7.8676    0.0000 </r>
       <r>    9.2402    0.0000 </r>
       <r>   10.1457    0.0000 </r>
       <r>   10.5085    0.0000 </r>
       <r>   14.0523    0.0000 </r>
      </set>
      <set comment="kpoint 40">
       <r>   -4.4838    1.0000 </r>
       <r>    0.6007    1.0000 </r>
       <r>    2.5717    1.0000 </r>
       <r>    3.9652    1.0000 </r>
       <r>    8.3563    0.0000 </r>
       <r>    9.4001    0.0000 </r>
       <r>    9.8780    0.0000 </r>
       <r>   11.4001    0.0000 </r>
       <r>   13.7462    0.0000 </r>
      </set>
      <set comment="kpoint 41">
       <r>   -3.5979    1.0000 </r>
       <r>   -0.4952    1.0000 </r>
       <r>    1.7864    1.0000 </r>
       <r>    3.4001    1.0000 </r>
       <r>    8.8079    0.0000 </r>
       <r>    9.2912    0.0000 </r>
       <r>   10.5674    0.0000 </r>
       <r>   12.4891    0.0000 </r>
       <r>   13.9796    0.0000 </r>
      </set>
      <set comment="kpoint 42">
       <r>   -3.1134    1.0000 </r>
       <r>   -1.1053    1.0000 </r>
       <r>    1.7901    1.0000 </r>
       <r>    3.0890    1.0000 </r>
       <r>    8.3381    0.0000 </r>
       <r>    9.6193    0.0000 </r>
       <r>   11.3452    0.0000 </r>
       <r>   12.6387    0.0000 </r>
       <r>   12.8990    0.0000 </r>
      </set>
      <set comment="kpoint 43">
       <r>   -3.8810    1.0000 </r>
       <r>   -0.1058    1.0000 </r>
       <r>    2.2101    1.0000 </r>
       <r>    3.2672    1.0000 </r>
       <r>    8.0702    0.0000 </r>
       <r>    9.2773    0.0000 </r>
       <r>   10.1530    0.0000 </r>
       <r>   12.6185    0.0000 </r>
       <r>   15.0449    0.0000 </r>
      </set>
      <set comment="kpoint 44">
       <r>   -3.9898    1.0000 </r>
       <r>   -0.0491    1.0000 </r>
       <r>    2.5426    1.0000 </r>
       <r>    3.4150    1.0000 </r>
       <r>    7.0935    0.0000 </r>
       <r>    9.1145    0.0000 </r>
       <r>   11.3885    0.0000 </r>
       <r>   11.7025    0.0000 </r>
       <r>   16.4818    0.0000 </r>
      </set>
      <set comment="kpoint 45">
       <r>   -3.1906    1.0000 </r>
       <r>   -0.8432    1.0000 </r>
       <r>    1.9678    1.0000 </r>
       <r>    2.7331    1.0000 </r>
       <r>    7.8657    0.0000 </r>
       <r>    8.8740    0.0000 </r>
       <r>   11.0393    0.0000 </r>
       <r>   13.8385    0.0000 </r>
       <r>   14.3698    0.0000 </r>
      </set>
      <set comment="kpoint 46">
       <r>   -2.3872    1.0000 </r>
       <r>   -1.5943    1.0000 </r>
       <r>    1.6508    1.0000 </r>
       <r>    2.2341    1.0000 </r>
       <r>    8.9823    0.0000 </r>
       <r>    9.9038    0.0000 </r>
       <r>   10.5956    0.0000 </r>
       <r>   11.5926    0.0000 </r>
       <r>   15.1182    0.0000 </r>
      </set>
      <set comment="kpoint 47">
       <r>   -2.9867    1.0000 </r>
       <r>   -1.0491    1.0000 </r>
       <r>    1.6432    1.0000 </r>
       <r>    2.7073    1.0000 </r>
       <r>    9.0784    0.0000 </r>
       <r>    9.5045    0.0000 </r>
       <r>   10.2725    0.0000 </r>
       <r>   12.7480    0.0000 </r>
       <r>   13.8365    0.0000 </r>
      </set>
      <set comment="kpoint 48">
       <r>   -2.5497    1.0000 </r>
       <r>   -1.5738    1.0000 </r>
       <r>    1.7550    1.0000 </r>
       <r>    3.0747    1.0000 </r>
       <r>    6.6615    0.0000 </r>
       <r>    8.5580    0.0000 </r>
       <r>   13.5234    0.0000 </r>
       <r>   13.7348    0.0000 </r>
       <r>   14.9279    0.0000 </r>
      </set>
      <set comment="kpoint 49">
       <r>   -2.4499    1.0000 </r>
       <r>   -1.6037    1.0000 </r>
       <r>    1.8483    1.0000 </r>
       <r>    2.4485    1.0000 </r>
       <r>    7.7606    0.0000 </r>
       <r>    8.6725    0.0000 </r>
       <r>   12.0368    0.0000 </r>
       <r>   13.1451    0.0000 </r>
       <r>   15.1263    0.0000 </r>
      </set>
      <set comment="kpoint 50">
       <r>   -3.2875    1.0000 </r>
       <r>   -0.8058    1.0000 </r>
       <r>    2.0201    1.0000 </r>
       <r>    3.1893    1.0000 </r>
       <r>    6.8106    0.0000 </r>
       <r>    8.7414    0.0000 </r>
       <r>   12.5467    0.0000 </r>
       <r>   12.6038    0.0000 </r>
       <r>   16.0195    0.0000 </r>
      </set>
      <set comment="kpoint 51">
       <r>   -4.9998    1.0000 </r>
       <r>    0.6730    1.0000 </r>
       <r>    4.6847    1.0000 </r>
       <r>    4.6847    1.0000 </r>
       <r>    7.3669    0.0000 </r>
       <r>    9.1360    0.0000 </r>
       <r>    9.1360    0.0000 </r>
       <r>   13.2521    0.0000 </r>
       <r>   13.3226    0.0000 </r>
      </set>
      <set comment="kpoint 52">
       <r>   -4.5229    1.0000 </r>
       <r>    0.0984    1.0000 </r>
       <r>    3.2262    1.0000 </r>
       <r>    4.5978    1.0000 </r>
       <r>    8.0825    0.0000 </r>
       <r>    9.3593    0.0000 </r>
       <r>    9.4052    0.0000 </r>
       <r>   12.6131    0.0000 </r>
       <r>   12.7345    0.0000 </r>
      </set>
      <set comment="kpoint 53">
       <r>   -3.7351    1.0000 </r>
       <r>   -0.4311    1.0000 </r>
       <r>    1.7067    1.0000 </r>
       <r>    4.0201    1.0000 </r>
       <r>    7.7424    0.0000 </r>
       <r>   10.7991    0.0000 </r>
       <r>   10.9711    0.0000 </r>
       <r>   12.3729    0.0000 </r>
       <r>   12.6128    0.0000 </r>
      </set>
      <set comment="kpoint 54">
       <r>   -2.9184    1.0000 </r>
       <r>   -1.2087    1.0000 </r>
       <r>    1.3702    1.0000 </r>
       <r>    3.4765    1.0000 </r>
       <r>    7.1272    0.0000 </r>
       <r>   11.0019    0.0000 </r>
       <r>   12.0653    0.0000 </r>
       <r>   12.3434    0.0000 </r>
       <r>   13.5519    0.0000 </r>
      </set>
      <set comment="kpoint 55">
       <r>   -4.2105    1.0000 </r>
       <r>   -0.4567    1.0000 </r>
       <r>    3.5609    1.0000 </r>
       <r>    4.0373    1.0000 </r>
       <r>    7.7928    0.0000 </r>
       <r>    9.1410    0.0000 </r>
       <r>    9.8847    0.0000 </r>
       <r>   11.9192    0.0000 </r>
       <r>   14.7459    0.0000 </r>
      </set>
      <set comment="kpoint 56">
       <r>   -3.5941    1.0000 </r>
       <r>   -0.8142    1.0000 </r>
       <r>    2.2583    1.0000 </r>
       <r>    3.5640    1.0000 </r>
       <r>    8.5605    0.0000 </r>
       <r>    8.9049    0.0000 </r>
       <r>   11.4425    0.0000 </r>
       <r>   11.6584    0.0000 </r>
       <r>   14.0469    0.0000 </r>
      </set>
      <set comment="kpoint 57">
       <r>   -2.7810    1.0000 </r>
       <r>   -1.2736    1.0000 </r>
       <r>    1.4617    1.0000 </r>
       <r>    2.8543    1.0000 </r>
       <r>    8.2097    0.0000 </r>
       <r>   10.4469    0.0000 </r>
       <r>   11.2377    0.0000 </r>
       <r>   11.7665    0.0000 </r>
       <r>   13.7937    0.0000 </r>
      </set>
      <set comment="kpoint 58">
       <r>   -3.2375    1.0000 </r>
       <r>   -1.0920    1.0000 </r>
       <r>    1.8672    1.0000 </r>
       <r>    3.5757    1.0000 </r>
       <r>    7.2753    0.0000 </r>
       <r>   10.9628    0.0000 </r>
       <r>   11.2724    0.0000 </r>
       <r>   11.3792    0.0000 </r>
       <r>   14.6361    0.0000 </r>
      </set>
      <set comment="kpoint 59">
       <r>   -4.1156    1.0000 </r>
       <r>   -0.9625    1.0000 </r>
       <r>    4.4652    1.0000 </r>
       <r>    4.4652    1.0000 </r>
       <r>    7.1148    0.0000 </r>
       <r>    8.9952    0.0000 </r>
       <r>    8.9952    0.0000 </r>
       <r>   13.3636    0.0000 </r>
       <r>   15.1964    0.0000 </r>
      </set>
      <set comment="kpoint 60">
       <r>   -3.7668    1.0000 </r>
       <r>   -1.1371    1.0000 </r>
       <r>    3.2459    1.0000 </r>
       <r>    4.1984    1.0000 </r>
       <r>    7.8245    0.0000 </r>
       <r>    9.1308    0.0000 </r>
       <r>    9.5723    0.0000 </r>
       <r>   13.7533    0.0000 </r>
       <r>   14.4193    0.0000 </r>
      </set>
     </set>
    </set>
   </array>
  </eigenvalues>
  <separator name="orbital magnetization" >
   <v name="MAGDIPOLOUT">      0.00000000      0.00000000      0.00000000</v>
  </separator>
 </calculation>
 <structure name="finalpos" >
  <crystal>
   <varray name="basis" >
    <v>       3.34889826       0.00000000       1.93348731 </v>
    <v>       1.11629942       3.15737156       1.93348731 </v>
    <v>       0.00000000       0.00000000       3.86697462 </v>
   </varray>
   <i name="volume">     40.88829190 </i>
   <varray name="rec_basis" >
    <v>       0.29860567      -0.10557305       0.00000000 </v>
    <v>       0.00000000       0.31671914       0.00000000 </v>
    <v>      -0.14930283      -0.10557305       0.25860009 </v>
   </varray>
  </crystal>
  <varray name="positions" >
   <v>       0.87500000       0.87500000       0.87500000 </v>
   <v>       0.12500000       0.12500000       0.12500000 </v>
  </varray>
 </structure>
</modeling>
