
Running Job 1 of 1 mol.qin
qchem mol.qin_150784.0 /tmp/scratch/ 0
/clusterfs/mp/software/qchem/exe/qcprog.exe_s mol.qin_150784.0 /tmp/scratch/
                  Welcome to Q-Chem
     A Quantum Leap Into The Future Of Chemistry


 Q-Chem 5.2, Q-Chem, Inc., Pleasanton, CA (2019)

 Yihan Shao,  Zhengting Gan,  E. Epifanovsky,  A. T. B. Gilbert,  M. Wormit,  
 J. Kussmann,  A. W. Lange,  A. Behn,  Jia Deng,  Xintian Feng,  D. Ghosh,  
 M. Goldey,  P. R. Horn,  L. D. Jacobson,  I. Kaliman,  T. Kus,  A. Landau,  
 Jie Liu,  E. I. Proynov,  R. M. Richard,  R. P. Steele,  E. J. Sundstrom,  
 H. L. Woodcock III,  P. M. Zimmerman,  D. Zuev,  B. Alam,  B. Albrecht,  
 E. Alguire,  S. A. Baeppler,  D. Barton,  Z. Benda,  Y. A. Bernard,  
 E. J. Berquist,  K. B. Bravaya,  H. Burton,  K. Carter-Fenk,  D. Casanova,  
 Chun-Min Chang,  Yunqing Chen,  A. Chien,  K. D. Closser,  M. P. Coons,  
 S. Coriani,  S. Dasgupta,  A. L. Dempwolff,  M. Diedenhofen,  Hainam Do,  
 R. G. Edgar,  Po-Tung Fang,  S. Faraji,  S. Fatehi,  Qingguo Feng,  
 J. Fosso-Tande,  J. Gayvert,  Qinghui Ge,  A. Ghysels,  G. Gidofalvi,  
 J. Gomes,  J. Gonthier,  A. Gunina,  D. Hait,  M. W. D. Hanson-Heine,  
 P. H. P. Harbach,  A. W. Hauser,  M. F. Herbst,  J. E. Herr,  
 E. G. Hohenstein,  Z. C. Holden,  Kerwin Hui,  B. C. Huynh,  T.-C. Jagau,  
 Hyunjun Ji,  B. Kaduk,  K. Khistyaev,  Jaehoon Kim,  P. Klunzinger,  K. Koh,  
 D. Kosenkov,  L. Koulias,  T. Kowalczyk,  C. M. Krauter,  A. Kunitsa,  
 Ka Un Lao,  A. Laurent,  K. V. Lawler,  Joonho Lee,  D. Lefrancois,  
 S. Lehtola,  D. S. Levine,  Yi-Pei Li,  You-Sheng Lin,  Fenglai Liu,  
 Kuan-Yu Liu,  E. Livshits,  M. Loipersberger,  A. Luenser,  P. Manohar,  
 E. Mansoor,  S. F. Manzer,  Shan-Ping Mao,  Yuezhi Mao,  N. Mardirossian,  
 A. V. Marenich,  T. Markovich,  L. A. Martinez-Martinez,  S. A. Maurer,  
 N. J. Mayhall,  S. C. McKenzie,  J.-M. Mewes,  P. Morgante,  A. F. Morrison,  
 J. W. Mullinax,  K. Nanda,  T. S. Nguyen-Beck,  R. Olivares-Amaya,  
 J. A. Parkhill,  S. K. Paul,  Zheng Pei,  T. M. Perrine,  F. Plasser,  
 P. Pokhilko,  S. Prager,  A. Prociuk,  E. Ramos,  B. Rana,  D. R. Rehn,  
 F. Rob,  M. Scheurer,  M. Schneider,  N. Sergueev,  S. M. Sharada,  
 S. Sharma,  D. W. Small,  T. Stauch,  C. J. Stein,  T. Stein,  Yu-Chuan Su,  
 S. P. Veccham,  A. J. W. Thom,  A. Tkatchenko,  T. Tsuchimochi,  
 N. M. Tubman,  L. Vogt,  M. L. Vidal,  O. Vydrov,  M. A. Watson,  J. Wenzel,  
 M. de Wergifosse,  T. A. Wesolowski,  A. White,  J. Witte,  A. Yamada,  
 Jun Yang,  K. Yao,  S. Yeganeh,  S. R. Yost,  Zhi-Qiang You,  A. Zech,  
 Igor Ying Zhang,  Xing Zhang,  Yan Zhao,  Ying Zhu,  B. R. Brooks,  
 G. K. L. Chan,  C. J. Cramer,  M. S. Gordon,  W. J. Hehre,  A. Klamt,  
 M. W. Schmidt,  C. D. Sherrill,  D. G. Truhlar,  A. Aspuru-Guzik,  R. Baer,  
 A. T. Bell,  N. A. Besley,  Jeng-Da Chai,  A. E. DePrince, III,  
 R. A. DiStasio Jr.,  A. Dreuw,  B. D. Dunietz,  T. R. Furlani,  
 Chao-Ping Hsu,  Yousung Jung,  Jing Kong,  D. S. Lambrecht,  WanZhen Liang,  
 C. Ochsenfeld,  V. A. Rassolov,  L. V. Slipchenko,  J. E. Subotnik,  
 T. Van Voorhis,  J. M. Herbert,  A. I. Krylov,  P. M. W. Gill,  M. Head-Gordon

 Contributors to earlier versions of Q-Chem not listed above: 
 R. D. Adamson,  B. Austin,  J. Baker,  G. J. O. Beran,  K. Brandhorst,  
 S. T. Brown,  E. F. C. Byrd,  A. K. Chakraborty,  C.-L. Cheng,  
 Siu Hung Chien,  D. M. Chipman,  D. L. Crittenden,  H. Dachsel,  
 R. J. Doerksen,  A. D. Dutoi,  L. Fusti-Molnar,  W. A. Goddard III,  
 A. Golubeva-Zadorozhnaya,  S. R. Gwaltney,  G. Hawkins,  A. Heyden,  
 S. Hirata,  G. Kedziora,  F. J. Keil,  C. Kelley,  Jihan Kim,  R. A. King,  
 R. Z. Khaliullin,  P. P. Korambath,  W. Kurlancheek,  A. M. Lee,  M. S. Lee,  
 S. V. Levchenko,  Ching Yeh Lin,  D. Liotard,  R. C. Lochan,  I. Lotan,  
 P. E. Maslen,  N. Nair,  D. P. O'Neill,  D. Neuhauser,  E. Neuscamman,  
 C. M. Oana,  R. Olson,  B. Peters,  R. Peverati,  P. A. Pieniazek,  
 Y. M. Rhee,  J. Ritchie,  M. A. Rohrdanz,  E. Rosta,  N. J. Russ,  
 H. F. Schaefer III,  N. E. Schultz,  N. Shenvi,  A. C. Simmonett,  A. Sodt,  
 D. Stuck,  K. S. Thanthiriwatte,  V. Vanovschi,  Tao Wang,  A. Warshel,  
 C. F. Williams,  Q. Wu,  X. Xu,  W. Zhang

 Please cite Q-Chem as follows:
 Y. Shao et al., Mol. Phys. 113, 184-215 (2015)
 DOI: 10.1080/00268976.2014.952696

 Q-Chem 5.2.2 for Intel X86 EM64T Linux

 Parts of Q-Chem use Armadillo 8.300.2 (Tropical Shenanigans).
 http://arma.sourceforge.net/

 Q-Chem begins on Wed Nov 11 14:53:41 2020  

Host: 
0

     Scratch files written to /tmp/scratch//
 Nov2519 |scratch|qcdevops|jenkins|workspace|build_RNUM 6829   
Processing $rem in /clusterfs/mp/software/qchem/config/preferences:
	 MEM_TOTAL  96000 
NAlpha2: 62
NElect   61
Mult     2
Symmetry turned off for PCM/SM12/SMD calculation

Checking the input file for inconsistencies... 	...done.

--------------------------------------------------------------
User input:
--------------------------------------------------------------
$molecule
0 2
O     -1.9327170103     -4.3174774174      1.3394474306
C     -1.5679825504     -4.9692915330      0.2131949447
C     -2.8117166195     -3.2672228285      0.9985650609
O     -0.7314331758     -5.8227507995      0.1735347022
O     -2.2736140125     -4.5382521363     -0.8392508077
C     -3.2708933425     -3.5906799742     -0.3997280389
H     -1.9658006406     -2.1344404594      0.9125319203
H     -3.5489902237     -3.0864144473      1.7760117190
H     -3.2575638000     -2.7329641132     -1.0743409980
H     -4.2510590539     -4.0750056370     -0.4332719689
C     -0.9365052060     -1.3633295518      0.6420771153
O      0.0306758643     -1.8483715526      0.1428350598
H     -1.0258202290     -0.2865395498      0.9016738605
$end

$rem
job_type = freq
basis = def2-tzvppd
max_scf_cycles = 200
gen_scfman = true
xc_grid = 3
scf_algorithm = diis
resp_charges = true
symmetry = false
sym_ignore = true
method = wb97xv
solvent_method = smd
ideriv = 1
thresh = 14
$end

$smx
solvent other
$end
--------------------------------------------------------------
 ----------------------------------------------------------------
             Standard Nuclear Orientation (Angstroms)
    I     Atom           X                Y                Z
 ----------------------------------------------------------------
    1      O      -1.9327170103    -4.3174774174     1.3394474306
    2      C      -1.5679825504    -4.9692915330     0.2131949447
    3      C      -2.8117166195    -3.2672228285     0.9985650609
    4      O      -0.7314331758    -5.8227507995     0.1735347022
    5      O      -2.2736140125    -4.5382521363    -0.8392508077
    6      C      -3.2708933425    -3.5906799742    -0.3997280389
    7      H      -1.9658006406    -2.1344404594     0.9125319203
    8      H      -3.5489902237    -3.0864144473     1.7760117190
    9      H      -3.2575638000    -2.7329641132    -1.0743409980
   10      H      -4.2510590539    -4.0750056370    -0.4332719689
   11      C      -0.9365052060    -1.3633295518     0.6420771153
   12      O       0.0306758643    -1.8483715526     0.1428350598
   13      H      -1.0258202290    -0.2865395498     0.9016738605
 ----------------------------------------------------------------
 Nuclear Repulsion Energy =         375.79970254 hartrees
 There are       31 alpha and       30 beta electrons
 Requested basis set is def2-TZVPPD
 There are 143 shells and 393 basis functions

 Total QAlloc Memory Limit  96000 MB
 Mega-Array Size       188 MB
 MEM_STATIC part       192 MB
 
 Citation of the SMD model:
 Marenich, A.V.; Cramer, C.J.; Truhlar, D.G.
 J. Phys. Chem. B 2009, 113, 6378-6396.
 iSolventCode=           0
 Solvent: other                                                           
 
 vradii
            1           2           3           4           5           6
    1   2.2940000   1.8500000   1.8500000   2.2940000   2.2940000   1.8500000
            7           8           9          10          11          12
    1   1.2000000   1.2000000   1.2000000   1.2000000   1.8500000   2.2940000
           13
    1   1.2000000
 Changing PCM_VDW_RADII to SMD_RADIUS
 Discretize the solute cavity surface with Lebedev spheres
	Using 110 Lebedev grid points for each H atom
	Using 194 Lebedev grid points for other atoms
	Atomic van der Waals radii will be scaled by 1.20
 Remove points where switching function is < 1.0e-08
 Keep 916 surface tesserae and discard 1186 interior tesserae
 Molecular Surface Area = 177.052 Angst**2

                       Distance Matrix (Angstroms)
             O (  1)   C (  2)   C (  3)   O (  4)   O (  5)   C (  6)
   C (  2)  1.351421
   C (  3)  1.411338  2.249604
   O (  4)  2.251285  1.195734  3.396907
   O (  5)  2.216231  1.338414  2.298399  2.248109
   C (  6)  2.311640  2.275115  1.506881  3.429231  1.444174
   H (  7)  2.224635  2.946814  1.416394  3.958966  2.990285  2.354979
   H (  8)  2.078087  3.148335  1.086594  4.241945  3.251771  2.250659
   H (  9)  3.176834  3.084411  2.186584  4.181544  2.069418  1.091310
   H ( 10)  2.928487  2.901132  2.185035  3.976254  2.071160  1.093810
   C ( 11)  3.194644  3.685874  2.695981  4.488655  3.749977  3.390548
   O ( 12)  3.373911  3.507250  3.290077  4.046905  3.675555  3.772317
   H ( 13)  4.154825  4.764043  3.476102  5.591644  4.760763  4.201350
             H (  7)   H (  8)   H (  9)   H ( 10)   C ( 11)   O ( 12)
   H (  8)  2.039201
   H (  9)  2.444289  2.886930
   H ( 10)  3.286242  2.520148  1.788597
   C ( 11)  1.314232  3.328649  3.195200  4.415408
   O ( 12)  2.158747  4.124806  3.616150  4.860355  1.191616
   H ( 13)  2.073263  3.869128  3.856204  5.151381  1.111236  2.032570

 
 A cutoff of  1.0D-14 yielded   9712 shell pairs
 There are     74146 function pairs (     95431 Cartesian)
 Smallest overlap matrix eigenvalue = 4.05E-06
 Guess from superposition of atomic densities
 Warning:  Energy on first SCF cycle will be non-variational
 SAD guess density has 61.000000 electrons

 -----------------------------------------------------------------------
  General SCF calculation program by
  Eric Jon Sundstrom, Paul Horn, Yuezhi Mao, Dmitri Zuev, Alec White,
  David Stuck, Shaama M.S., Shane Yost, Joonho Lee, David Small,
  Daniel Levine, Susi Lehtola, Hugh Burton, Evgeny Epifanovsky,
  Bang C. Huynh
 -----------------------------------------------------------------------
 Exchange:     0.1670 Hartree-Fock + 1.0000 wB97X-V + LR-HF
 Correlation:  1.0000 wB97X-V
 Using SG-3 standard quadrature grid
 Nonlocal Correlation:  VV10 with C = 0.0100 and b = 6.00 and scale = 1.00000
 Grid used for NLC:  SG-1 standard quadrature
 
 Citation of the SMD model:
 Marenich, A.V.; Cramer, C.J.; Truhlar, D.G.
 J. Phys. Chem. B 2009, 113, 6378-6396.
 iSolventCode=           0
 Solvent: other                                                           
 
 vradii
            1           2           3           4           5           6
    1   2.2940000   1.8500000   1.8500000   2.2940000   2.2940000   1.8500000
            7           8           9          10          11          12
    1   1.2000000   1.2000000   1.2000000   1.2000000   1.8500000   2.2940000
           13
    1   1.2000000
 using 40 threads for integral computing
 -------------------------------------------------------
 OpenMP Integral computing Module                
 Release: version 1.0, May 2013, Q-Chem Inc. Pittsburgh 
 -------------------------------------------------------
 using 40 threads for integral computing
 -------------------------------------------------------
 OpenMP Integral computing Module                
 Release: version 1.0, May 2013, Q-Chem Inc. Pittsburgh 
 -------------------------------------------------------
 -------------------------------------------------------
 OpenMP BLAS3 based DFT computing Module                
 Release: version 1.0, May 2013, Q-Chem Inc. Pittsburgh 
 -------------------------------------------------------
 -------------------------------------------------------
 OpenMP BLAS3 based DFT computing Module                
 Release: version 1.0, May 2013, Q-Chem Inc. Pittsburgh 
 -------------------------------------------------------
 -------------------------------------------------------
 OpenMP BLAS3 based DFT computing Module                
 Release: version 1.0, May 2013, Q-Chem Inc. Pittsburgh 
 -------------------------------------------------------
 A unrestricted SCF calculation will be
 performed using DIIS
 SCF converges when DIIS error is below 1.0e-08
 ---------------------------------------
  Cycle       Energy         DIIS error
 ---------------------------------------
    1    -458.0585926983      1.19e-02  
    2    -456.0902430381      1.79e-03  
    3    -456.0151542939      2.30e-03  
    4    -456.2826539144      1.96e-04  
    5    -456.2844759891      1.18e-04  
    6    -456.2853523506      2.24e-05  
    7    -456.2854442264      9.36e-06  
    8    -456.2854649991      5.42e-06  
    9    -456.2854715183      2.72e-06  
   10    -456.2854731644      1.55e-06  
   11    -456.2854739363      6.42e-07  
   12    -456.2854741650      3.08e-07  
   13    -456.2854742092      1.34e-07  
   14    -456.2854742161      7.96e-08  
   15    -456.2854742179      4.48e-08  
   16    -456.2854742188      2.01e-08  
   17    -456.2854742191      8.58e-09  Convergence criterion met
 ---------------------------------------
 SCF time:   CPU 3552.37s  wall 128.00s 
<S^2> =          0.759544235
(3)  G-ENP(liq) elect-nuc-pol free energy of system     -456.285474219 a.u.
(4)  G-CDS(liq) cavity-dispersion-solvent structure 
     free energy                                               -2.7236 kcal/mol
(6)  G-S(liq) free energy of system                     -456.289814574 a.u.
 SCF   energy in the final basis set =     -456.2854742191
 Total energy in the final basis set =     -456.2898145742
 
 --------------------------------------------------------------
 
                    Orbital Energies (a.u.)
 --------------------------------------------------------------
 
 Alpha MOs
 -- Occupied --
-19.2830 -19.2762 -19.2464 -19.2062 -10.4512 -10.3680 -10.3418 -10.3401
 -1.3055  -1.2116  -1.1885  -1.1773  -0.9103  -0.8034  -0.7464  -0.7322
 -0.6678  -0.6408  -0.6168  -0.6009  -0.5775  -0.5620  -0.5552  -0.5247
 -0.5042  -0.4961  -0.4890  -0.4236  -0.4154  -0.4076  -0.2795
 -- Virtual --
  0.0432   0.0567   0.0757   0.0803   0.0809   0.1033   0.1070   0.1151
  0.1176   0.1234   0.1256   0.1488   0.1528   0.1585   0.1651   0.1658
  0.1742   0.1925   0.1966   0.2125   0.2207   0.2298   0.2316   0.2385
  0.2446   0.2641   0.2729   0.2776   0.2811   0.2886   0.2930   0.3063
  0.3145   0.3155   0.3271   0.3318   0.3372   0.3381   0.3528   0.3573
  0.3678   0.3684   0.3760   0.3876   0.3909   0.3949   0.3993   0.4102
  0.4210   0.4303   0.4317   0.4408   0.4462   0.4517   0.4557   0.4649
  0.4669   0.4771   0.4818   0.4986   0.5038   0.5119   0.5257   0.5280
  0.5373   0.5489   0.5517   0.5556   0.5635   0.5696   0.5762   0.5916
  0.5985   0.6147   0.6193   0.6258   0.6333   0.6502   0.6546   0.6680
  0.6717   0.6728   0.6858   0.6930   0.6998   0.7162   0.7193   0.7257
  0.7311   0.7537   0.7615   0.7663   0.7751   0.7880   0.7946   0.7958
  0.8015   0.8235   0.8271   0.8420   0.8460   0.8566   0.8699   0.8868
  0.9032   0.9172   0.9192   0.9308   0.9460   0.9582   0.9691   0.9753
  0.9837   0.9927   1.0135   1.0279   1.0344   1.0571   1.0693   1.0909
  1.1148   1.1248   1.1334   1.1564   1.1630   1.2028   1.2078   1.2188
  1.2218   1.2361   1.2556   1.2648   1.2777   1.2986   1.3023   1.3221
  1.3298   1.3516   1.3628   1.3653   1.3878   1.4095   1.4148   1.4277
  1.4436   1.4658   1.4731   1.5006   1.5379   1.5625   1.5978   1.6119
  1.6361   1.6485   1.6688   1.7051   1.7177   1.7499   1.7624   1.8046
  1.8181   1.8589   1.8676   1.8953   1.9081   1.9151   1.9398   1.9616
  1.9779   2.0046   2.0254   2.0591   2.0801   2.1016   2.1270   2.1608
  2.1726   2.2346   2.2393   2.2742   2.2970   2.3069   2.3331   2.3564
  2.3815   2.3979   2.4181   2.4471   2.4617   2.4948   2.5022   2.5743
  2.6023   2.6493   2.6823   2.7196   2.7476   2.7867   2.8451   2.8665
  2.8861   2.9124   2.9373   2.9715   2.9729   2.9946   3.0026   3.0208
  3.0380   3.0726   3.0799   3.1100   3.1510   3.1610   3.1772   3.1834
  3.2023   3.2226   3.2358   3.2524   3.2633   3.2728   3.2818   3.3086
  3.3386   3.3657   3.3747   3.4012   3.4085   3.4138   3.4213   3.4492
  3.4607   3.4820   3.5031   3.5217   3.5346   3.5485   3.5571   3.5732
  3.5851   3.6183   3.6478   3.6515   3.6672   3.6816   3.7121   3.7212
  3.7367   3.7460   3.7813   3.8175   3.8369   3.8660   3.8756   3.8779
  3.9165   3.9241   4.0055   4.0142   4.0331   4.0547   4.0798   4.1111
  4.1684   4.1943   4.2143   4.2391   4.2562   4.3014   4.3462   4.3510
  4.3799   4.4064   4.4309   4.4737   4.4804   4.5801   4.6213   4.6264
  4.6454   4.6748   4.7091   4.7479   4.7754   4.8300   4.8809   4.9115
  4.9562   4.9704   5.0046   5.0246   5.0294   5.0779   5.0966   5.1422
  5.2347   5.2631   5.2852   5.3178   5.3464   5.3563   5.3646   5.3750
  5.4346   5.4789   5.5185   5.5330   5.6344   5.6501   5.6772   5.7214
  5.7430   5.7670   5.7716   5.8073   5.8793   5.9384   5.9665   6.0091
  6.0968   6.1120   6.2045   6.2213   6.2549   6.2997   6.3105   6.3999
  6.5117   6.5528   6.5638   6.5917   6.6382   6.6797   6.6979   6.7040
  6.8707   6.8752   6.8919   6.9022   6.9269   7.0201   7.0659   7.0948
  7.1508   7.1828   7.1908   7.2998   7.3118   7.3988   7.4754   7.5867
  7.6560   7.6768  23.1682  23.4450  23.5413  23.9200  44.1482  44.4172
 44.4543  44.5865
 
 Beta MOs
 -- Occupied --
-19.2818 -19.2762 -19.2438 -19.2061 -10.4512 -10.3622 -10.3403 -10.3333
 -1.3036  -1.2051  -1.1861  -1.1767  -0.9012  -0.7947  -0.7333  -0.7229
 -0.6567  -0.6369  -0.6074  -0.5863  -0.5664  -0.5604  -0.5501  -0.5212
 -0.4985  -0.4844  -0.4780  -0.4210  -0.4145  -0.3715
 -- Virtual --
  0.0043   0.0500   0.0572   0.0769   0.0812   0.0817   0.1039   0.1085
  0.1157   0.1184   0.1253   0.1282   0.1500   0.1541   0.1595   0.1657
  0.1674   0.1747   0.1945   0.1980   0.2138   0.2224   0.2316   0.2340
  0.2399   0.2456   0.2669   0.2747   0.2811   0.2826   0.2904   0.2955
  0.3083   0.3166   0.3181   0.3283   0.3363   0.3393   0.3423   0.3546
  0.3593   0.3704   0.3710   0.3779   0.3888   0.3928   0.3971   0.4005
  0.4116   0.4251   0.4327   0.4396   0.4415   0.4487   0.4536   0.4579
  0.4678   0.4685   0.4805   0.4845   0.5003   0.5063   0.5171   0.5280
  0.5296   0.5393   0.5500   0.5546   0.5575   0.5651   0.5719   0.5808
  0.5937   0.6000   0.6152   0.6206   0.6272   0.6342   0.6519   0.6560
  0.6688   0.6724   0.6754   0.6880   0.6947   0.7013   0.7182   0.7216
  0.7297   0.7326   0.7578   0.7639   0.7686   0.7766   0.7893   0.7972
  0.7988   0.8032   0.8257   0.8286   0.8428   0.8478   0.8615   0.8720
  0.8874   0.9046   0.9193   0.9211   0.9323   0.9486   0.9605   0.9713
  0.9762   0.9850   0.9940   1.0158   1.0296   1.0365   1.0591   1.0740
  1.0921   1.1167   1.1273   1.1354   1.1582   1.1652   1.2090   1.2099
  1.2211   1.2231   1.2400   1.2575   1.2687   1.2798   1.3016   1.3056
  1.3256   1.3312   1.3535   1.3669   1.3677   1.3898   1.4108   1.4206
  1.4312   1.4462   1.4671   1.4749   1.5060   1.5404   1.5674   1.6018
  1.6160   1.6395   1.6503   1.6720   1.7074   1.7201   1.7529   1.7640
  1.8087   1.8238   1.8698   1.8725   1.9002   1.9137   1.9234   1.9420
  1.9639   1.9797   2.0069   2.0289   2.0620   2.0833   2.1063   2.1294
  2.1657   2.1794   2.2384   2.2431   2.2777   2.2995   2.3098   2.3390
  2.3619   2.3860   2.4032   2.4198   2.4501   2.4660   2.4960   2.5055
  2.5763   2.6073   2.6578   2.6859   2.7219   2.7570   2.7934   2.8498
  2.8763   2.8911   2.9179   2.9418   2.9758   2.9798   2.9977   3.0066
  3.0267   3.0404   3.0804   3.0878   3.1198   3.1574   3.1633   3.1821
  3.1921   3.2060   3.2270   3.2456   3.2612   3.2713   3.2805   3.2912
  3.3184   3.3476   3.3692   3.3819   3.4045   3.4114   3.4193   3.4289
  3.4585   3.4669   3.4853   3.5081   3.5242   3.5403   3.5559   3.5624
  3.5761   3.5906   3.6219   3.6515   3.6564   3.6731   3.6840   3.7179
  3.7274   3.7429   3.7516   3.7909   3.8203   3.8417   3.8690   3.8791
  3.8891   3.9219   3.9301   4.0106   4.0186   4.0369   4.0613   4.0854
  4.1161   4.1743   4.2015   4.2186   4.2438   4.2630   4.3034   4.3479
  4.3590   4.3820   4.4085   4.4352   4.4759   4.4817   4.5849   4.6259
  4.6298   4.6487   4.6808   4.7135   4.7534   4.7821   4.8342   4.8841
  4.9178   4.9597   4.9763   5.0081   5.0271   5.0357   5.0799   5.1014
  5.1490   5.2398   5.2667   5.2870   5.3229   5.3503   5.3616   5.3698
  5.3803   5.4419   5.4821   5.5220   5.5366   5.6359   5.6529   5.6824
  5.7233   5.7456   5.7724   5.7753   5.8098   5.8842   5.9399   5.9718
  6.0118   6.0982   6.1150   6.2059   6.2302   6.2579   6.3025   6.3200
  6.4008   6.5124   6.5565   6.5700   6.6011   6.6394   6.6813   6.6992
  6.7119   6.8721   6.8793   6.8937   6.9109   6.9288   7.0210   7.0696
  7.0961   7.1527   7.1864   7.1972   7.3032   7.3132   7.3995   7.4763
  7.5872   7.6570   7.6770  23.1770  23.4501  23.5445  23.9202  44.1513
 44.4178  44.4545  44.5874
 --------------------------------------------------------------
 
          Ground-State Mulliken Net Atomic Charges

     Atom                 Charge (a.u.)    Spin (a.u.)
  --------------------------------------------------------
      1 O                    -0.262905       0.033858
      2 C                     0.454654       0.008189
      3 C                     0.349178       0.486773
      4 O                    -0.452991       0.008363
      5 O                    -0.265172       0.002873
      6 C                     0.081879      -0.002098
      7 H                    -0.122533      -0.035965
      8 H                     0.074115       0.004111
      9 H                     0.084814       0.012463
     10 H                     0.063343       0.021796
     11 C                     0.278537       0.306353
     12 O                    -0.358856       0.100931
     13 H                     0.075937       0.052353
  --------------------------------------------------------
  Sum of atomic charges =    -0.000000
  Sum of spin   charges =     1.000000

  Building new vdw surfaces
         Merz-Kollman RESP Net Atomic Charges

     Atom                 Charge (a.u.)
  ----------------------------------------
      1 O                    -0.373539
      2 C                     0.868819
      3 C                     0.119441
      4 O                    -0.609064
      5 O                    -0.366986
      6 C                    -0.062531
      7 H                    -0.102093
      8 H                     0.130514
      9 H                     0.148312
     10 H                     0.148312
     11 C                     0.482476
     12 O                    -0.435324
     13 H                     0.051663
  ----------------------------------------
  Sum of atomic charges =     0.000000

  Related Dipole Moment =     9.1323 (X -6.6576 Y  6.1432 Z  1.1560)

 -----------------------------------------------------------------
                    Cartesian Multipole Moments
 -----------------------------------------------------------------
    Charge (ESU x 10^10)
                -0.0000
    Dipole Moment (Debye)
         X      -6.6360      Y       6.1004      Z       1.1847
       Tot       9.0915
    Quadrupole Moments (Debye-Ang)
        XX     -23.1732     XY      15.1552     YY     -90.8682
        XZ      -2.7846     YZ      -0.9395     ZZ     -45.9923
    Octopole Moments (Debye-Ang^2)
       XXX     154.8837    XXY      95.0748    XYY      45.6064
       YYY     795.9358    XXZ      -5.7145    XYZ       7.5952
       YYZ     -14.0426    XZZ      76.6237    YZZ     176.5150
       ZZZ     -38.6042
    Hexadecapole Moments (Debye-Ang^3)
      XXXX    -881.5559   XXXY    -625.3986   XXYY    -670.8744
      XYYY    -870.8665   YYYY   -6132.2862   XXXZ      34.3364
      XXYZ      14.3197   XYYZ      -8.2741   YYYZ     132.8379
      XXZZ    -213.4050   XYZZ    -309.4381   YYZZ    -809.4987
      XZZZ      49.7837   YZZZ     118.5043   ZZZZ    -200.1025
 -----------------------------------------------------------------
 Calculating analytic gradient of the SCF energy
 Gradient of CDS energy
            1           2           3           4           5           6
    1  -0.0000040   0.0009588  -0.0006166   0.0002029  -0.0006099  -0.0008280
    2   0.0007753  -0.0016432   0.0006080  -0.0002029   0.0008590  -0.0000973
    3   0.0001608  -0.0001745   0.0015045   0.0000270  -0.0000966  -0.0013271
            7           8           9          10          11          12
    1   0.0005430   0.0001972   0.0001888   0.0002712  -0.0001725  -0.0001624
    2  -0.0006381  -0.0000483  -0.0002230  -0.0000400   0.0017167  -0.0006873
    3  -0.0006366  -0.0002079   0.0001861   0.0000518   0.0006899  -0.0000860
           13
    1   0.0000314
    2  -0.0003791
    3  -0.0000914
 Gradient of SCF Energy
            1           2           3           4           5           6
    1   0.0024062   0.0018834   0.0038407  -0.0026049   0.0016386   0.0124025
    2  -0.0010575  -0.0045908  -0.0048862   0.0041172  -0.0013146  -0.0047487
    3   0.0002769   0.0004843  -0.0131368  -0.0001056  -0.0008632   0.0089931
            7           8           9          10          11          12
    1  -0.0015788  -0.0098099  -0.0000971  -0.0131921  -0.0028541   0.0086951
    2  -0.0001294   0.0033064   0.0110539  -0.0055211  -0.0058565  -0.0051751
    3   0.0039057   0.0098712  -0.0079420  -0.0004459  -0.0010607  -0.0036937
           13
    1  -0.0007294
    2   0.0148025
    3   0.0037169
 Max gradient component =       1.480E-02
 RMS gradient           =       6.273E-03
 Computing fast CPCM-SWIG gradient
 Updating gradient with PCM contributions...
 -- total gradient after adding PCM contribution --
---------------------------------------------------
  Atom         X              Y              Z     
---------------------------------------------------
   1      -0.000003      -0.000005       0.000008
   2      -0.000001      -0.000003       0.000003
   3      -0.000022       0.000011      -0.000024
   4       0.000008       0.000010       0.000003
   5       0.000006       0.000000      -0.000002
   6      -0.000006       0.000015       0.000001
   7       0.000035      -0.000017       0.000057
   8       0.000009       0.000008      -0.000011
   9      -0.000021      -0.000013       0.000011
  10       0.000021      -0.000019       0.000009
  11      -0.000020       0.000031      -0.000037
  12      -0.000016      -0.000012       0.000001
  13       0.000011      -0.000006      -0.000017
---------------------------------------------------
 Number of fixed atoms: 0
 Gradient time:  CPU 671.29 s  wall 29.20 s
 ######################################################
 ######################################################
 # Starting finite difference calculation for IDERIV  #
 Finite diff step size:  1.88973e-03 a.u.
 ----------------------------------------------------------------
             Standard Nuclear Orientation (Angstroms)
    I     Atom           X                Y                Z
 ----------------------------------------------------------------
    1      O      -1.9317170103    -4.3174774174     1.3394474306
    2      C      -1.5679825504    -4.9692915330     0.2131949447
    3      C      -2.8117166195    -3.2672228285     0.9985650609
    4      O      -0.7314331758    -5.8227507995     0.1735347022
    5      O      -2.2736140125    -4.5382521363    -0.8392508077
    6      C      -3.2708933425    -3.5906799742    -0.3997280389
    7      H      -1.9658006406    -2.1344404594     0.9125319203
    8      H      -3.5489902237    -3.0864144473     1.7760117190
    9      H      -3.2575638000    -2.7329641132    -1.0743409980
   10      H      -4.2510590539    -4.0750056370    -0.4332719689
   11      C      -0.9365052060    -1.3633295518     0.6420771153
   12      O       0.0306758643    -1.8483715526     0.1428350598
   13      H      -1.0258202290    -0.2865395498     0.9016738605
 ----------------------------------------------------------------
 Nuclear Repulsion Energy =         375.79648226 hartrees
 There are       31 alpha and       30 beta electrons
 Discretize the solute cavity surface with Lebedev spheres
	Using 110 Lebedev grid points for each H atom
	Using 194 Lebedev grid points for other atoms
	Atomic van der Waals radii will be scaled by 1.20
 Remove points where switching function is < 1.0e-08
 Keep 916 surface tesserae and discard 1186 interior tesserae
 Molecular Surface Area = 177.049 Angst**2

                       Distance Matrix (Angstroms)
             O (  1)   C (  2)   C (  3)   O (  4)   O (  5)   C (  6)
   C (  2)  1.351151
   C (  3)  1.411961  2.249604
   O (  4)  2.250751  1.195734  3.396907
   O (  5)  2.216385  1.338414  2.298399  2.248109
   C (  6)  2.312220  2.275115  1.506881  3.429231  1.444174
   H (  7)  2.224650  2.946814  1.416394  3.958966  2.990285  2.354979
   H (  8)  2.078864  3.148335  1.086594  4.241945  3.251771  2.250659
   H (  9)  3.177251  3.084411  2.186584  4.181544  2.069418  1.091310
   H ( 10)  2.929279  2.901132  2.185035  3.976254  2.071160  1.093810
   C ( 11)  3.194333  3.685874  2.695981  4.488655  3.749977  3.390548
   O ( 12)  3.373329  3.507250  3.290077  4.046905  3.675555  3.772317
   H ( 13)  4.154606  4.764043  3.476102  5.591644  4.760763  4.201350
             H (  7)   H (  8)   H (  9)   H ( 10)   C ( 11)   O ( 12)
   H (  8)  2.039201
   H (  9)  2.444289  2.886930
   H ( 10)  3.286242  2.520148  1.788597
   C ( 11)  1.314232  3.328649  3.195200  4.415408
   O ( 12)  2.158747  4.124806  3.616150  4.860355  1.191616
   H ( 13)  2.073263  3.869128  3.856204  5.151381  1.111236  2.032570

 
 Requested basis set is def2-TZVPPD
 There are 143 shells and 393 basis functions
 A cutoff of  1.0D-14 yielded   9712 shell pairs
 There are     74146 function pairs (     95431 Cartesian)
 Smallest overlap matrix eigenvalue = 4.05E-06
 Guess MOs from SCF MO coefficient file

 -----------------------------------------------------------------------
  General SCF calculation program by
  Eric Jon Sundstrom, Paul Horn, Yuezhi Mao, Dmitri Zuev, Alec White,
  David Stuck, Shaama M.S., Shane Yost, Joonho Lee, David Small,
  Daniel Levine, Susi Lehtola, Hugh Burton, Evgeny Epifanovsky,
  Bang C. Huynh
 -----------------------------------------------------------------------
 Exchange:     0.1670 Hartree-Fock + 1.0000 wB97X-V + LR-HF
 Correlation:  1.0000 wB97X-V
 Using SG-3 standard quadrature grid
 Nonlocal Correlation:  VV10 with C = 0.0100 and b = 6.00 and scale = 1.00000
 Grid used for NLC:  SG-1 standard quadrature
 
 Citation of the SMD model:
 Marenich, A.V.; Cramer, C.J.; Truhlar, D.G.
 J. Phys. Chem. B 2009, 113, 6378-6396.
 iSolventCode=           0
 Solvent: other                                                           
 
 vradii
            1           2           3           4           5           6
    1   2.2940000   1.8500000   1.8500000   2.2940000   2.2940000   1.8500000
            7           8           9          10          11          12
    1   1.2000000   1.2000000   1.2000000   1.2000000   1.8500000   2.2940000
           13
    1   1.2000000
 using 40 threads for integral computing
 -------------------------------------------------------
 OpenMP Integral computing Module                
 Release: version 1.0, May 2013, Q-Chem Inc. Pittsburgh 
 -------------------------------------------------------
 using 40 threads for integral computing
 -------------------------------------------------------
 OpenMP Integral computing Module                
 Release: version 1.0, May 2013, Q-Chem Inc. Pittsburgh 
 -------------------------------------------------------
 -------------------------------------------------------
 OpenMP BLAS3 based DFT computing Module                
 Release: version 1.0, May 2013, Q-Chem Inc. Pittsburgh 
 -------------------------------------------------------
 -------------------------------------------------------
 OpenMP BLAS3 based DFT computing Module                
 Release: version 1.0, May 2013, Q-Chem Inc. Pittsburgh 
 -------------------------------------------------------
 -------------------------------------------------------
 OpenMP BLAS3 based DFT computing Module                
 Release: version 1.0, May 2013, Q-Chem Inc. Pittsburgh 
 -------------------------------------------------------
 A unrestricted SCF calculation will be
 performed using Roothaan-Hall, DIIS
 SCF converges when DIIS error is below 1.0e-08
 ---------------------------------------
  Cycle       Energy         DIIS error
 ---------------------------------------
    1    -456.8317243908      1.68e-04  Roothaan Step
 ---------------------------------------
  Cycle       Energy         DIIS error
 ---------------------------------------
    1    -456.2797080190      2.22e-04  
    2    -456.2817116447      2.66e-04  
    3    -456.2853447726      3.05e-05  
    4    -456.2854447845      1.73e-05  
    5    -456.2854693689      5.73e-06  
    6    -456.2854732564      2.23e-06  
    7    -456.2854737065      7.70e-07  
    8    -456.2854737909      3.10e-07  
    9    -456.2854738055      1.71e-07  
   10    -456.2854738108      7.04e-08  
   11    -456.2854738122      3.37e-08  
   12    -456.2854738128      1.79e-08  
   13    -456.2854738131      1.08e-08  
   14    -456.2854738132      7.25e-09  Convergence criterion met
 ---------------------------------------
 SCF time:   CPU 3197.92s  wall 115.00s 
<S^2> =          0.759546772
(3)  G-ENP(liq) elect-nuc-pol free energy of system     -456.285473813 a.u.
(4)  G-CDS(liq) cavity-dispersion-solvent structure 
     free energy                                               -2.7236 kcal/mol
(6)  G-S(liq) free energy of system                     -456.289814196 a.u.
 SCF   energy in the final basis set =     -456.2854738132
 Total energy in the final basis set =     -456.2898141962
 
 --------------------------------------------------------------
 
                    Orbital Energies (a.u.)
 --------------------------------------------------------------
 
 Alpha MOs
 -- Occupied --
-19.2830 -19.2762 -19.2465 -19.2061 -10.4511 -10.3680 -10.3419 -10.3401
 -1.3055  -1.2117  -1.1884  -1.1772  -0.9103  -0.8034  -0.7464  -0.7322
 -0.6677  -0.6408  -0.6168  -0.6009  -0.5775  -0.5619  -0.5552  -0.5247
 -0.5041  -0.4961  -0.4890  -0.4235  -0.4154  -0.4077  -0.2796
 -- Virtual --
  0.0432   0.0567   0.0757   0.0803   0.0809   0.1033   0.1070   0.1151
  0.1176   0.1234   0.1256   0.1488   0.1528   0.1585   0.1651   0.1658
  0.1742   0.1924   0.1966   0.2125   0.2207   0.2298   0.2316   0.2385
  0.2446   0.2640   0.2729   0.2776   0.2812   0.2886   0.2930   0.3062
  0.3145   0.3155   0.3271   0.3317   0.3372   0.3381   0.3528   0.3573
  0.3678   0.3684   0.3760   0.3876   0.3909   0.3949   0.3993   0.4102
  0.4209   0.4302   0.4317   0.4408   0.4462   0.4517   0.4557   0.4649
  0.4670   0.4771   0.4818   0.4987   0.5039   0.5119   0.5257   0.5280
  0.5373   0.5489   0.5517   0.5556   0.5635   0.5696   0.5761   0.5916
  0.5985   0.6148   0.6193   0.6258   0.6333   0.6502   0.6546   0.6680
  0.6716   0.6728   0.6858   0.6930   0.6997   0.7162   0.7194   0.7257
  0.7311   0.7537   0.7615   0.7663   0.7751   0.7880   0.7946   0.7958
  0.8015   0.8235   0.8271   0.8420   0.8460   0.8565   0.8699   0.8868
  0.9032   0.9172   0.9192   0.9308   0.9460   0.9582   0.9691   0.9753
  0.9837   0.9927   1.0135   1.0280   1.0344   1.0571   1.0693   1.0909
  1.1148   1.1248   1.1334   1.1564   1.1630   1.2028   1.2077   1.2188
  1.2219   1.2360   1.2556   1.2648   1.2778   1.2986   1.3023   1.3221
  1.3299   1.3515   1.3628   1.3653   1.3878   1.4095   1.4147   1.4277
  1.4436   1.4659   1.4730   1.5006   1.5379   1.5624   1.5977   1.6120
  1.6361   1.6484   1.6687   1.7051   1.7177   1.7499   1.7623   1.8046
  1.8181   1.8589   1.8676   1.8952   1.9081   1.9151   1.9398   1.9616
  1.9778   2.0045   2.0254   2.0591   2.0801   2.1015   2.1269   2.1608
  2.1727   2.2347   2.2393   2.2742   2.2969   2.3068   2.3331   2.3563
  2.3815   2.3979   2.4181   2.4470   2.4617   2.4949   2.5023   2.5741
  2.6022   2.6494   2.6822   2.7194   2.7476   2.7867   2.8450   2.8666
  2.8860   2.9123   2.9373   2.9716   2.9728   2.9946   3.0025   3.0207
  3.0381   3.0727   3.0798   3.1100   3.1509   3.1611   3.1772   3.1833
  3.2022   3.2226   3.2358   3.2524   3.2633   3.2727   3.2817   3.3085
  3.3386   3.3656   3.3747   3.4012   3.4085   3.4138   3.4212   3.4492
  3.4607   3.4821   3.5031   3.5218   3.5347   3.5485   3.5571   3.5732
  3.5851   3.6183   3.6478   3.6514   3.6671   3.6816   3.7121   3.7211
  3.7367   3.7459   3.7812   3.8176   3.8369   3.8661   3.8755   3.8779
  3.9163   3.9240   4.0055   4.0141   4.0330   4.0546   4.0798   4.1111
  4.1684   4.1943   4.2143   4.2391   4.2559   4.3013   4.3461   4.3510
  4.3799   4.4063   4.4307   4.4737   4.4804   4.5801   4.6212   4.6263
  4.6454   4.6748   4.7091   4.7479   4.7754   4.8299   4.8809   4.9113
  4.9560   4.9703   5.0045   5.0245   5.0295   5.0777   5.0967   5.1422
  5.2347   5.2631   5.2852   5.3178   5.3464   5.3563   5.3648   5.3750
  5.4346   5.4790   5.5186   5.5331   5.6345   5.6500   5.6772   5.7213
  5.7430   5.7670   5.7715   5.8073   5.8786   5.9384   5.9666   6.0090
  6.0968   6.1114   6.2044   6.2211   6.2549   6.2996   6.3105   6.4000
  6.5117   6.5526   6.5637   6.5917   6.6383   6.6796   6.6979   6.7040
  6.8707   6.8751   6.8919   6.9022   6.9269   7.0202   7.0656   7.0948
  7.1510   7.1828   7.1908   7.2998   7.3118   7.3987   7.4753   7.5870
  7.6561   7.6770  23.1674  23.4451  23.5412  23.9207  44.1481  44.4171
 44.4542  44.5862
 
 Beta MOs
 -- Occupied --
-19.2818 -19.2762 -19.2439 -19.2060 -10.4511 -10.3622 -10.3403 -10.3333
 -1.3036  -1.2051  -1.1861  -1.1766  -0.9012  -0.7946  -0.7333  -0.7229
 -0.6566  -0.6368  -0.6074  -0.5863  -0.5664  -0.5603  -0.5501  -0.5212
 -0.4985  -0.4845  -0.4779  -0.4210  -0.4144  -0.3716
 -- Virtual --
  0.0043   0.0500   0.0572   0.0769   0.0812   0.0817   0.1039   0.1086
  0.1157   0.1184   0.1253   0.1282   0.1500   0.1541   0.1595   0.1657
  0.1674   0.1747   0.1945   0.1980   0.2138   0.2224   0.2316   0.2341
  0.2399   0.2456   0.2668   0.2747   0.2811   0.2826   0.2903   0.2955
  0.3083   0.3166   0.3181   0.3283   0.3363   0.3393   0.3422   0.3546
  0.3593   0.3704   0.3710   0.3779   0.3888   0.3928   0.3972   0.4005
  0.4116   0.4251   0.4327   0.4396   0.4415   0.4487   0.4536   0.4579
  0.4678   0.4685   0.4805   0.4845   0.5003   0.5063   0.5171   0.5280
  0.5296   0.5393   0.5500   0.5546   0.5575   0.5651   0.5719   0.5808
  0.5937   0.6000   0.6152   0.6206   0.6272   0.6342   0.6519   0.6560
  0.6688   0.6724   0.6754   0.6880   0.6947   0.7012   0.7182   0.7216
  0.7297   0.7326   0.7577   0.7638   0.7686   0.7766   0.7892   0.7972
  0.7988   0.8032   0.8257   0.8286   0.8428   0.8478   0.8615   0.8720
  0.8874   0.9046   0.9193   0.9211   0.9323   0.9486   0.9605   0.9713
  0.9763   0.9850   0.9940   1.0158   1.0296   1.0365   1.0590   1.0739
  1.0921   1.1167   1.1273   1.1354   1.1582   1.1652   1.2090   1.2099
  1.2211   1.2231   1.2400   1.2574   1.2687   1.2798   1.3016   1.3055
  1.3256   1.3312   1.3535   1.3669   1.3677   1.3898   1.4108   1.4205
  1.4312   1.4461   1.4672   1.4748   1.5061   1.5404   1.5673   1.6018
  1.6161   1.6395   1.6502   1.6720   1.7074   1.7200   1.7529   1.7640
  1.8086   1.8237   1.8698   1.8725   1.9001   1.9137   1.9234   1.9420
  1.9639   1.9797   2.0069   2.0289   2.0620   2.0833   2.1061   2.1293
  2.1657   2.1795   2.2385   2.2431   2.2777   2.2994   2.3098   2.3389
  2.3619   2.3860   2.4033   2.4198   2.4500   2.4660   2.4961   2.5056
  2.5762   2.6073   2.6579   2.6858   2.7218   2.7570   2.7934   2.8497
  2.8764   2.8909   2.9179   2.9417   2.9757   2.9798   2.9977   3.0066
  3.0266   3.0404   3.0804   3.0877   3.1198   3.1573   3.1634   3.1821
  3.1920   3.2060   3.2270   3.2455   3.2612   3.2712   3.2805   3.2911
  3.3184   3.3476   3.3692   3.3819   3.4045   3.4113   3.4193   3.4288
  3.4585   3.4669   3.4853   3.5081   3.5242   3.5403   3.5559   3.5624
  3.5761   3.5907   3.6219   3.6516   3.6562   3.6730   3.6840   3.7179
  3.7273   3.7429   3.7516   3.7908   3.8204   3.8417   3.8690   3.8790
  3.8891   3.9216   3.9300   4.0105   4.0185   4.0368   4.0613   4.0854
  4.1161   4.1743   4.2015   4.2186   4.2439   4.2628   4.3032   4.3478
  4.3589   4.3820   4.4084   4.4350   4.4759   4.4816   4.5848   4.6258
  4.6297   4.6487   4.6808   4.7135   4.7533   4.7821   4.8342   4.8841
  4.9177   4.9596   4.9763   5.0080   5.0270   5.0358   5.0798   5.1014
  5.1490   5.2398   5.2667   5.2870   5.3229   5.3503   5.3616   5.3699
  5.3804   5.4419   5.4821   5.5220   5.5366   5.6360   5.6527   5.6823
  5.7233   5.7455   5.7724   5.7752   5.8097   5.8835   5.9399   5.9719
  6.0117   6.0982   6.1144   6.2058   6.2301   6.2579   6.3025   6.3199
  6.4009   6.5124   6.5562   6.5699   6.6010   6.6394   6.6813   6.6993
  6.7119   6.8721   6.8791   6.8936   6.9109   6.9288   7.0210   7.0694
  7.0961   7.1528   7.1864   7.1972   7.3032   7.3132   7.3995   7.4762
  7.5875   7.6570   7.6773  23.1762  23.4501  23.5444  23.9209  44.1513
 44.4177  44.4545  44.5871
 --------------------------------------------------------------
 
          Ground-State Mulliken Net Atomic Charges

     Atom                 Charge (a.u.)    Spin (a.u.)
  --------------------------------------------------------
      1 O                    -0.262934       0.033733
      2 C                     0.454749       0.008179
      3 C                     0.349115       0.486889
      4 O                    -0.453162       0.008345
      5 O                    -0.265167       0.002868
      6 C                     0.082033      -0.002127
      7 H                    -0.122678      -0.035952
      8 H                     0.074168       0.004086
      9 H                     0.084815       0.012471
     10 H                     0.063320       0.021800
     11 C                     0.278590       0.306334
     12 O                    -0.358799       0.101002
     13 H                     0.075949       0.052371
  --------------------------------------------------------
  Sum of atomic charges =     0.000000
  Sum of spin   charges =     1.000000

  Building new vdw surfaces
         Merz-Kollman RESP Net Atomic Charges

     Atom                 Charge (a.u.)
  ----------------------------------------
      1 O                    -0.373434
      2 C                     0.868883
      3 C                     0.118871
      4 O                    -0.609280
      5 O                    -0.367133
      6 C                    -0.062092
      7 H                    -0.101787
      8 H                     0.130646
      9 H                     0.148245
     10 H                     0.148245
     11 C                     0.482324
     12 O                    -0.435206
     13 H                     0.051718
  ----------------------------------------
  Sum of atomic charges =     0.000000

  Related Dipole Moment =     9.1367 (X -6.6600 Y  6.1471 Z  1.1564)

 -----------------------------------------------------------------
                    Cartesian Multipole Moments
 -----------------------------------------------------------------
    Charge (ESU x 10^10)
                 0.0000
    Dipole Moment (Debye)
         X      -6.6384      Y       6.1044      Z       1.1851
       Tot       9.0960
    Quadrupole Moments (Debye-Ang)
        XX     -23.1631     XY      15.1606     YY     -90.8989
        XZ      -2.7873     YZ      -0.9402     ZZ     -45.9915
    Octopole Moments (Debye-Ang^2)
       XXX     154.8328    XXY      95.0444    XYY      45.5924
       YYY     796.1426    XXZ      -5.7051    XYZ       7.6049
       YYZ     -14.0385    XZZ      76.6129    YZZ     176.5153
       ZZZ     -38.6034
    Hexadecapole Moments (Debye-Ang^3)
      XXXX    -881.3101   XXXY    -625.2199   XXYY    -670.7589
      XYYY    -870.8285   YYYY   -6133.6313   XXXZ      34.2866
      XXYZ      14.2860   XYYZ      -8.3227   YYYZ     132.8112
      XXZZ    -213.3644   XYZZ    -309.3984   YYZZ    -809.5098
      XZZZ      49.7579   YZZZ     118.5036   ZZZZ    -200.0999
 -----------------------------------------------------------------
 Calculating analytic gradient of the SCF energy
 Gradient of CDS energy
            1           2           3           4           5           6
    1  -0.0000253   0.0009559  -0.0005925   0.0002031  -0.0006099  -0.0008280
    2   0.0008023  -0.0016417   0.0005792  -0.0002024   0.0008590  -0.0000971
    3   0.0001496  -0.0001741   0.0015138   0.0000285  -0.0000966  -0.0013274
            7           8           9          10          11          12
    1   0.0005430   0.0001972   0.0001888   0.0002712  -0.0001726  -0.0001625
    2  -0.0006381  -0.0000483  -0.0002230  -0.0000400   0.0017169  -0.0006877
    3  -0.0006366  -0.0002079   0.0001861   0.0000518   0.0006898  -0.0000857
           13
    1   0.0000314
    2  -0.0003791
    3  -0.0000914
 Gradient of SCF Energy
            1           2           3           4           5           6
    1   0.0028196   0.0017264   0.0036393  -0.0026400   0.0016669   0.0123755
    2  -0.0013973  -0.0045463  -0.0048054   0.0042096  -0.0013022  -0.0046944
    3   0.0003093   0.0005193  -0.0132068  -0.0000275  -0.0008771   0.0089575
            7           8           9          10          11          12
    1  -0.0015612  -0.0098433  -0.0000984  -0.0131961  -0.0028807   0.0087170
    2  -0.0001171   0.0033553   0.0110510  -0.0055260  -0.0058526  -0.0051860
    3   0.0039037   0.0098562  -0.0079497  -0.0004478  -0.0010520  -0.0037028
           13
    1  -0.0007250
    2   0.0148113
    3   0.0037176
 Max gradient component =       1.481E-02
 RMS gradient           =       6.278E-03
 Computing fast CPCM-SWIG gradient
 Updating gradient with PCM contributions...
 -- total gradient after adding PCM contribution --
---------------------------------------------------
  Atom         X              Y              Z     
---------------------------------------------------
   1       0.000403      -0.000341       0.000039
   2      -0.000160       0.000039       0.000035
   3      -0.000220       0.000105      -0.000089
   4      -0.000028       0.000106       0.000084
   5       0.000034       0.000013      -0.000015
   6      -0.000037       0.000066      -0.000040
   7       0.000054      -0.000006       0.000055
   8      -0.000016       0.000050      -0.000031
   9      -0.000023      -0.000018       0.000006
  10       0.000021      -0.000023       0.000008
  11      -0.000046       0.000033      -0.000027
  12       0.000002      -0.000020      -0.000006
  13       0.000015      -0.000004      -0.000018
---------------------------------------------------
 Number of fixed atoms: 0
 Gradient time:  CPU 670.65 s  wall 29.23 s
 ----------------------------------------------------------------
             Standard Nuclear Orientation (Angstroms)
    I     Atom           X                Y                Z
 ----------------------------------------------------------------
    1      O      -1.9337170103    -4.3174774174     1.3394474306
    2      C      -1.5679825504    -4.9692915330     0.2131949447
    3      C      -2.8117166195    -3.2672228285     0.9985650609
    4      O      -0.7314331758    -5.8227507995     0.1735347022
    5      O      -2.2736140125    -4.5382521363    -0.8392508077
    6      C      -3.2708933425    -3.5906799742    -0.3997280389
    7      H      -1.9658006406    -2.1344404594     0.9125319203
    8      H      -3.5489902237    -3.0864144473     1.7760117190
    9      H      -3.2575638000    -2.7329641132    -1.0743409980
   10      H      -4.2510590539    -4.0750056370    -0.4332719689
   11      C      -0.9365052060    -1.3633295518     0.6420771153
   12      O       0.0306758643    -1.8483715526     0.1428350598
   13      H      -1.0258202290    -0.2865395498     0.9016738605
 ----------------------------------------------------------------
 Nuclear Repulsion Energy =         375.80291245 hartrees
 There are       31 alpha and       30 beta electrons
 Discretize the solute cavity surface with Lebedev spheres
	Using 110 Lebedev grid points for each H atom
	Using 194 Lebedev grid points for other atoms
	Atomic van der Waals radii will be scaled by 1.20
 Remove points where switching function is < 1.0e-08
 Keep 916 surface tesserae and discard 1186 interior tesserae
 Molecular Surface Area = 177.056 Angst**2

                       Distance Matrix (Angstroms)
             O (  1)   C (  2)   C (  3)   O (  4)   O (  5)   C (  6)
   C (  2)  1.351691
   C (  3)  1.410716  2.249604
   O (  4)  2.251819  1.195734  3.396907
   O (  5)  2.216077  1.338414  2.298399  2.248109
   C (  6)  2.311062  2.275115  1.506881  3.429231  1.444174
   H (  7)  2.224621  2.946814  1.416394  3.958966  2.990285  2.354979
   H (  8)  2.077309  3.148335  1.086594  4.241945  3.251771  2.250659
   H (  9)  3.176417  3.084411  2.186584  4.181544  2.069418  1.091310
   H ( 10)  2.927695  2.901132  2.185035  3.976254  2.071160  1.093810
   C ( 11)  3.194956  3.685874  2.695981  4.488655  3.749977  3.390548
   O ( 12)  3.374493  3.507250  3.290077  4.046905  3.675555  3.772317
   H ( 13)  4.155043  4.764043  3.476102  5.591644  4.760763  4.201350
             H (  7)   H (  8)   H (  9)   H ( 10)   C ( 11)   O ( 12)
   H (  8)  2.039201
   H (  9)  2.444289  2.886930
   H ( 10)  3.286242  2.520148  1.788597
   C ( 11)  1.314232  3.328649  3.195200  4.415408
   O ( 12)  2.158747  4.124806  3.616150  4.860355  1.191616
   H ( 13)  2.073263  3.869128  3.856204  5.151381  1.111236  2.032570

 
 Requested basis set is def2-TZVPPD
 There are 143 shells and 393 basis functions
 A cutoff of  1.0D-14 yielded   9712 shell pairs
 There are     74146 function pairs (     95431 Cartesian)
 Smallest overlap matrix eigenvalue = 4.05E-06
 Guess MOs from SCF MO coefficient file

 -----------------------------------------------------------------------
  General SCF calculation program by
  Eric Jon Sundstrom, Paul Horn, Yuezhi Mao, Dmitri Zuev, Alec White,
  David Stuck, Shaama M.S., Shane Yost, Joonho Lee, David Small,
  Daniel Levine, Susi Lehtola, Hugh Burton, Evgeny Epifanovsky,
  Bang C. Huynh
 -----------------------------------------------------------------------
 Exchange:     0.1670 Hartree-Fock + 1.0000 wB97X-V + LR-HF
 Correlation:  1.0000 wB97X-V
 Using SG-3 standard quadrature grid
 Nonlocal Correlation:  VV10 with C = 0.0100 and b = 6.00 and scale = 1.00000
 Grid used for NLC:  SG-1 standard quadrature
 
 Citation of the SMD model:
 Marenich, A.V.; Cramer, C.J.; Truhlar, D.G.
 J. Phys. Chem. B 2009, 113, 6378-6396.
 iSolventCode=           0
 Solvent: other                                                           
 
 vradii
            1           2           3           4           5           6
    1   2.2940000   1.8500000   1.8500000   2.2940000   2.2940000   1.8500000
            7           8           9          10          11          12
    1   1.2000000   1.2000000   1.2000000   1.2000000   1.8500000   2.2940000
           13
    1   1.2000000
 using 40 threads for integral computing
 -------------------------------------------------------
 OpenMP Integral computing Module                
 Release: version 1.0, May 2013, Q-Chem Inc. Pittsburgh 
 -------------------------------------------------------
 using 40 threads for integral computing
 -------------------------------------------------------
 OpenMP Integral computing Module                
 Release: version 1.0, May 2013, Q-Chem Inc. Pittsburgh 
 -------------------------------------------------------
 -------------------------------------------------------
 OpenMP BLAS3 based DFT computing Module                
 Release: version 1.0, May 2013, Q-Chem Inc. Pittsburgh 
 -------------------------------------------------------
 -------------------------------------------------------
 OpenMP BLAS3 based DFT computing Module                
 Release: version 1.0, May 2013, Q-Chem Inc. Pittsburgh 
 -------------------------------------------------------
 -------------------------------------------------------
 OpenMP BLAS3 based DFT computing Module                
 Release: version 1.0, May 2013, Q-Chem Inc. Pittsburgh 
 -------------------------------------------------------
 A unrestricted SCF calculation will be
 performed using Roothaan-Hall, DIIS
 SCF converges when DIIS error is below 1.0e-08
 ---------------------------------------
  Cycle       Energy         DIIS error
 ---------------------------------------
    1    -456.8317873905      1.69e-04  Roothaan Step
 ---------------------------------------
  Cycle       Energy         DIIS error
 ---------------------------------------
    1    -456.2797176576      2.22e-04  
    2    -456.2817197937      2.66e-04  
    3    -456.2853450084      3.05e-05  
    4    -456.2854448284      1.72e-05  
    5    -456.2854693879      5.71e-06  
    6    -456.2854732593      2.22e-06  
    7    -456.2854737083      7.71e-07  
    8    -456.2854737935      3.11e-07  
    9    -456.2854738086      1.72e-07  
   10    -456.2854738140      7.20e-08  
   11    -456.2854738155      3.44e-08  
   12    -456.2854738162      1.78e-08  
   13    -456.2854738164      1.05e-08  
   14    -456.2854738165      7.02e-09  Convergence criterion met
 ---------------------------------------
 SCF time:   CPU 3191.64s  wall 115.00s 
<S^2> =          0.759541503
(3)  G-ENP(liq) elect-nuc-pol free energy of system     -456.285473817 a.u.
(4)  G-CDS(liq) cavity-dispersion-solvent structure 
     free energy                                               -2.7236 kcal/mol
(6)  G-S(liq) free energy of system                     -456.289814185 a.u.
 SCF   energy in the final basis set =     -456.2854738165
 Total energy in the final basis set =     -456.2898141847
 
 --------------------------------------------------------------
 
                    Orbital Energies (a.u.)
 --------------------------------------------------------------
 
 Alpha MOs
 -- Occupied --
-19.2830 -19.2762 -19.2464 -19.2063 -10.4512 -10.3680 -10.3418 -10.3400
 -1.3055  -1.2116  -1.1885  -1.1774  -0.9103  -0.8034  -0.7464  -0.7322
 -0.6678  -0.6408  -0.6168  -0.6008  -0.5775  -0.5621  -0.5552  -0.5247
 -0.5042  -0.4961  -0.4890  -0.4236  -0.4155  -0.4076  -0.2795
 -- Virtual --
  0.0432   0.0567   0.0757   0.0803   0.0809   0.1033   0.1070   0.1151
  0.1176   0.1233   0.1256   0.1488   0.1528   0.1585   0.1651   0.1658
  0.1742   0.1926   0.1966   0.2125   0.2207   0.2298   0.2316   0.2385
  0.2446   0.2641   0.2728   0.2776   0.2811   0.2886   0.2930   0.3063
  0.3145   0.3156   0.3271   0.3318   0.3372   0.3381   0.3528   0.3572
  0.3678   0.3683   0.3760   0.3876   0.3910   0.3949   0.3993   0.4102
  0.4210   0.4303   0.4317   0.4408   0.4462   0.4517   0.4557   0.4649
  0.4669   0.4771   0.4818   0.4986   0.5038   0.5119   0.5257   0.5280
  0.5373   0.5489   0.5517   0.5556   0.5635   0.5697   0.5762   0.5916
  0.5985   0.6147   0.6193   0.6258   0.6333   0.6502   0.6546   0.6680
  0.6717   0.6728   0.6858   0.6930   0.6998   0.7162   0.7193   0.7257
  0.7312   0.7538   0.7616   0.7662   0.7751   0.7881   0.7946   0.7958
  0.8015   0.8234   0.8271   0.8420   0.8460   0.8566   0.8699   0.8868
  0.9031   0.9172   0.9192   0.9308   0.9460   0.9582   0.9691   0.9752
  0.9838   0.9927   1.0135   1.0279   1.0344   1.0572   1.0694   1.0910
  1.1149   1.1248   1.1334   1.1564   1.1631   1.2028   1.2078   1.2188
  1.2218   1.2361   1.2557   1.2647   1.2777   1.2987   1.3024   1.3221
  1.3297   1.3516   1.3628   1.3653   1.3878   1.4095   1.4148   1.4277
  1.4436   1.4658   1.4731   1.5005   1.5379   1.5625   1.5978   1.6119
  1.6361   1.6486   1.6688   1.7052   1.7177   1.7498   1.7624   1.8047
  1.8181   1.8589   1.8675   1.8953   1.9081   1.9151   1.9398   1.9616
  1.9779   2.0046   2.0254   2.0591   2.0801   2.1018   2.1270   2.1608
  2.1726   2.2345   2.2393   2.2742   2.2971   2.3070   2.3332   2.3564
  2.3814   2.3978   2.4181   2.4472   2.4617   2.4948   2.5022   2.5744
  2.6023   2.6492   2.6823   2.7197   2.7476   2.7867   2.8451   2.8664
  2.8863   2.9124   2.9373   2.9715   2.9729   2.9946   3.0026   3.0208
  3.0380   3.0726   3.0799   3.1101   3.1511   3.1610   3.1773   3.1835
  3.2023   3.2226   3.2359   3.2524   3.2634   3.2728   3.2819   3.3086
  3.3386   3.3658   3.3747   3.4012   3.4086   3.4138   3.4213   3.4493
  3.4607   3.4820   3.5031   3.5217   3.5345   3.5485   3.5572   3.5732
  3.5851   3.6183   3.6477   3.6516   3.6673   3.6816   3.7120   3.7212
  3.7367   3.7461   3.7813   3.8174   3.8370   3.8660   3.8757   3.8779
  3.9168   3.9242   4.0056   4.0143   4.0332   4.0547   4.0798   4.1111
  4.1684   4.1943   4.2143   4.2390   4.2564   4.3015   4.3462   4.3511
  4.3799   4.4065   4.4311   4.4737   4.4805   4.5802   4.6213   4.6265
  4.6454   4.6748   4.7092   4.7480   4.7754   4.8300   4.8808   4.9116
  4.9563   4.9704   5.0047   5.0247   5.0294   5.0780   5.0966   5.1422
  5.2347   5.2631   5.2852   5.3179   5.3464   5.3563   5.3645   5.3750
  5.4346   5.4789   5.5185   5.5330   5.6344   5.6503   5.6773   5.7214
  5.7431   5.7671   5.7717   5.8073   5.8799   5.9384   5.9665   6.0091
  6.0968   6.1126   6.2045   6.2214   6.2549   6.2998   6.3105   6.3999
  6.5117   6.5530   6.5638   6.5918   6.6382   6.6797   6.6978   6.7040
  6.8708   6.8754   6.8919   6.9022   6.9269   7.0201   7.0661   7.0948
  7.1507   7.1829   7.1907   7.2998   7.3119   7.3989   7.4755   7.5865
  7.6560   7.6765  23.1690  23.4450  23.5415  23.9193  44.1482  44.4173
 44.4543  44.5867
 
 Beta MOs
 -- Occupied --
-19.2818 -19.2762 -19.2438 -19.2062 -10.4512 -10.3621 -10.3403 -10.3332
 -1.3037  -1.2051  -1.1861  -1.1768  -0.9012  -0.7947  -0.7334  -0.7229
 -0.6567  -0.6369  -0.6074  -0.5863  -0.5664  -0.5605  -0.5501  -0.5212
 -0.4985  -0.4844  -0.4780  -0.4211  -0.4145  -0.3715
 -- Virtual --
  0.0043   0.0500   0.0572   0.0769   0.0812   0.0817   0.1039   0.1085
  0.1157   0.1184   0.1253   0.1282   0.1500   0.1541   0.1595   0.1657
  0.1674   0.1747   0.1946   0.1980   0.2138   0.2224   0.2316   0.2340
  0.2399   0.2456   0.2669   0.2747   0.2812   0.2826   0.2904   0.2955
  0.3083   0.3166   0.3182   0.3283   0.3363   0.3393   0.3423   0.3546
  0.3593   0.3704   0.3710   0.3779   0.3888   0.3928   0.3971   0.4005
  0.4116   0.4252   0.4327   0.4396   0.4415   0.4487   0.4536   0.4579
  0.4678   0.4685   0.4805   0.4845   0.5002   0.5063   0.5171   0.5280
  0.5296   0.5393   0.5500   0.5546   0.5575   0.5651   0.5719   0.5808
  0.5937   0.6000   0.6151   0.6206   0.6272   0.6342   0.6519   0.6560
  0.6688   0.6724   0.6754   0.6880   0.6947   0.7013   0.7182   0.7216
  0.7298   0.7327   0.7578   0.7639   0.7686   0.7766   0.7893   0.7972
  0.7988   0.8032   0.8257   0.8287   0.8429   0.8478   0.8615   0.8720
  0.8873   0.9046   0.9193   0.9211   0.9323   0.9486   0.9606   0.9713
  0.9762   0.9851   0.9940   1.0158   1.0296   1.0365   1.0591   1.0740
  1.0922   1.1167   1.1273   1.1354   1.1582   1.1652   1.2091   1.2099
  1.2211   1.2230   1.2400   1.2575   1.2686   1.2798   1.3017   1.3056
  1.3255   1.3311   1.3536   1.3669   1.3677   1.3898   1.4108   1.4206
  1.4313   1.4462   1.4670   1.4750   1.5060   1.5404   1.5674   1.6018
  1.6160   1.6395   1.6504   1.6720   1.7074   1.7201   1.7528   1.7641
  1.8088   1.8238   1.8698   1.8725   1.9003   1.9137   1.9235   1.9420
  1.9639   1.9798   2.0069   2.0289   2.0620   2.0834   2.1064   2.1295
  2.1657   2.1794   2.2383   2.2432   2.2777   2.2996   2.3099   2.3390
  2.3620   2.3860   2.4031   2.4198   2.4502   2.4660   2.4959   2.5055
  2.5765   2.6074   2.6577   2.6859   2.7221   2.7570   2.7934   2.8499
  2.8762   2.8912   2.9180   2.9418   2.9758   2.9798   2.9977   3.0066
  3.0267   3.0403   3.0803   3.0878   3.1199   3.1575   3.1633   3.1822
  3.1922   3.2061   3.2270   3.2456   3.2612   3.2714   3.2805   3.2913
  3.3185   3.3476   3.3693   3.3818   3.4045   3.4114   3.4193   3.4289
  3.4586   3.4668   3.4853   3.5081   3.5241   3.5402   3.5559   3.5624
  3.5761   3.5906   3.6220   3.6514   3.6565   3.6732   3.6840   3.7178
  3.7274   3.7428   3.7517   3.7909   3.8202   3.8418   3.8690   3.8793
  3.8890   3.9221   3.9302   4.0107   4.0187   4.0370   4.0613   4.0854
  4.1161   4.1743   4.2015   4.2187   4.2437   4.2632   4.3035   4.3479
  4.3590   4.3820   4.4085   4.4354   4.4759   4.4817   4.5849   4.6259
  4.6298   4.6487   4.6808   4.7136   4.7534   4.7821   4.8342   4.8841
  4.9180   4.9598   4.9764   5.0082   5.0272   5.0357   5.0800   5.1013
  5.1490   5.2398   5.2667   5.2870   5.3230   5.3504   5.3616   5.3696
  5.3803   5.4419   5.4821   5.5219   5.5365   5.6359   5.6530   5.6825
  5.7234   5.7457   5.7725   5.7754   5.8098   5.8849   5.9400   5.9717
  6.0119   6.0983   6.1156   6.2060   6.2303   6.2579   6.3026   6.3201
  6.4008   6.5124   6.5567   6.5700   6.6011   6.6393   6.6814   6.6991
  6.7119   6.8721   6.8794   6.8937   6.9110   6.9288   7.0209   7.0699
  7.0961   7.1526   7.1865   7.1972   7.3032   7.3132   7.3996   7.4765
  7.5870   7.6569   7.6767  23.1778  23.4501  23.5446  23.9195  44.1514
 44.4178  44.4545  44.5876
 --------------------------------------------------------------
 
          Ground-State Mulliken Net Atomic Charges

     Atom                 Charge (a.u.)    Spin (a.u.)
  --------------------------------------------------------
      1 O                    -0.262876       0.033977
      2 C                     0.454559       0.008202
      3 C                     0.349241       0.486663
      4 O                    -0.452820       0.008380
      5 O                    -0.265178       0.002878
      6 C                     0.081724      -0.002072
      7 H                    -0.122386      -0.035978
      8 H                     0.074062       0.004133
      9 H                     0.084813       0.012455
     10 H                     0.063366       0.021793
     11 C                     0.278480       0.306371
     12 O                    -0.358913       0.100863
     13 H                     0.075926       0.052333
  --------------------------------------------------------
  Sum of atomic charges =     0.000000
  Sum of spin   charges =     1.000000

  Building new vdw surfaces
         Merz-Kollman RESP Net Atomic Charges

     Atom                 Charge (a.u.)
  ----------------------------------------
      1 O                    -0.373645
      2 C                     0.868754
      3 C                     0.120009
      4 O                    -0.608848
      5 O                    -0.366840
      6 C                    -0.062967
      7 H                    -0.102397
      8 H                     0.130382
      9 H                     0.148378
     10 H                     0.148378
     11 C                     0.482627
     12 O                    -0.435441
     13 H                     0.051608
  ----------------------------------------
  Sum of atomic charges =     0.000000

  Related Dipole Moment =     9.1279 (X -6.6553 Y  6.1393 Z  1.1557)

 -----------------------------------------------------------------
                    Cartesian Multipole Moments
 -----------------------------------------------------------------
    Charge (ESU x 10^10)
                 0.0000
    Dipole Moment (Debye)
         X      -6.6336      Y       6.0964      Z       1.1843
       Tot       9.0870
    Quadrupole Moments (Debye-Ang)
        XX     -23.1833     XY      15.1497     YY     -90.8374
        XZ      -2.7819     YZ      -0.9387     ZZ     -45.9931
    Octopole Moments (Debye-Ang^2)
       XXX     154.9347    XXY      95.1053    XYY      45.6205
       YYY     795.7292    XXZ      -5.7238    XYZ       7.5856
       YYZ     -14.0466    XZZ      76.6345    YZZ     176.5148
       ZZZ     -38.6049
    Hexadecapole Moments (Debye-Ang^3)
      XXXX    -881.8017   XXXY    -625.5775   XXYY    -670.9902
      XYYY    -870.9049   YYYY   -6130.9424   XXXZ      34.3860
      XXYZ      14.3533   XYYZ      -8.2257   YYYZ     132.8642
      XXZZ    -213.4456   XYZZ    -309.4777   YYZZ    -809.4878
      XZZZ      49.8094   YZZZ     118.5051   ZZZZ    -200.1052
 -----------------------------------------------------------------
 Calculating analytic gradient of the SCF energy
 Gradient of CDS energy
            1           2           3           4           5           6
    1   0.0000179   0.0009617  -0.0006412   0.0002027  -0.0006099  -0.0008280
    2   0.0007477  -0.0016446   0.0006376  -0.0002035   0.0008590  -0.0000975
    3   0.0001722  -0.0001749   0.0014950   0.0000256  -0.0000966  -0.0013268
            7           8           9          10          11          12
    1   0.0005430   0.0001972   0.0001888   0.0002712  -0.0001724  -0.0001623
    2  -0.0006381  -0.0000483  -0.0002230  -0.0000400   0.0017165  -0.0006868
    3  -0.0006366  -0.0002079   0.0001861   0.0000518   0.0006900  -0.0000863
           13
    1   0.0000314
    2  -0.0003791
    3  -0.0000914
 Gradient of SCF Energy
            1           2           3           4           5           6
    1   0.0019926   0.0020402   0.0040422  -0.0025697   0.0016104   0.0124296
    2  -0.0007175  -0.0046353  -0.0049673   0.0040249  -0.0013272  -0.0048032
    3   0.0002445   0.0004489  -0.0130665  -0.0001837  -0.0008494   0.0090288
            7           8           9          10          11          12
    1  -0.0015967  -0.0097765  -0.0000958  -0.0131882  -0.0028277   0.0086731
    2  -0.0001416   0.0032573   0.0110569  -0.0055160  -0.0058605  -0.0051640
    3   0.0039074   0.0098861  -0.0079343  -0.0004441  -0.0010705  -0.0036840
           13
    1  -0.0007335
    2   0.0147934
    3   0.0037167
 Max gradient component =       1.479E-02
 RMS gradient           =       6.269E-03
 Computing fast CPCM-SWIG gradient
 Updating gradient with PCM contributions...
 -- total gradient after adding PCM contribution --
---------------------------------------------------
  Atom         X              Y              Z     
---------------------------------------------------
   1      -0.000409       0.000331      -0.000023
   2       0.000157      -0.000045      -0.000030
   3       0.000175      -0.000083       0.000041
   4       0.000044      -0.000085      -0.000078
   5      -0.000022      -0.000012       0.000011
   6       0.000025      -0.000035       0.000042
   7       0.000015      -0.000028       0.000059
   8       0.000034      -0.000034       0.000009
   9      -0.000019      -0.000007       0.000016
  10       0.000020      -0.000015       0.000010
  11       0.000007       0.000029      -0.000048
  12      -0.000034      -0.000004       0.000009
  13       0.000006      -0.000010      -0.000016
---------------------------------------------------
 Number of fixed atoms: 0
 Gradient time:  CPU 666.62 s  wall 29.24 s
 ----------------------------------------------------------------
             Standard Nuclear Orientation (Angstroms)
    I     Atom           X                Y                Z
 ----------------------------------------------------------------
    1      O      -1.9327170103    -4.3164774174     1.3394474306
    2      C      -1.5679825504    -4.9692915330     0.2131949447
    3      C      -2.8117166195    -3.2672228285     0.9985650609
    4      O      -0.7314331758    -5.8227507995     0.1735347022
    5      O      -2.2736140125    -4.5382521363    -0.8392508077
    6      C      -3.2708933425    -3.5906799742    -0.3997280389
    7      H      -1.9658006406    -2.1344404594     0.9125319203
    8      H      -3.5489902237    -3.0864144473     1.7760117190
    9      H      -3.2575638000    -2.7329641132    -1.0743409980
   10      H      -4.2510590539    -4.0750056370    -0.4332719689
   11      C      -0.9365052060    -1.3633295518     0.6420771153
   12      O       0.0306758643    -1.8483715526     0.1428350598
   13      H      -1.0258202290    -0.2865395498     0.9016738605
 ----------------------------------------------------------------
 Nuclear Repulsion Energy =         375.80521159 hartrees
 There are       31 alpha and       30 beta electrons
 Discretize the solute cavity surface with Lebedev spheres
	Using 110 Lebedev grid points for each H atom
	Using 194 Lebedev grid points for other atoms
	Atomic van der Waals radii will be scaled by 1.20
 Remove points where switching function is < 1.0e-08
 Keep 916 surface tesserae and discard 1186 interior tesserae
 Molecular Surface Area = 177.049 Angst**2

                       Distance Matrix (Angstroms)
             O (  1)   C (  2)   C (  3)   O (  4)   O (  5)   C (  6)
   C (  2)  1.351903
   C (  3)  1.410594  2.249604
   O (  4)  2.251954  1.195734  3.396907
   O (  5)  2.216330  1.338414  2.298399  2.248109
   C (  6)  2.311326  2.275115  1.506881  3.429231  1.444174
   H (  7)  2.223654  2.946814  1.416394  3.958966  2.990285  2.354979
   H (  8)  2.077494  3.148335  1.086594  4.241945  3.251771  2.250659
   H (  9)  3.176336  3.084411  2.186584  4.181544  2.069418  1.091310
   H ( 10)  2.928404  2.901132  2.185035  3.976254  2.071160  1.093810
   C ( 11)  3.193720  3.685874  2.695981  4.488655  3.749977  3.390548
   O ( 12)  3.373179  3.507250  3.290077  4.046905  3.675555  3.772317
   H ( 13)  4.153854  4.764043  3.476102  5.591644  4.760763  4.201350
             H (  7)   H (  8)   H (  9)   H ( 10)   C ( 11)   O ( 12)
   H (  8)  2.039201
   H (  9)  2.444289  2.886930
   H ( 10)  3.286242  2.520148  1.788597
   C ( 11)  1.314232  3.328649  3.195200  4.415408
   O ( 12)  2.158747  4.124806  3.616150  4.860355  1.191616
   H ( 13)  2.073263  3.869128  3.856204  5.151381  1.111236  2.032570

 
 Requested basis set is def2-TZVPPD
 There are 143 shells and 393 basis functions
 A cutoff of  1.0D-14 yielded   9712 shell pairs
 There are     74146 function pairs (     95431 Cartesian)
 Smallest overlap matrix eigenvalue = 4.05E-06
 Guess MOs from SCF MO coefficient file

 -----------------------------------------------------------------------
  General SCF calculation program by
  Eric Jon Sundstrom, Paul Horn, Yuezhi Mao, Dmitri Zuev, Alec White,
  David Stuck, Shaama M.S., Shane Yost, Joonho Lee, David Small,
  Daniel Levine, Susi Lehtola, Hugh Burton, Evgeny Epifanovsky,
  Bang C. Huynh
 -----------------------------------------------------------------------
 Exchange:     0.1670 Hartree-Fock + 1.0000 wB97X-V + LR-HF
 Correlation:  1.0000 wB97X-V
 Using SG-3 standard quadrature grid
 Nonlocal Correlation:  VV10 with C = 0.0100 and b = 6.00 and scale = 1.00000
 Grid used for NLC:  SG-1 standard quadrature
 
 Citation of the SMD model:
 Marenich, A.V.; Cramer, C.J.; Truhlar, D.G.
 J. Phys. Chem. B 2009, 113, 6378-6396.
 iSolventCode=           0
 Solvent: other                                                           
 
 vradii
            1           2           3           4           5           6
    1   2.2940000   1.8500000   1.8500000   2.2940000   2.2940000   1.8500000
            7           8           9          10          11          12
    1   1.2000000   1.2000000   1.2000000   1.2000000   1.8500000   2.2940000
           13
    1   1.2000000
 using 40 threads for integral computing
 -------------------------------------------------------
 OpenMP Integral computing Module                
 Release: version 1.0, May 2013, Q-Chem Inc. Pittsburgh 
 -------------------------------------------------------
 using 40 threads for integral computing
 -------------------------------------------------------
 OpenMP Integral computing Module                
 Release: version 1.0, May 2013, Q-Chem Inc. Pittsburgh 
 -------------------------------------------------------
 -------------------------------------------------------
 OpenMP BLAS3 based DFT computing Module                
 Release: version 1.0, May 2013, Q-Chem Inc. Pittsburgh 
 -------------------------------------------------------
 -------------------------------------------------------
 OpenMP BLAS3 based DFT computing Module                
 Release: version 1.0, May 2013, Q-Chem Inc. Pittsburgh 
 -------------------------------------------------------
 -------------------------------------------------------
 OpenMP BLAS3 based DFT computing Module                
 Release: version 1.0, May 2013, Q-Chem Inc. Pittsburgh 
 -------------------------------------------------------
 A unrestricted SCF calculation will be
 performed using Roothaan-Hall, DIIS
 SCF converges when DIIS error is below 1.0e-08
 ---------------------------------------
  Cycle       Energy         DIIS error
 ---------------------------------------
    1    -456.8317000900      1.68e-04  Roothaan Step
 ---------------------------------------
  Cycle       Energy         DIIS error
 ---------------------------------------
    1    -456.2797207305      2.22e-04  
    2    -456.2817222600      2.66e-04  
    3    -456.2853464286      3.04e-05  
    4    -456.2854461989      1.72e-05  
    5    -456.2854707411      5.71e-06  
    6    -456.2854746112      2.22e-06  
    7    -456.2854750601      7.69e-07  
    8    -456.2854751450      3.11e-07  
    9    -456.2854751600      1.72e-07  
   10    -456.2854751655      7.22e-08  
   11    -456.2854751670      3.51e-08  
   12    -456.2854751677      1.86e-08  
   13    -456.2854751680      1.10e-08  
   14    -456.2854751681      7.42e-09  Convergence criterion met
 ---------------------------------------
 SCF time:   CPU 3198.81s  wall 115.00s 
<S^2> =          0.759542231
(3)  G-ENP(liq) elect-nuc-pol free energy of system     -456.285475168 a.u.
(4)  G-CDS(liq) cavity-dispersion-solvent structure 
     free energy                                               -2.7227 kcal/mol
(6)  G-S(liq) free energy of system                     -456.289814088 a.u.
 SCF   energy in the final basis set =     -456.2854751681
 Total energy in the final basis set =     -456.2898140877
 
 --------------------------------------------------------------
 
                    Orbital Energies (a.u.)
 --------------------------------------------------------------
 
 Alpha MOs
 -- Occupied --
-19.2830 -19.2762 -19.2464 -19.2064 -10.4513 -10.3679 -10.3417 -10.3400
 -1.3055  -1.2116  -1.1885  -1.1774  -0.9103  -0.8034  -0.7464  -0.7323
 -0.6678  -0.6408  -0.6168  -0.6009  -0.5775  -0.5621  -0.5552  -0.5247
 -0.5042  -0.4962  -0.4890  -0.4236  -0.4155  -0.4076  -0.2794
 -- Virtual --
  0.0432   0.0567   0.0757   0.0803   0.0809   0.1033   0.1070   0.1151
  0.1176   0.1233   0.1256   0.1488   0.1528   0.1585   0.1651   0.1658
  0.1742   0.1926   0.1966   0.2125   0.2207   0.2298   0.2316   0.2385
  0.2446   0.2641   0.2728   0.2776   0.2811   0.2886   0.2930   0.3063
  0.3146   0.3155   0.3271   0.3318   0.3372   0.3381   0.3528   0.3572
  0.3678   0.3684   0.3760   0.3876   0.3909   0.3949   0.3993   0.4102
  0.4210   0.4302   0.4317   0.4408   0.4462   0.4517   0.4557   0.4649
  0.4669   0.4771   0.4818   0.4986   0.5038   0.5119   0.5257   0.5280
  0.5374   0.5489   0.5517   0.5556   0.5635   0.5696   0.5762   0.5916
  0.5985   0.6147   0.6193   0.6258   0.6333   0.6502   0.6546   0.6680
  0.6716   0.6728   0.6858   0.6930   0.6998   0.7162   0.7194   0.7257
  0.7311   0.7537   0.7615   0.7663   0.7751   0.7880   0.7946   0.7958
  0.8015   0.8235   0.8271   0.8420   0.8460   0.8566   0.8699   0.8868
  0.9032   0.9172   0.9192   0.9308   0.9460   0.9582   0.9691   0.9752
  0.9837   0.9927   1.0135   1.0280   1.0344   1.0571   1.0693   1.0909
  1.1148   1.1248   1.1334   1.1564   1.1631   1.2028   1.2077   1.2187
  1.2219   1.2360   1.2556   1.2648   1.2777   1.2986   1.3024   1.3221
  1.3299   1.3516   1.3629   1.3654   1.3878   1.4095   1.4147   1.4277
  1.4436   1.4658   1.4731   1.5006   1.5380   1.5626   1.5978   1.6120
  1.6360   1.6484   1.6688   1.7051   1.7176   1.7499   1.7624   1.8046
  1.8181   1.8589   1.8676   1.8953   1.9081   1.9150   1.9398   1.9615
  1.9779   2.0046   2.0254   2.0591   2.0801   2.1017   2.1270   2.1608
  2.1727   2.2347   2.2394   2.2741   2.2972   2.3069   2.3331   2.3564
  2.3814   2.3976   2.4182   2.4471   2.4617   2.4948   2.5022   2.5744
  2.6023   2.6494   2.6822   2.7197   2.7476   2.7867   2.8451   2.8666
  2.8862   2.9124   2.9374   2.9716   2.9729   2.9946   3.0026   3.0209
  3.0380   3.0727   3.0799   3.1101   3.1511   3.1610   3.1773   3.1834
  3.2023   3.2226   3.2359   3.2524   3.2634   3.2726   3.2818   3.3086
  3.3388   3.3657   3.3747   3.4011   3.4086   3.4138   3.4213   3.4493
  3.4607   3.4821   3.5030   3.5217   3.5346   3.5485   3.5572   3.5732
  3.5851   3.6183   3.6477   3.6515   3.6672   3.6816   3.7121   3.7212
  3.7369   3.7461   3.7813   3.8173   3.8369   3.8661   3.8756   3.8780
  3.9166   3.9242   4.0056   4.0143   4.0332   4.0547   4.0798   4.1111
  4.1684   4.1943   4.2144   4.2390   4.2562   4.3015   4.3464   4.3511
  4.3801   4.4065   4.4310   4.4735   4.4805   4.5801   4.6213   4.6264
  4.6455   4.6748   4.7092   4.7479   4.7755   4.8300   4.8809   4.9115
  4.9563   4.9704   5.0047   5.0247   5.0295   5.0783   5.0966   5.1422
  5.2347   5.2631   5.2851   5.3178   5.3464   5.3563   5.3647   5.3749
  5.4346   5.4790   5.5185   5.5331   5.6344   5.6500   5.6772   5.7213
  5.7431   5.7670   5.7718   5.8074   5.8800   5.9384   5.9667   6.0091
  6.0970   6.1125   6.2046   6.2212   6.2549   6.2999   6.3106   6.3997
  6.5115   6.5530   6.5638   6.5918   6.6381   6.6797   6.6977   6.7040
  6.8707   6.8752   6.8919   6.9023   6.9270   7.0200   7.0662   7.0949
  7.1507   7.1828   7.1907   7.2998   7.3118   7.3988   7.4753   7.5865
  7.6558   7.6765  23.1691  23.4450  23.5415  23.9188  44.1482  44.4171
 44.4542  44.5870
 
 Beta MOs
 -- Occupied --
-19.2818 -19.2762 -19.2438 -19.2062 -10.4513 -10.3621 -10.3403 -10.3332
 -1.3037  -1.2051  -1.1862  -1.1768  -0.9012  -0.7947  -0.7334  -0.7229
 -0.6567  -0.6369  -0.6074  -0.5863  -0.5664  -0.5605  -0.5501  -0.5212
 -0.4986  -0.4844  -0.4780  -0.4211  -0.4146  -0.3715
 -- Virtual --
  0.0044   0.0500   0.0572   0.0769   0.0812   0.0817   0.1039   0.1085
  0.1157   0.1184   0.1253   0.1281   0.1500   0.1541   0.1595   0.1657
  0.1674   0.1747   0.1946   0.1980   0.2138   0.2224   0.2316   0.2340
  0.2399   0.2456   0.2669   0.2746   0.2812   0.2826   0.2904   0.2955
  0.3083   0.3166   0.3182   0.3283   0.3363   0.3393   0.3422   0.3546
  0.3592   0.3704   0.3710   0.3779   0.3888   0.3928   0.3971   0.4005
  0.4116   0.4252   0.4327   0.4396   0.4414   0.4487   0.4536   0.4579
  0.4678   0.4684   0.4804   0.4845   0.5002   0.5063   0.5171   0.5280
  0.5296   0.5393   0.5499   0.5546   0.5575   0.5651   0.5719   0.5808
  0.5937   0.6000   0.6151   0.6206   0.6272   0.6342   0.6519   0.6560
  0.6688   0.6724   0.6754   0.6880   0.6947   0.7013   0.7182   0.7216
  0.7297   0.7326   0.7578   0.7638   0.7686   0.7766   0.7893   0.7972
  0.7988   0.8032   0.8258   0.8286   0.8428   0.8478   0.8615   0.8720
  0.8873   0.9046   0.9193   0.9211   0.9323   0.9486   0.9605   0.9713
  0.9762   0.9850   0.9941   1.0158   1.0297   1.0365   1.0590   1.0740
  1.0921   1.1167   1.1274   1.1354   1.1582   1.1652   1.2090   1.2098
  1.2210   1.2231   1.2400   1.2575   1.2687   1.2798   1.3016   1.3056
  1.3256   1.3312   1.3535   1.3670   1.3678   1.3898   1.4107   1.4206
  1.4312   1.4462   1.4670   1.4750   1.5061   1.5405   1.5675   1.6018
  1.6160   1.6395   1.6502   1.6720   1.7074   1.7200   1.7529   1.7640
  1.8087   1.8238   1.8698   1.8725   1.9002   1.9137   1.9234   1.9420
  1.9638   1.9798   2.0070   2.0289   2.0620   2.0834   2.1064   2.1294
[...]
 H          0.677  0.711 -0.123    0.110 -0.025  0.117    0.057  0.019 -0.173
 H          0.047  0.086  0.035    0.037 -0.007 -0.053    0.152  0.074  0.024
 H          0.001  0.006 -0.002    0.321  0.087 -0.036   -0.145 -0.135 -0.026
 H         -0.004  0.012  0.006    0.076  0.221 -0.140   -0.077 -0.090  0.175
 C         -0.041 -0.014  0.015    0.028  0.107  0.193   -0.045  0.155 -0.163
 O          0.009 -0.003 -0.005   -0.062  0.346 -0.214    0.219  0.226  0.282
 H          0.030 -0.015 -0.022    0.039 -0.000  0.640   -0.390  0.225 -0.570
 TransDip  -0.899 -0.984  0.115    0.048  0.004  0.063   -0.052  0.000 -0.074

 Mode:                 4                      5                      6
 Frequency:        93.21                 128.24                 194.77
 Force Cnst:      0.0174                 0.0517                 0.0855
 Red. Mass:       3.3972                 5.3315                 3.8262
 IR Active:          YES                    YES                    YES
 IR Intens:        4.517                 10.000                  1.005
 Raman Active:       YES                    YES                    YES
               X      Y      Z        X      Y      Z        X      Y      Z
 O          0.075  0.149 -0.067    0.250  0.167 -0.062    0.115  0.113 -0.036
 C         -0.002  0.019 -0.015    0.033 -0.019 -0.020    0.035  0.033 -0.015
 C         -0.015  0.059 -0.110    0.075  0.037  0.017   -0.001  0.025 -0.034
 O          0.053  0.072  0.014   -0.067 -0.119 -0.012   -0.159 -0.160  0.039
 O         -0.145 -0.178  0.001   -0.063 -0.104  0.015    0.183  0.187 -0.055
 C         -0.103 -0.112 -0.045    0.158  0.150 -0.051   -0.102 -0.161  0.053
 H         -0.042  0.080 -0.142   -0.159  0.188  0.179   -0.085  0.091 -0.137
 H          0.023  0.080 -0.078    0.009 -0.190  0.010    0.058  0.019  0.023
 H         -0.142 -0.198 -0.155    0.467  0.165 -0.033   -0.544 -0.189  0.015
 H         -0.110 -0.105  0.085    0.028  0.431 -0.178    0.075 -0.544  0.244
 C          0.108 -0.010  0.191   -0.145  0.083  0.018   -0.016  0.021  0.023
 O          0.021  0.006  0.008   -0.232 -0.179  0.104   -0.053 -0.038  0.008
 H          0.352 -0.118  0.723   -0.002  0.161 -0.262    0.132 -0.015  0.223
 TransDip   0.015 -0.028  0.060    0.055  0.079 -0.031   -0.001 -0.017  0.028

 Mode:                 7                      8                      9
 Frequency:       347.54                 455.11                 536.09
 Force Cnst:      0.2755                 0.1810                 0.8792
 Red. Mass:       3.8712                 1.4830                 5.1921
 IR Active:          YES                    YES                    YES
 IR Intens:       19.104                  6.090                  8.953
 Raman Active:       YES                    YES                    YES
               X      Y      Z        X      Y      Z        X      Y      Z
 O         -0.141 -0.143  0.014   -0.007 -0.026  0.035    0.003 -0.067 -0.168
 C         -0.021 -0.062 -0.012    0.001 -0.011  0.018   -0.026 -0.016 -0.150
 C          0.181  0.114 -0.063    0.024 -0.004  0.002    0.244  0.030 -0.001
 O          0.052  0.010 -0.030    0.004 -0.006 -0.036    0.052  0.043  0.308
 O          0.009 -0.031 -0.017    0.005  0.011  0.030   -0.075  0.034 -0.165
 C          0.007 -0.049  0.036    0.023  0.028  0.008   -0.033  0.112  0.108
 H          0.085  0.282  0.050   -0.159  0.062 -0.470    0.135 -0.148 -0.101
 H          0.219  0.332 -0.076    0.076  0.107  0.022    0.447  0.299  0.125
 H         -0.211 -0.148 -0.085    0.100  0.054  0.039   -0.182  0.116  0.113
 H          0.050 -0.163  0.300    0.001  0.079 -0.057   -0.028  0.089  0.333
 C          0.074  0.302  0.035   -0.084  0.019 -0.155   -0.129 -0.164 -0.000
 O         -0.135 -0.107  0.032    0.006 -0.012  0.048   -0.027  0.010  0.019
 H          0.408  0.369 -0.137    0.270 -0.171  0.752   -0.281 -0.212  0.148
 TransDip   0.082  0.113 -0.005    0.029 -0.017  0.072   -0.071 -0.064  0.006

 Mode:                10                     11                     12
 Frequency:       548.99                 731.50                 763.01
 Force Cnst:      0.5612                 3.2681                 1.5909
 Red. Mass:       3.1604                10.3661                 4.6381
 IR Active:          YES                    YES                    YES
 IR Intens:        8.234                 18.043                  1.659
 Raman Active:       YES                    YES                    YES
               X      Y      Z        X      Y      Z        X      Y      Z
 O          0.029 -0.036 -0.094    0.080 -0.004  0.225   -0.185  0.106 -0.123
 C          0.003 -0.003 -0.085   -0.247  0.220 -0.019    0.075  0.018 -0.098
 C         -0.143 -0.156  0.134    0.195 -0.172  0.118   -0.105  0.216  0.195
 O          0.022  0.000  0.154   -0.320  0.330 -0.000    0.014 -0.067 -0.061
 O         -0.031  0.011 -0.086    0.029 -0.144 -0.288    0.061 -0.147 -0.057
 C         -0.052  0.016  0.028    0.302 -0.245 -0.020    0.204 -0.016  0.192
 H         -0.194  0.125  0.051    0.018 -0.053  0.058   -0.044  0.179  0.148
 H         -0.244 -0.582  0.145   -0.085 -0.184 -0.142   -0.411 -0.207  0.025
 H          0.071  0.128  0.174    0.125 -0.142  0.117   -0.042 -0.193 -0.019
 H         -0.067  0.069 -0.166    0.289 -0.226  0.145    0.263 -0.145  0.520
 C          0.116  0.205 -0.069   -0.010  0.009 -0.025   -0.041 -0.058 -0.043
 O          0.035 -0.018 -0.001    0.006 -0.001  0.006    0.026  0.017  0.005
 H          0.454  0.189  0.125    0.058 -0.012  0.090   -0.009 -0.106  0.161
 TransDip   0.077  0.040 -0.031    0.065 -0.120  0.008    0.010 -0.010  0.039

 Mode:                13                     14                     15
 Frequency:       793.13                 904.58                 931.23
 Force Cnst:      3.8701                 0.6777                 3.5722
 Red. Mass:      10.4418                 1.4058                 6.9916
 IR Active:          YES                    YES                    YES
 IR Intens:       34.049                  3.632                  2.388
 Raman Active:       YES                    YES                    YES
               X      Y      Z        X      Y      Z        X      Y      Z
 O         -0.113 -0.144  0.067   -0.027  0.057  0.003    0.102 -0.024  0.383
 C          0.565  0.580 -0.126   -0.011 -0.021 -0.022    0.086 -0.077 -0.018
 C          0.045 -0.069 -0.041   -0.041  0.006  0.077   -0.106  0.163  0.059
 O         -0.181 -0.146  0.043    0.008 -0.009 -0.019    0.121 -0.124  0.004
 O         -0.125 -0.119  0.043    0.061 -0.045 -0.063   -0.040 -0.062 -0.354
 C         -0.068 -0.010 -0.034   -0.052 -0.054  0.037   -0.139  0.169 -0.080
 H          0.027 -0.102 -0.060   -0.045 -0.106 -0.091    0.026  0.134  0.050
 H          0.210  0.232  0.033    0.363  0.568  0.327   -0.402  0.137 -0.196
 H          0.106  0.053  0.041    0.299  0.107  0.247   -0.471  0.158 -0.108
 H         -0.118  0.104 -0.175   -0.086  0.063 -0.449   -0.089  0.045  0.244
 C          0.007  0.020  0.013    0.015  0.014  0.024   -0.011 -0.018 -0.011
 O         -0.007 -0.002 -0.000   -0.009 -0.003 -0.004    0.005  0.004  0.002
 H         -0.002  0.031 -0.038   -0.005  0.043 -0.089   -0.016 -0.034  0.045
 TransDip   0.125  0.137 -0.021   -0.018  0.018  0.056   -0.013  0.035 -0.032

 Mode:                16                     17                     18
 Frequency:      1003.52                1065.95                1121.88
 Force Cnst:      1.4084                 3.2392                 2.3252
 Red. Mass:       2.3737                 4.8385                 3.1356
 IR Active:          YES                    YES                    YES
 IR Intens:       72.861                 23.069                292.889
 Raman Active:       YES                    YES                    YES
               X      Y      Z        X      Y      Z        X      Y      Z
 O         -0.058  0.106  0.046   -0.149  0.175 -0.002    0.080 -0.129 -0.054
 C          0.030 -0.034 -0.015    0.003  0.004  0.101   -0.032  0.053  0.080
 C          0.007 -0.145 -0.175    0.196 -0.223  0.023   -0.024  0.156 -0.127
 O          0.035 -0.038 -0.008   -0.017  0.004 -0.069   -0.063  0.060 -0.011
 O         -0.048  0.037 -0.037    0.173 -0.164 -0.019    0.154 -0.107 -0.021
 C          0.068 -0.022  0.176   -0.196  0.230 -0.033   -0.148  0.015  0.160
 H         -0.090 -0.117 -0.110   -0.044 -0.097  0.104    0.142  0.187 -0.058
 H         -0.276  0.174 -0.533    0.277 -0.526  0.165   -0.256 -0.362 -0.225
 H          0.092  0.283  0.561   -0.405  0.176 -0.100    0.293  0.179  0.376
 H         -0.016  0.155  0.142   -0.080 -0.014  0.259   -0.287  0.334 -0.104
 C          0.014  0.015  0.020   -0.009  0.002 -0.009    0.012 -0.002 -0.003
 O         -0.002 -0.001 -0.005    0.006  0.003  0.001   -0.005 -0.010 -0.000
 H          0.047  0.049 -0.091    0.108  0.013  0.008   -0.232 -0.052  0.075
 TransDip   0.101 -0.253 -0.017   -0.072 -0.129  0.044   -0.187  0.502  0.115

 Mode:                19                     20                     21
 Frequency:      1127.00                1189.56                1233.16
 Force Cnst:      1.6877                 2.3627                 1.0474
 Red. Mass:       2.2552                 2.8339                 1.1691
 IR Active:          YES                    YES                    YES
 IR Intens:      124.457                333.570                 72.778
 Raman Active:       YES                    YES                    YES
               X      Y      Z        X      Y      Z        X      Y      Z
 O          0.086 -0.071 -0.051   -0.020 -0.014 -0.079    0.006 -0.012 -0.002
 C         -0.026  0.027  0.016    0.056  0.022  0.310    0.009  0.005  0.036
 C         -0.177 -0.078 -0.047   -0.049  0.032 -0.037   -0.037 -0.021 -0.028
 O         -0.039  0.040  0.001    0.017 -0.024 -0.030   -0.006  0.003 -0.003
 O          0.050 -0.088  0.032   -0.092  0.032 -0.122    0.019  0.022 -0.034
 C          0.071  0.158  0.033    0.100 -0.056 -0.052   -0.006 -0.024  0.020
 H         -0.080 -0.196 -0.101    0.065 -0.014 -0.007   -0.186  0.050  0.036
 H          0.086  0.634  0.021    0.408 -0.260  0.457    0.138  0.054  0.113
 H         -0.425  0.106 -0.041   -0.245  0.324  0.413    0.258 -0.254 -0.256
 H          0.255 -0.231  0.334    0.039  0.043  0.175   -0.236  0.404  0.409
 C          0.016  0.026  0.010    0.014  0.018 -0.005   -0.039 -0.054  0.010
 O         -0.005 -0.003 -0.001   -0.003 -0.011 -0.001    0.003  0.038  0.005
 H          0.060  0.050 -0.056   -0.155 -0.018  0.072    0.527  0.055 -0.223
 TransDip  -0.233  0.265  0.057    0.251  0.103  0.518   -0.076 -0.246  0.091

 Mode:                22                     23                     24
 Frequency:      1246.60                1291.29                1371.06
 Force Cnst:      1.1246                 1.1873                 1.8387
 Red. Mass:       1.2283                 1.2086                 1.6602
 IR Active:          YES                    YES                    YES
 IR Intens:       18.910                 37.031                 31.750
 Raman Active:       YES                    YES                    YES
               X      Y      Z        X      Y      Z        X      Y      Z
 O          0.006 -0.022 -0.005    0.012  0.005 -0.045   -0.006  0.017  0.078
 C         -0.005 -0.001 -0.002    0.009  0.007  0.052   -0.016 -0.009 -0.093
 C          0.032  0.052 -0.010    0.015 -0.020  0.040   -0.070  0.017 -0.160
 O         -0.003  0.005  0.002   -0.000 -0.003 -0.006    0.001  0.002  0.010
 O         -0.011 -0.021  0.022    0.005  0.005 -0.005   -0.002 -0.004  0.008
 C         -0.000  0.004 -0.016   -0.034 -0.032 -0.035    0.026  0.021  0.077
 H         -0.143  0.178  0.154    0.311 -0.190  0.719    0.168 -0.100  0.578
 H         -0.029 -0.061 -0.037   -0.200  0.360 -0.246    0.464 -0.299  0.402
 H         -0.202  0.279  0.320   -0.002  0.032  0.041    0.099 -0.085 -0.050
 H          0.158 -0.284 -0.320   -0.107  0.101  0.034    0.124 -0.150 -0.075
 C         -0.059 -0.082  0.000   -0.030  0.017 -0.071   -0.016  0.016 -0.052
 O          0.004  0.050  0.010    0.006 -0.004  0.016    0.009 -0.006  0.009
 H          0.644  0.036 -0.234    0.115 -0.047  0.248    0.011 -0.041  0.200
 TransDip  -0.060 -0.112 -0.057   -0.030  0.018  0.192   -0.007 -0.025 -0.179

 Mode:                25                     26                     27
 Frequency:      1423.24                1507.92                1520.61
 Force Cnst:      1.9741                 1.4729                 1.4540
 Red. Mass:       1.6541                 1.0994                 1.0673
 IR Active:          YES                    YES                    YES
 IR Intens:       66.735                 21.577                 14.107
 Raman Active:       YES                    YES                    YES
               X      Y      Z        X      Y      Z        X      Y      Z
 O         -0.003  0.006  0.032    0.004 -0.003 -0.007    0.000  0.012  0.005
 C         -0.017 -0.017 -0.128   -0.000  0.008  0.029   -0.002  0.000 -0.014
 C         -0.023  0.032  0.011    0.002 -0.001  0.005   -0.018  0.031  0.011
 O         -0.004  0.008  0.013    0.005 -0.006 -0.003    0.001 -0.001  0.001
 O          0.044 -0.016  0.076   -0.018  0.009 -0.016    0.003 -0.003  0.004
 C          0.002 -0.067 -0.151   -0.065  0.033 -0.031    0.007 -0.004 -0.001
 H         -0.031  0.023  0.018    0.046 -0.031 -0.037    0.615 -0.605 -0.338
 H          0.091 -0.032  0.147   -0.037  0.011 -0.032   -0.058 -0.180  0.027
 H         -0.044  0.447  0.503    0.692  0.085  0.073   -0.040  0.005  0.008
 H         -0.175  0.247  0.599    0.236 -0.563  0.347   -0.013  0.038 -0.013
 C         -0.000  0.008  0.002   -0.000 -0.001  0.001   -0.002  0.003 -0.001
 O          0.006 -0.007 -0.004   -0.003  0.001  0.001   -0.043  0.013  0.021
 H         -0.080 -0.003  0.029    0.024  0.003 -0.013    0.292  0.044 -0.101
 TransDip  -0.133 -0.086 -0.208    0.053  0.028  0.136    0.055 -0.049 -0.095

 Mode:                28                     29                     30
 Frequency:      1848.32                1870.12                2915.16
 Force Cnst:     18.3692                25.3347                 5.4477
 Red. Mass:       9.1261                12.2950                 1.0880
 IR Active:          YES                    YES                    YES
 IR Intens:      258.377               1216.306                106.816
 Raman Active:       YES                    YES                    YES
               X      Y      Z        X      Y      Z        X      Y      Z
 O         -0.002  0.004  0.005    0.021 -0.022 -0.001    0.000 -0.000 -0.000
 C         -0.183  0.186 -0.010   -0.542  0.550  0.014   -0.000  0.001  0.000
 C          0.005 -0.051 -0.004    0.022 -0.017 -0.007   -0.000  0.000 -0.000
 O          0.110 -0.113 -0.004    0.322 -0.328 -0.015    0.000 -0.000 -0.000
 O          0.010 -0.008  0.008    0.029 -0.026  0.008   -0.000 -0.000 -0.000
 C          0.016 -0.009 -0.007    0.027 -0.026  0.005   -0.000 -0.000  0.000
 H         -0.004  0.412  0.083   -0.005 -0.140 -0.049    0.015  0.009 -0.005
 H          0.064  0.088  0.002    0.020 -0.052 -0.028   -0.003 -0.003  0.001
 H         -0.020  0.004  0.013   -0.036 -0.032  0.025    0.000 -0.001  0.001
 H         -0.013  0.046  0.063   -0.007  0.072 -0.005    0.001 -0.000 -0.001
 C          0.493 -0.231 -0.251   -0.231  0.101  0.117    0.009 -0.082 -0.021
 O         -0.363  0.185  0.188    0.168 -0.082 -0.086   -0.002  0.001  0.001
 H         -0.078 -0.374 -0.046    0.070  0.166 -0.000   -0.084  0.965  0.234
 TransDip   0.294  0.385 -0.175   -0.842  0.729  0.077   -0.002 -0.321 -0.082

 Mode:                31                     32                     33
 Frequency:      3082.89                3144.56                3191.44
 Force Cnst:      5.9420                 6.4561                 6.5447
 Red. Mass:       1.0611                 1.1081                 1.0906
 IR Active:          YES                    YES                    YES
 IR Intens:       27.797                  6.287                  7.698
 Raman Active:       YES                    YES                    YES
               X      Y      Z        X      Y      Z        X      Y      Z
 O          0.000 -0.000 -0.000   -0.001  0.000 -0.000    0.000  0.000  0.000
 C          0.001 -0.001  0.001   -0.001  0.000 -0.000   -0.001  0.002  0.001
 C          0.002 -0.001 -0.002    0.003 -0.001 -0.003    0.056 -0.017 -0.064
 O         -0.000  0.000 -0.000    0.000 -0.000 -0.000    0.000 -0.000 -0.000
 O         -0.001  0.001  0.000    0.000  0.001 -0.000   -0.000  0.000  0.000
 C         -0.063 -0.000 -0.029   -0.037 -0.076  0.044    0.005  0.005  0.001
 H          0.005  0.004  0.000   -0.000  0.001  0.000    0.002  0.004 -0.000
 H         -0.024  0.009  0.022   -0.034  0.009  0.037   -0.668  0.170  0.717
 H         -0.022 -0.394  0.304    0.013  0.677 -0.544    0.000 -0.022  0.015
 H          0.768  0.394  0.020    0.434  0.213  0.024   -0.048 -0.024 -0.004
 C         -0.000 -0.000 -0.000    0.000  0.000  0.000   -0.000 -0.000 -0.000
 O         -0.000  0.000  0.000    0.000 -0.000 -0.000   -0.000  0.000  0.000
 H         -0.000 -0.002  0.000   -0.000  0.001 -0.001   -0.000 -0.002 -0.000
 TransDip  -0.160  0.003 -0.055   -0.008 -0.070  0.038    0.026 -0.074 -0.042

 STANDARD THERMODYNAMIC QUANTITIES AT   298.15 K  AND     1.00 ATM

   This Molecule has  1 Imaginary Frequencies
   Zero point vibrational energy:       53.850 kcal/mol

   Atom    1 Element O  Has Mass   15.99491
   Atom    2 Element C  Has Mass   12.00000
   Atom    3 Element C  Has Mass   12.00000
   Atom    4 Element O  Has Mass   15.99491
   Atom    5 Element O  Has Mass   15.99491
   Atom    6 Element C  Has Mass   12.00000
   Atom    7 Element H  Has Mass    1.00783
   Atom    8 Element H  Has Mass    1.00783
   Atom    9 Element H  Has Mass    1.00783
   Atom   10 Element H  Has Mass    1.00783
   Atom   11 Element C  Has Mass   12.00000
   Atom   12 Element O  Has Mass   15.99491
   Atom   13 Element H  Has Mass    1.00783
   Molecular Mass:   117.018790 amu
   Principal axes and moments of inertia in amu*Bohr^2:
                             1           2           3
    Eigenvalues --      626.79336  1132.41989  1368.78238
          X               0.30269     0.95113    -0.06112
          Y               0.94668    -0.30746    -0.09623
          Z               0.11032     0.02874     0.99348
   Rotational Symmetry Number is   1
   The Molecule is an Asymmetric Top
   Translational Enthalpy:        0.889 kcal/mol
   Rotational Enthalpy:           0.889 kcal/mol
   Vibrational Enthalpy:         57.160 kcal/mol
   gas constant (RT):             0.592 kcal/mol
   Translational Entropy:        40.186  cal/mol.K
   Rotational Entropy:           28.365  cal/mol.K
   Vibrational Entropy:          23.499  cal/mol.K

   Total Enthalpy:               59.530 kcal/mol
   Total Entropy:                92.050  cal/mol.K
Archival summary:
1\1\n0267.lr6\FREQ\ProcedureUnspecified\BasisUnspecified\445(2)\ewcspott\WedNov1118:04:272020WedNov1118:04:272020\0\\#,FREQ,ProcedureUnspecified,BasisUnspecified,\\0,2\O\C,1,1.35142\O,2,1.19573,1,124.105\O,2,1.33841,1,110.959,3,179.524,0\C,1,1.41134,2,109.009,3,172.537,0\H,5,1.08659,1,111.938,2,147.295,0\H,5,1.41639,1,103.76,2,-96.0293,0\C,7,1.31423,5,161.714,1,41.7706,0\H,8,1.11124,7,117.228,5,176.117,0\O,8,1.19162,7,118.886,5,-4.11393,0\C,4,1.44417,2,109.637,1,-4.607,0\H,11,1.09131,4,108.61,2,134.49,0\H,11,1.09381,4,108.599,2,-106.048,0\\\@

 Total job time:  11445.77s(wall), 307129.81s(cpu) 
 Wed Nov 11 18:04:27 2020

        *************************************************************
        *                                                           *
        *  Thank you very much for using Q-Chem.  Have a nice day.  *
        *                                                           *
        *************************************************************


