 vasp.5.4.4.18Apr17-6-g9f103f2a35 (build Aug 22 2019 09:35:51) complex          
  
 executed on             LinuxIFC date 2021.04.26  19:59:23
 running on    6 total cores
 distrk:  each k-point on    6 cores,    1 groups
 distr:  one band on NCORES_PER_BAND=   1 cores,    6 groups


--------------------------------------------------------------------------------------------------------


 INCAR:
 POTCAR:   PAW_PBE Li_sv 23Jan2001                
 POTCAR:   PAW_PBE Mn_pv 07Sep2000                
 POTCAR:   PAW_PBE O 08Apr2002                    

 ----------------------------------------------------------------------------- 
|                                                                             |
|           W    W    AA    RRRRR   N    N  II  N    N   GGGG   !!!           |
|           W    W   A  A   R    R  NN   N  II  NN   N  G    G  !!!           |
|           W    W  A    A  R    R  N N  N  II  N N  N  G       !!!           |
|           W WW W  AAAAAA  RRRRR   N  N N  II  N  N N  G  GGG   !            |
|           WW  WW  A    A  R   R   N   NN  II  N   NN  G    G                |
|           W    W  A    A  R    R  N    N  II  N    N   GGGG   !!!           |
|                                                                             |
|      For optimal performance we recommend to set                            |
|        NCORE= 4 - approx SQRT( number of cores)                             |
|      NCORE specifies how many cores store one orbital (NPAR=cpu/NCORE).     |
|      This setting can  greatly improve the performance of VASP for DFT.     |
|      The default,   NCORE=1            might be grossly inefficient         |
|      on modern multi-core architectures or massively parallel machines.     |
|      Do your own testing !!!!                                               |
|      Unfortunately you need to use the default for GW and RPA calculations. |
|      (for HF NCORE is supported but not extensively tested yet)             |
|                                                                             |
 ----------------------------------------------------------------------------- 

 POTCAR:   PAW_PBE Li_sv 23Jan2001                
   VRHFIN =Li: 1s2s2p                                                           
   LEXCH  = PE                                                                  
   EATOM  =   202.7858 eV,   14.9043 Ry                                         
                                                                                
   TITEL  = PAW_PBE Li_sv 23Jan2001                                             
   LULTRA =        F    use ultrasoft PP ?                                      
   IUNSCR =        0    unscreen: 0-lin 1-nonlin 2-no                           
   RPACOR =     .000    partial core radius                                     
   POMASS =    7.010; ZVAL   =    3.000    mass and valenz                      
   RCORE  =    2.050    outmost cutoff radius                                   
   RWIGS  =    2.050; RWIGS  =    1.085    wigner-seitz radius (au A)           
   ENMAX  =  271.649; ENMIN  =  203.737 eV                                      
   ICORE  =        2    local potential                                         
   LCOR   =        T    correct aug charges                                     
   LPAW   =        T    paw PP                                                  
   EAUG   =  428.394                                                            
   RMAX   =    2.797    core radius for proj-oper                               
   RAUG   =    1.300    factor for augmentation sphere                          
   RDEP   =    2.094    radius for radial grids                                 
   RDEPT  =    1.550    core radius for aug-charge                              
   QCUT   =   -4.468; QGAM   =    8.937    optimization parameters              
                                                                                
   Description                                                                  
     l     E      TYP  RCUT    TYP  RCUT                                        
     0   .000     23  1.550                                                     
     0   .000     23  2.050                                                     
     0   .000     23  1.550                                                     
     0   .000     23  2.050                                                     
     1  -.200     23  2.050                                                     
     1  1.500     23  2.050                                                     
     2   .000      7  1.550                                                     
  local pseudopotential read in
  atomic valenz-charges read in
  non local Contribution for L=           0  read in
    real space projection operators read in
  non local Contribution for L=           0  read in
    real space projection operators read in
  non local Contribution for L=           1  read in
    real space projection operators read in
  non local Contribution for L=           1  read in
    real space projection operators read in
    PAW grid and wavefunctions read in
 
   number of l-projection  operators is LMAX  =           4
   number of lm-projection operators is LMMAX =           8
 
 POTCAR:   PAW_PBE Mn_pv 07Sep2000                
   VRHFIN =Mn: 3p4s3d                                                           
   LEXCH  = PE                                                                  
   EATOM  =  2024.8347 eV,  148.8212 Ry                                         
                                                                                
   TITEL  = PAW_PBE Mn_pv 07Sep2000                                             
   LULTRA =        F    use ultrasoft PP ?                                      
   IUNSCR =        1    unscreen: 0-lin 1-nonlin 2-no                           
   RPACOR =    2.080    partial core radius                                     
   POMASS =   54.938; ZVAL   =   13.000    mass and valenz                      
   RCORE  =    2.300    outmost cutoff radius                                   
   RWIGS  =    2.500; RWIGS  =    1.323    wigner-seitz radius (au A)           
   ENMAX  =  269.865; ENMIN  =  202.399 eV                                      
   RCLOC  =    1.725    cutoff for local pot                                    
   LCOR   =        T    correct aug charges                                     
   LPAW   =        T    paw PP                                                  
   EAUG   =  569.085                                                            
   DEXC   =    -.003                                                            
   RMAX   =    2.807    core radius for proj-oper                               
   RAUG   =    1.300    factor for augmentation sphere                          
   RDEP   =    2.338    radius for radial grids                                 
   QCUT   =   -4.454; QGAM   =    8.907    optimization parameters              
                                                                                
   Description                                                                  
     l     E      TYP  RCUT    TYP  RCUT                                        
     1   .000     23  2.000                                                     
     1  -.100     23  2.000                                                     
     2   .000     23  2.300                                                     
     2   .000     23  2.300                                                     
     0   .000     23  2.300                                                     
     0   .000     23  2.300                                                     
     3   .000      7   .000                                                     
  local pseudopotential read in
  partial core-charges read in
  atomic valenz-charges read in
  non local Contribution for L=           1  read in
    real space projection operators read in
  non local Contribution for L=           1  read in
    real space projection operators read in
  non local Contribution for L=           2  read in
    real space projection operators read in
  non local Contribution for L=           2  read in
    real space projection operators read in
  non local Contribution for L=           0  read in
    real space projection operators read in
  non local Contribution for L=           0  read in
    real space projection operators read in
    PAW grid and wavefunctions read in
 
   number of l-projection  operators is LMAX  =           6
   number of lm-projection operators is LMMAX =          18
 
 POTCAR:   PAW_PBE O 08Apr2002                    
   VRHFIN =O: s2p4                                                              
   LEXCH  = PE                                                                  
   EATOM  =   432.3788 eV,   31.7789 Ry                                         
                                                                                
   TITEL  = PAW_PBE O 08Apr2002                                                 
   LULTRA =        F    use ultrasoft PP ?                                      
   IUNSCR =        0    unscreen: 0-lin 1-nonlin 2-no                           
   RPACOR =     .000    partial core radius                                     
   POMASS =   16.000; ZVAL   =    6.000    mass and valenz                      
   RCORE  =    1.520    outmost cutoff radius                                   
   RWIGS  =    1.550; RWIGS  =     .820    wigner-seitz radius (au A)           
   ENMAX  =  400.000; ENMIN  =  300.000 eV                                      
   ICORE  =        2    local potential                                         
   LCOR   =        T    correct aug charges                                     
   LPAW   =        T    paw PP                                                  
   EAUG   =  605.392                                                            
   DEXC   =     .000                                                            
   RMAX   =    2.264    core radius for proj-oper                               
   RAUG   =    1.300    factor for augmentation sphere                          
   RDEP   =    1.550    radius for radial grids                                 
   QCUT   =   -5.520; QGAM   =   11.041    optimization parameters              
                                                                                
   Description                                                                  
     l     E      TYP  RCUT    TYP  RCUT                                        
     0   .000     23  1.200                                                     
     0  -.700     23  1.200                                                     
     1   .000     23  1.520                                                     
     1   .600     23  1.520                                                     
     2   .000      7  1.500                                                     
  local pseudopotential read in
  atomic valenz-charges read in
  non local Contribution for L=           0  read in
    real space projection operators read in
  non local Contribution for L=           0  read in
    real space projection operators read in
  non local Contribution for L=           1  read in
    real space projection operators read in
  non local Contribution for L=           1  read in
    real space projection operators read in
    PAW grid and wavefunctions read in
 
   number of l-projection  operators is LMAX  =           4
   number of lm-projection operators is LMMAX =           8
 
 Optimization of the real space projectors (new method)

 maximal supplied QI-value         = 18.33
 optimisation between [QCUT,QGAM] = [ 11.55, 23.28] = [ 37.34,151.76] Ry 
 Optimized for a Real-space Cutoff    1.32 Angstroem

   l    n(q)    QCUT    max X(q) W(low)/X(q) W(high)/X(q)  e(spline) 
   0      9    11.548     5.519    0.68E-05    0.20E-05    0.27E-07
   0      9    11.548    24.272    0.42E-04    0.24E-04    0.63E-07
   1      9    11.548     4.148    0.83E-04    0.77E-04    0.38E-06
   1      9    11.548    11.842    0.23E-03    0.17E-03    0.54E-06
 Optimization of the real space projectors (new method)

 maximal supplied QI-value         = 16.25
 optimisation between [QCUT,QGAM] = [ 11.54, 23.24] = [ 37.28,151.24] Ry 
 Optimized for a Real-space Cutoff    1.53 Angstroem

   l    n(q)    QCUT    max X(q) W(low)/X(q) W(high)/X(q)  e(spline) 
   1     10    11.539     4.093    0.14E-05    0.94E-06    0.35E-07
   1     10    11.539     5.163    0.38E-04    0.24E-04    0.17E-06
   2     10    11.539     4.144    0.87E-05    0.14E-04    0.48E-07
   2     10    11.539    35.116    0.12E-03    0.13E-03    0.25E-06
   0     11    11.539    20.431    0.20E-04    0.18E-05    0.19E-07
   0     11    11.539    61.159    0.37E-04    0.19E-04    0.29E-06
 Optimization of the real space projectors (new method)

 maximal supplied QI-value         = 24.76
 optimisation between [QCUT,QGAM] = [ 11.64, 23.27] = [ 37.91,151.63] Ry 
 Optimized for a Real-space Cutoff    1.08 Angstroem

   l    n(q)    QCUT    max X(q) W(low)/X(q) W(high)/X(q)  e(spline) 
   0      7    11.635     4.192    0.54E-04    0.80E-04    0.26E-07
   0      7    11.635     8.473    0.70E-04    0.40E-03    0.21E-06
   1      7    11.635     2.474    0.39E-04    0.14E-03    0.23E-07
   1      7    11.635     3.912    0.25E-03    0.37E-03    0.22E-06
 PAW_PBE Li_sv 23Jan2001                :
 energy of atom  1       EATOM= -202.7858
 kinetic energy error for atom=    0.0020 (will be added to EATOM!!)
 PAW_PBE Mn_pv 07Sep2000                :
 energy of atom  2       EATOM=-2024.8347
 kinetic energy error for atom=    0.0058 (will be added to EATOM!!)
 PAW_PBE O 08Apr2002                    :
 energy of atom  3       EATOM= -432.3788
 kinetic energy error for atom=    0.0208 (will be added to EATOM!!)
 
 
 POSCAR: Li1 Mn8 O16                             
  positions in direct lattice
  velocities in cartesian coordinates
 exchange correlation table for  LEXCH =        8
   RHO(1)=    0.500       N(1)  =     2000
   RHO(2)=  100.500       N(2)  =     4000
 


--------------------------------------------------------------------------------------------------------


 ion  position               nearest neighbor table
   1  0.500  0.500  0.000-  15 1.98  17 1.98  21 1.98  22 1.98
   2  0.750  0.500  0.375-  10 1.93  13 1.93  14 1.93  16 1.93  12 1.93  17 1.93   4 2.89   4 2.89
                             9 2.89   3 2.89   5 2.89   7 2.89
   3  0.000  0.250  0.125-  15 1.93  17 1.93  19 1.93  20 1.93  14 1.93  24 1.93   5 2.89   5 2.89
                             8 2.89   4 2.89   2 2.89   6 2.89
   4  0.250  0.500  0.375-  10 1.93  13 1.93  14 1.93  16 1.93  15 1.93  11 1.93   2 2.89   2 2.89
                             9 2.89   3 2.89   5 2.89   7 2.89
   5  0.000  0.750  0.125-  15 1.93  17 1.93  19 1.93  20 1.93  13 1.93  18 1.93   3 2.89   3 2.89
                             8 2.89   2 2.89   4 2.89   6 2.89
   6  0.250  0.000  0.875-  18 1.93  21 1.93  22 1.93  24 1.93  20 1.93  25 1.93   8 2.89   8 2.89
                             9 2.89   5 2.89   7 2.89   3 2.89
   7  0.500  0.750  0.625-  11 1.93  12 1.93  23 1.93  25 1.93  16 1.93  22 1.93   9 2.89   9 2.89
                             2 2.89   4 2.89   6 2.89   8 2.89
   8  0.750  0.000  0.875-  18 1.93  21 1.93  22 1.93  24 1.93  23 1.93  19 1.93   6 2.89   6 2.89
                             9 2.89   5 2.89   3 2.89   7 2.89
   9  0.500  0.250  0.625-  11 1.93  12 1.93  23 1.93  25 1.93  10 1.93  21 1.93   7 2.89   7 2.89
                             8 2.89   4 2.89   6 2.89   2 2.89
  10  0.500  0.279  0.391-   2 1.93   4 1.93   9 1.93
  11  0.279  0.500  0.609-   7 1.93   9 1.93   4 1.93
  12  0.721  0.500  0.609-   7 1.93   9 1.93   2 1.93
  13  0.000  0.721  0.359-   2 1.93   4 1.93   5 1.93
  14  0.000  0.279  0.359-   2 1.93   4 1.93   3 1.93
  15  0.221  0.500  0.141-   3 1.93   5 1.93   4 1.93   1 1.98
  16  0.500  0.721  0.391-   2 1.93   4 1.93   7 1.93
  17  0.779  0.500  0.141-   3 1.93   5 1.93   2 1.93   1 1.98
  18  0.000  0.779  0.891-   6 1.93   8 1.93   5 1.93
  19  0.779  0.000  0.109-   3 1.93   5 1.93   8 1.93
  20  0.221  0.000  0.109-   3 1.93   5 1.93   6 1.93
  21  0.500  0.221  0.859-   6 1.93   8 1.93   9 1.93   1 1.98
  22  0.500  0.779  0.859-   6 1.93   8 1.93   7 1.93   1 1.98
  23  0.721  0.000  0.641-   7 1.93   9 1.93   8 1.93
  24  0.000  0.221  0.891-   6 1.93   8 1.93   3 1.93
  25  0.279  0.000  0.641-   7 1.93   9 1.93   6 1.93
 

IMPORTANT INFORMATION: All symmetrisations will be switched off!
NOSYMM: (Re-)initialisation of all symmetry stuff for point group C_1.

 
 
 KPOINTS: pymatgen v2019.10.16 with grid density =

Automatic generation of k-mesh.
Space group operators:
 irot       det(A)        alpha          n_x          n_y          n_z        tau_x        tau_y        tau_z
    1     1.000000     0.000000     1.000000     0.000000     0.000000     0.000000     0.000000     0.000000
 
 Subroutine IBZKPT returns following result:
 ===========================================
 
 Found     26 irreducible k-points:
 
 Following reciprocal coordinates:
            Coordinates               Weight
  0.000000  0.000000  0.000000      1.000000
  0.250000  0.000000  0.000000      2.000000
  0.500000  0.000000  0.000000      1.000000
  0.000000  0.250000  0.000000      2.000000
  0.250000  0.250000  0.000000      2.000000
  0.500000  0.250000  0.000000      2.000000
 -0.250000  0.250000  0.000000      2.000000
  0.000000  0.500000  0.000000      1.000000
  0.250000  0.500000  0.000000      2.000000
  0.500000  0.500000  0.000000      1.000000
  0.000000  0.000000  0.333333      2.000000
  0.250000  0.000000  0.333333      2.000000
  0.500000  0.000000  0.333333      2.000000
 -0.250000  0.000000  0.333333      2.000000
  0.000000  0.250000  0.333333      2.000000
  0.250000  0.250000  0.333333      2.000000
  0.500000  0.250000  0.333333      2.000000
 -0.250000  0.250000  0.333333      2.000000
  0.000000  0.500000  0.333333      2.000000
  0.250000  0.500000  0.333333      2.000000
  0.500000  0.500000  0.333333      2.000000
 -0.250000  0.500000  0.333333      2.000000
  0.000000 -0.250000  0.333333      2.000000
  0.250000 -0.250000  0.333333      2.000000
  0.500000 -0.250000  0.333333      2.000000
 -0.250000 -0.250000  0.333333      2.000000
 
 Following cartesian coordinates:
            Coordinates               Weight
  0.000000  0.000000  0.000000      1.000000
  0.043323  0.000000  0.000000      2.000000
  0.086646  0.000000  0.000000      1.000000
  0.000000  0.043323  0.000000      2.000000
  0.043323  0.043323  0.000000      2.000000
  0.086646  0.043323  0.000000      2.000000
 -0.043323  0.043323  0.000000      2.000000
  0.000000  0.086646  0.000000      1.000000
  0.043323  0.086646  0.000000      2.000000
  0.086646  0.086646  0.000000      1.000000
  0.000000  0.000000  0.040601      2.000000
  0.043323  0.000000  0.040601      2.000000
  0.086646  0.000000  0.040601      2.000000
 -0.043323  0.000000  0.040601      2.000000
  0.000000  0.043323  0.040601      2.000000
  0.043323  0.043323  0.040601      2.000000
  0.086646  0.043323  0.040601      2.000000
 -0.043323  0.043323  0.040601      2.000000
  0.000000  0.086646  0.040601      2.000000
  0.043323  0.086646  0.040601      2.000000
  0.086646  0.086646  0.040601      2.000000
 -0.043323  0.086646  0.040601      2.000000
  0.000000 -0.043323  0.040601      2.000000
  0.043323 -0.043323  0.040601      2.000000
  0.086646 -0.043323  0.040601      2.000000
 -0.043323 -0.043323  0.040601      2.000000
 
 TETIRR: Found    144 inequivalent tetrahedra from      288


--------------------------------------------------------------------------------------------------------




 Dimension of arrays:
   k-points           NKPTS =     26   k-points in BZ     NKDIM =     26   number of bands    NBANDS=    150
   number of dos      NEDOS =    301   number of ions     NIONS =     25
   non local maximal  LDIM  =      6   non local SUM 2l+1 LMDIM =     18
   total plane-waves  NPLWV = 147456
   max r-space proj   IRMAX =   8202   max aug-charges    IRDMAX=  16563
   dimension x,y,z NGX =    48 NGY =   48 NGZ =   64
   dimension x,y,z NGXF=    96 NGYF=   96 NGZF=  128
   support grid    NGXF=    96 NGYF=   96 NGZF=  128
   ions per type =               1   8  16
   NGX,Y,Z   is equivalent  to a cutoff of  13.83, 13.83, 12.96 a.u.
   NGXF,Y,Z  is equivalent  to a cutoff of  27.66, 27.66, 25.92 a.u.

 SYSTEM =  unknown system                          
 POSCAR =  Li1 Mn8 O16                             

 Startparameter for this run:
   NWRITE =      2    write-flag & timer
   PREC   = accura    normal or accurate (medium, high low for compatibility)
   ISTART =      0    job   : 0-new  1-cont  2-samecut
   ICHARG =      1    charge: 1-file 2-atom 10-const
   ISPIN  =      2    spin polarized calculation?
   LNONCOLLINEAR =      F non collinear calculations
   LSORBIT =      F    spin-orbit coupling
   INIWAV =      1    electr: 0-lowe 1-rand  2-diag
   LASPH  =      F    aspherical Exc in radial PAW
   METAGGA=      F    non-selfconsistent MetaGGA calc.

 Electronic Relaxation 1
   ENCUT  =  520.0 eV  38.22 Ry    6.18 a.u.  10.73 10.73 15.27*2*pi/ulx,y,z
   ENINI  =  520.0     initial cutoff
   ENAUG  =  605.4 eV  augmentation charge cutoff
   NELM   =    100;   NELMIN=  1; NELMDL=  0     # of ELM steps 
   EDIFF  = 0.1E-01   stopping-criterion for ELM
   LREAL  =      T    real-space projection
   NLSPLINE    = F    spline interpolate recip. space projectors
   LCOMPAT=      F    compatible to vasp.4.4
   GGA_COMPAT  = T    GGA compatible to vasp.4.4-vasp.4.6
   LMAXPAW     = -100 max onsite density
   LMAXMIX     =    2 max onsite mixed and CHGCAR
   VOSKOWN=      0    Vosko Wilk Nusair interpolation
   ROPT   =   -0.00025  -0.00025  -0.00025
 Ionic relaxation
   EDIFFG = 0.0E+00   stopping-criterion for IOM
   NSW    =      0    number of steps for IOM
   NBLOCK =      1;   KBLOCK =      1    inner block; outer block 
   IBRION =     -1    ionic relax: 0-MD 1-quasi-New 2-CG
   NFREE  =      0    steps in history (QN), initial steepest desc. (CG)
   ISIF   =      2    stress and relaxation
   IWAVPR =     10    prediction:  0-non 1-charg 2-wave 3-comb
   ISYM   =      0    0-nonsym 1-usesym 2-fastsym
   LCORR  =      T    Harris-Foulkes like correction to forces

   POTIM  = 0.5000    time-step for ionic-motion
   TEIN   =    0.0    initial temperature
   TEBEG  =    0.0;   TEEND  =   0.0 temperature during run
   SMASS  =  -3.00    Nose mass-parameter (am)
   estimated Nose-frequenzy (Omega)   =  0.10E-29 period in steps =****** mass=  -0.761E-27a.u.
   SCALEE = 1.0000    scale energy and forces
   NPACO  =    256;   APACO  = 16.0  distance and # of slots for P.C.
   PSTRESS=    0.0 pullay stress

  Mass of Ions in am
   POMASS =   7.01 54.94 16.00
  Ionic Valenz
   ZVAL   =   3.00 13.00  6.00
  Atomic Wigner-Seitz radii
   RWIGS  =  -1.00 -1.00 -1.00
  virtual crystal weights 
   VCA    =   1.00  1.00  1.00
   NELECT =     203.0000    total number of electrons
   NUPDOWN=      -1.0000    fix difference up-down

 DOS related values:
   EMIN   =  10.00;   EMAX   =-10.00  energy-range for DOS
   EFERMI =   0.00
   ISMEAR =    -5;   SIGMA  =   0.05  broadening in eV -4-tet -1-fermi 0-gaus

 Electronic relaxation 2 (details)
   IALGO  =     68    algorithm
   LDIAG  =      T    sub-space diagonalisation (order eigenvalues)
   LSUBROT=      F    optimize rotation matrix (better conditioning)
   TURBO    =      0    0=normal 1=particle mesh
   IRESTART =      0    0=no restart 2=restart with 2 vectors
   NREBOOT  =      0    no. of reboots
   NMIN     =      0    reboot dimension
   EREF     =   0.00    reference energy to select bands
   IMIX   =      4    mixing-type and parameters
     AMIX     =   0.40;   BMIX     =  1.00
     AMIX_MAG =   1.60;   BMIX_MAG =  1.00
     AMIN     =   0.10
     WC   =   100.;   INIMIX=   1;  MIXPRE=   1;  MAXMIX= -45

 Intra band minimization:
   WEIMIN = 0.0000     energy-eigenvalue tresh-hold
   EBREAK =  0.00E+00  absolut break condition
   DEPER  =   0.30     relativ break condition  

   TIME   =   0.40     timestep for ELM

  volume/ion in A,a.u.               =      10.94        73.80
  Fermi-wavevector in a.u.,A,eV,Ry     =   1.482442  2.801409 29.900622  2.197634
  Thomas-Fermi vector in A             =   2.596227
 
 Write flags
   LWAVE        =      F    write WAVECAR
   LDOWNSAMPLE  =      F    k-point downsampling of WAVECAR
   LCHARG       =      T    write CHGCAR
   LVTOT        =      F    write LOCPOT, total local potential
   LVHAR        =      F    write LOCPOT, Hartree potential only
   LELF         =      F    write electronic localiz. function (ELF)
   LORBIT       =     11    0 simple, 1 ext, 2 COOP (PROOUT), +10 PAW based schemes


 Dipole corrections
   LMONO  =      F    monopole corrections only (constant potential shift)
   LDIPOL =      F    correct potential (dipole corrections)
   IDIPOL =      0    1-x, 2-y, 3-z, 4-all directions 
   EPSILON=  1.0000000 bulk dielectric constant

 Exchange correlation treatment:
   GGA     =    --    GGA type
   LEXCH   =     8    internal setting for exchange type
   VOSKOWN=      0    Vosko Wilk Nusair interpolation
   LHFCALC =     F    Hartree Fock is set to
   LHFONE  =     F    Hartree Fock one center treatment
   AEXX    =    0.0000 exact exchange contribution

 Linear response parameters
   LEPSILON=     F    determine dielectric tensor
   LRPA    =     F    only Hartree local field effects (RPA)
   LNABLA  =     F    use nabla operator in PAW spheres
   LVEL    =     F    velocity operator in full k-point grid
   LINTERFAST=   F  fast interpolation
   KINTER  =     0    interpolate to denser k-point grid
   CSHIFT  =0.1000    complex shift for real part using Kramers Kronig
   OMEGAMAX=  -1.0    maximum frequency
   DEG_THRESHOLD= 0.2000000E-02 threshold for treating states as degnerate
   RTIME   =   -0.100 relaxation time in fs
  (WPLASMAI=    0.000 imaginary part of plasma frequency in eV, 0.658/RTIME)
   DFIELD  = 0.0000000 0.0000000 0.0000000 field for delta impulse in time
 
 Orbital magnetization related:
   ORBITALMAG=     F  switch on orbital magnetization
   LCHIMAG   =     F  perturbation theory with respect to B field
   DQ        =  0.001000  dq finite difference perturbation B field
   LLRAUG    =     F  two centre corrections for induced B field



--------------------------------------------------------------------------------------------------------


 Static calculation
 charge density and potential will be updated during run
 spin polarized calculation
 RMM-DIIS sequential band-by-band and
  variant of blocked Davidson during initial phase
 perform sub-space diagonalisation
    before iterative eigenvector-optimisation
 modified Broyden-mixing scheme, WC =      100.0
 initial mixing is a Kerker type mixing with AMIX =  0.4000 and BMIX =      1.0000
 Hartree-type preconditioning will be used
 using additional bands           48
 real space projection scheme for non local part
 use partial core corrections
 calculate Harris-corrections to forces 
   (improved forces if not selfconsistent)
 use gradient corrections 
 use of overlap-Matrix (Vanderbilt PP)
 Fermi weights with tetrahedron method with Bloechl corrections


--------------------------------------------------------------------------------------------------------


  energy-cutoff  :      520.00
  volume of cell :      273.39
      direct lattice vectors                 reciprocal lattice vectors
     5.770635000  0.000000000  0.000000000     0.173291154  0.000000000  0.000000000
     0.000000000  5.770635000  0.000000000     0.000000000  0.173291154  0.000000000
     0.000000000  0.000000000  8.209947000     0.000000000  0.000000000  0.121803466

  length of vectors
     5.770635000  5.770635000  8.209947000     0.173291154  0.173291154  0.121803466


 
 k-points in units of 2pi/SCALE and weight: pymatgen v2019.10.16 with grid density =
   0.00000000  0.00000000  0.00000000       0.021
   0.04332279  0.00000000  0.00000000       0.042
   0.08664558  0.00000000  0.00000000       0.021
   0.00000000  0.04332279  0.00000000       0.042
   0.04332279  0.04332279  0.00000000       0.042
   0.08664558  0.04332279  0.00000000       0.042
  -0.04332279  0.04332279  0.00000000       0.042
   0.00000000  0.08664558  0.00000000       0.021
   0.04332279  0.08664558  0.00000000       0.042
   0.08664558  0.08664558  0.00000000       0.021
   0.00000000  0.00000000  0.04060116       0.042
   0.04332279  0.00000000  0.04060116       0.042
   0.08664558  0.00000000  0.04060116       0.042
  -0.04332279  0.00000000  0.04060116       0.042
   0.00000000  0.04332279  0.04060116       0.042
   0.04332279  0.04332279  0.04060116       0.042
   0.08664558  0.04332279  0.04060116       0.042
  -0.04332279  0.04332279  0.04060116       0.042
   0.00000000  0.08664558  0.04060116       0.042
   0.04332279  0.08664558  0.04060116       0.042
   0.08664558  0.08664558  0.04060116       0.042
  -0.04332279  0.08664558  0.04060116       0.042
   0.00000000 -0.04332279  0.04060116       0.042
   0.04332279 -0.04332279  0.04060116       0.042
   0.08664558 -0.04332279  0.04060116       0.042
  -0.04332279 -0.04332279  0.04060116       0.042
 
 k-points in reciprocal lattice and weights: pymatgen v2019.10.16 with grid density =
   0.00000000  0.00000000  0.00000000       0.021
   0.25000000  0.00000000  0.00000000       0.042
   0.50000000  0.00000000  0.00000000       0.021
   0.00000000  0.25000000  0.00000000       0.042
   0.25000000  0.25000000  0.00000000       0.042
   0.50000000  0.25000000  0.00000000       0.042
  -0.25000000  0.25000000  0.00000000       0.042
   0.00000000  0.50000000  0.00000000       0.021
   0.25000000  0.50000000  0.00000000       0.042
   0.50000000  0.50000000  0.00000000       0.021
   0.00000000  0.00000000  0.33333333       0.042
   0.25000000  0.00000000  0.33333333       0.042
   0.50000000  0.00000000  0.33333333       0.042
  -0.25000000  0.00000000  0.33333333       0.042
   0.00000000  0.25000000  0.33333333       0.042
   0.25000000  0.25000000  0.33333333       0.042
   0.50000000  0.25000000  0.33333333       0.042
  -0.25000000  0.25000000  0.33333333       0.042
   0.00000000  0.50000000  0.33333333       0.042
   0.25000000  0.50000000  0.33333333       0.042
   0.50000000  0.50000000  0.33333333       0.042
  -0.25000000  0.50000000  0.33333333       0.042
   0.00000000 -0.25000000  0.33333333       0.042
   0.25000000 -0.25000000  0.33333333       0.042
   0.50000000 -0.25000000  0.33333333       0.042
  -0.25000000 -0.25000000  0.33333333       0.042
 
 position of ions in fractional coordinates (direct lattice) 
   0.49999800  0.49999400  0.00014500
   0.75000000  0.50000000  0.37500000
   0.00000000  0.25000000  0.12500000
   0.25000000  0.50000000  0.37500000
   0.00000000  0.75000000  0.12500000
   0.25000000  0.00000000  0.87500000
   0.50000000  0.75000000  0.62500000
   0.75000000  0.00000000  0.87500000
   0.50000000  0.25000000  0.62500000
   0.50000000  0.27918000  0.39075200
   0.27918000  0.50000000  0.60924800
   0.72082000  0.50000000  0.60924800
   0.00000000  0.72082000  0.35924800
   0.00000000  0.27918000  0.35924800
   0.22082000  0.50000000  0.14075200
   0.50000000  0.72082000  0.39075200
   0.77918000  0.50000000  0.14075200
   0.00000000  0.77918000  0.89075200
   0.77918000  0.00000000  0.10924800
   0.22082000  0.00000000  0.10924800
   0.50000000  0.22082000  0.85924800
   0.50000000  0.77918000  0.85924800
   0.72082000  0.00000000  0.64075200
   0.00000000  0.22082000  0.89075200
   0.27918000  0.00000000  0.64075200
 
 position of ions in cartesian coordinates  (Angst):
   2.88530596  2.88528288  0.00119044
   4.32797625  2.88531750  3.07873012
   0.00000000  1.44265875  1.02624337
   1.44265875  2.88531750  3.07873012
   0.00000000  4.32797625  1.02624337
   1.44265875  0.00000000  7.18370362
   2.88531750  4.32797625  5.13121687
   4.32797625  0.00000000  7.18370362
   2.88531750  1.44265875  5.13121687
   2.88531750  1.61104588  3.20805321
   1.61104588  2.88531750  5.00189379
   4.15958912  2.88531750  5.00189379
   0.00000000  4.15958912  2.94940704
   0.00000000  1.61104588  2.94940704
   1.27427162  2.88531750  1.15556646
   2.88531750  4.15958912  3.20805321
   4.49636338  2.88531750  1.15556646
   0.00000000  4.49636338  7.31302671
   4.49636338  0.00000000  0.89692029
   1.27427162  0.00000000  0.89692029
   2.88531750  1.27427162  7.05438054
   2.88531750  4.49636338  7.05438054
   4.15958912  0.00000000  5.26053996
   0.00000000  1.27427162  7.31302671
   1.61104588  0.00000000  5.26053996
 


--------------------------------------------------------------------------------------------------------


 k-point  1 :   0.0000 0.0000 0.0000  plane waves:    7395
 k-point  2 :   0.2500 0.0000 0.0000  plane waves:    7381
 k-point  3 :   0.5000 0.0000 0.0000  plane waves:    7382
 k-point  4 :   0.0000 0.2500 0.0000  plane waves:    7381
 k-point  5 :   0.2500 0.2500 0.0000  plane waves:    7355
 k-point  6 :   0.5000 0.2500 0.0000  plane waves:    7358
 k-point  7 :  -0.2500 0.2500 0.0000  plane waves:    7355
 k-point  8 :   0.0000 0.5000 0.0000  plane waves:    7382
 k-point  9 :   0.2500 0.5000 0.0000  plane waves:    7358
 k-point 10 :   0.5000 0.5000 0.0000  plane waves:    7384
 k-point 11 :   0.0000 0.0000 0.3333  plane waves:    7330
 k-point 12 :   0.2500 0.0000 0.3333  plane waves:    7359
 k-point 13 :   0.5000 0.0000 0.3333  plane waves:    7362
 k-point 14 :  -0.2500 0.0000 0.3333  plane waves:    7359
 k-point 15 :   0.0000 0.2500 0.3333  plane waves:    7359
 k-point 16 :   0.2500 0.2500 0.3333  plane waves:    7352
 k-point 17 :   0.5000 0.2500 0.3333  plane waves:    7350
 k-point 18 :  -0.2500 0.2500 0.3333  plane waves:    7352
 k-point 19 :   0.0000 0.5000 0.3333  plane waves:    7362
 k-point 20 :   0.2500 0.5000 0.3333  plane waves:    7350
 k-point 21 :   0.5000 0.5000 0.3333  plane waves:    7356
 k-point 22 :  -0.2500 0.5000 0.3333  plane waves:    7350
 k-point 23 :   0.0000-0.2500 0.3333  plane waves:    7359
 k-point 24 :   0.2500-0.2500 0.3333  plane waves:    7352
 k-point 25 :   0.5000-0.2500 0.3333  plane waves:    7350
 k-point 26 :  -0.2500-0.2500 0.3333  plane waves:    7352

 maximum and minimum number of plane-waves per node :      7395     7330

 maximum number of plane-waves:      7395
 maximum index in each direction: 
   IXMAX=   10   IYMAX=   10   IZMAX=   15
   IXMIN=  -11   IYMIN=  -11   IZMIN=  -15


 serial   3D FFT for wavefunctions
 parallel 3D FFT for charge:
    minimum data exchange during FFTs selected (reduces bandwidth)


 total amount of memory used by VASP MPI-rank0   244219. kBytes
=======================================================================

   base      :      30000. kBytes
   nonlr-proj:      17011. kBytes
   fftplans  :       7295. kBytes
   grid      :      29392. kBytes
   one-center:        777. kBytes
   wavefun   :     159744. kBytes
 
     INWAV:  cpu time    0.0000: real time    0.0000
 Broyden mixing: mesh for mixing (old mesh)
   NGX = 21   NGY = 21   NGZ = 31
  (NGX  = 96   NGY  = 96   NGZ  =128)
  gives a total of  13671 points

 initial charge density was supplied:
 number of electron     202.9999960 magnetization      22.9655173
 keeping initial charge density in first step


--------------------------------------------------------------------------------------------------------


 Maximum index for non-local projection operator         7951
 Maximum index for augmentation-charges         2679 (set IRDMAX)


--------------------------------------------------------------------------------------------------------


 First call to EWALD:  gamma=   0.273
 Maximum number of real-space cells 3x 3x 2
 Maximum number of reciprocal cells 2x 2x 3

    FEWALD:  cpu time    0.0029: real time    0.0029


--------------------------------------- Iteration      1(   1)  ---------------------------------------


    POTLOK:  cpu time    0.2663: real time    0.2698
    SETDIJ:  cpu time    0.0243: real time    0.0243
     EDDAV:  cpu time   63.6596: real time   63.9819
 BZINTS: Fermi energy: 23.680604;203.000000 electrons
         Band energy: 222.777826;  BLOECHL correction: -0.146499
       DOS:  cpu time    0.0605: real time    0.0607
    --------------------------------------------
      LOOP:  cpu time   64.0108: real time   64.3368

 eigenvalue-minimisations  : 15804
 total energy-change (2. order) : 0.3040874E+04  (-0.1034180E+05)
 number of electron     202.9999960 magnetization      22.9655173
 augmentation part      202.9999960 magnetization      22.9655173

 Free energy of the ion-electron system (eV)
  ---------------------------------------------------
  alpha Z        PSCENC =      1096.51130837
  Ewald energy   TEWEN  =    -13555.49349035
  -Hartree energ DENC   =     -8547.89916652
  -exchange      EXHF   =         0.00000000
  -V(xc)+E(xc)   XCENC  =      1010.28935943
  PAW double counting   =     16611.65738911   -17116.11255375
  entropy T*S    EENTRO =         0.00000000
  eigenvalues    EBANDS =       222.77782550
  atomic energy  EATOM  =     23319.14298724
  Solvation  Ediel_sol  =         0.00000000
  ---------------------------------------------------
  free energy    TOTEN  =      3040.87365903 eV

  energy without entropy =     3040.87365903  energy(sigma->0) =     3040.87365903


--------------------------------------------------------------------------------------------------------




--------------------------------------- Iteration      1(   2)  ---------------------------------------


     EDDAV:  cpu time   64.5676: real time   64.8941
 BZINTS: Fermi energy:  6.338229;203.000000 electrons
         Band energy:***********;  BLOECHL correction: -0.066242
       DOS:  cpu time    0.0620: real time    0.0622
    --------------------------------------------
      LOOP:  cpu time   64.6297: real time   64.9563

 eigenvalue-minimisations  : 15732
 total energy-change (2. order) :-0.2731254E+04  (-0.2549193E+04)
 number of electron     202.9999960 magnetization      22.9655173
 augmentation part      202.9999960 magnetization      22.9655173

 Free energy of the ion-electron system (eV)
  ---------------------------------------------------
  alpha Z        PSCENC =      1096.51130837
  Ewald energy   TEWEN  =    -13555.49349035
  -Hartree energ DENC   =     -8547.89916652
  -exchange      EXHF   =         0.00000000
  -V(xc)+E(xc)   XCENC  =      1010.28935943
  PAW double counting   =     16611.65738911   -17116.11255375
  entropy T*S    EENTRO =         0.00000000
  eigenvalues    EBANDS =     -2508.47652606
  atomic energy  EATOM  =     23319.14298724
  Solvation  Ediel_sol  =         0.00000000
  ---------------------------------------------------
  free energy    TOTEN  =       309.61930746 eV

  energy without entropy =      309.61930746  energy(sigma->0) =      309.61930746


--------------------------------------------------------------------------------------------------------




--------------------------------------- Iteration      1(   3)  ---------------------------------------


     EDDAV:  cpu time   65.7068: real time   65.9906
 BZINTS: Fermi energy:  2.814212;203.000000 electrons
         Band energy:***********;  BLOECHL correction: -0.033864
       DOS:  cpu time    0.0594: real time    0.0596
    --------------------------------------------
      LOOP:  cpu time   65.7662: real time   66.0502

 eigenvalue-minimisations  : 16230
 total energy-change (2. order) :-0.4581822E+03  (-0.3899550E+03)
 number of electron     202.9999960 magnetization      22.9655173
 augmentation part      202.9999960 magnetization      22.9655173

 Free energy of the ion-electron system (eV)
  ---------------------------------------------------
  alpha Z        PSCENC =      1096.51130837
  Ewald energy   TEWEN  =    -13555.49349035
  -Hartree energ DENC   =     -8547.89916652
  -exchange      EXHF   =         0.00000000
  -V(xc)+E(xc)   XCENC  =      1010.28935943
  PAW double counting   =     16611.65738911   -17116.11255375
  entropy T*S    EENTRO =         0.00000000
  eigenvalues    EBANDS =     -2966.65869502
  atomic energy  EATOM  =     23319.14298724
  Solvation  Ediel_sol  =         0.00000000
  ---------------------------------------------------
  free energy    TOTEN  =      -148.56286149 eV

  energy without entropy =     -148.56286149  energy(sigma->0) =     -148.56286149


--------------------------------------------------------------------------------------------------------




--------------------------------------- Iteration      1(   4)  ---------------------------------------


     EDDAV:  cpu time   77.9537: real time   78.3257
 BZINTS: Fermi energy:  2.612496;203.000000 electrons
         Band energy:***********;  BLOECHL correction: -0.033823
       DOS:  cpu time    0.0590: real time    0.0591
    --------------------------------------------
      LOOP:  cpu time   78.0127: real time   78.3848

 eigenvalue-minimisations  : 19836
 total energy-change (2. order) :-0.4610122E+02  (-0.4457347E+02)
 number of electron     202.9999960 magnetization      22.9655173
 augmentation part      202.9999960 magnetization      22.9655173

 Free energy of the ion-electron system (eV)
  ---------------------------------------------------
  alpha Z        PSCENC =      1096.51130837
  Ewald energy   TEWEN  =    -13555.49349035
  -Hartree energ DENC   =     -8547.89916652
  -exchange      EXHF   =         0.00000000
  -V(xc)+E(xc)   XCENC  =      1010.28935943
  PAW double counting   =     16611.65738911   -17116.11255375
  entropy T*S    EENTRO =         0.00000000
  eigenvalues    EBANDS =     -3012.75991201
  atomic energy  EATOM  =     23319.14298724
  Solvation  Ediel_sol  =         0.00000000
  ---------------------------------------------------
  free energy    TOTEN  =      -194.66407848 eV

  energy without entropy =     -194.66407848  energy(sigma->0) =     -194.66407848


--------------------------------------------------------------------------------------------------------




--------------------------------------- Iteration      1(   5)  ---------------------------------------


     EDDAV:  cpu time   76.6736: real time   76.9677
 BZINTS: Fermi energy:  2.607702;203.000000 electrons
         Band energy:***********;  BLOECHL correction: -0.033652
       DOS:  cpu time    0.0601: real time    0.0601
    CHARGE:  cpu time    2.0377: real time    2.0443
    MIXING:  cpu time    0.0078: real time    0.0078
    --------------------------------------------
      LOOP:  cpu time   78.7792: real time   79.0799

 eigenvalue-minimisations  : 19632
 total energy-change (2. order) :-0.1365251E+01  (-0.1359141E+01)
 number of electron     202.9999960 magnetization      22.9858945
 augmentation part       68.8214221 magnetization      16.3257457

 Broyden mixing:
  rms(total) = 0.68129E-01    rms(broyden)= 0.68010E-01
  rms(prec ) = 0.85303E-01
  weight for this iteration     100.00

 Free energy of the ion-electron system (eV)
  ---------------------------------------------------
  alpha Z        PSCENC =      1096.51130837
  Ewald energy   TEWEN  =    -13555.49349035
  -Hartree energ DENC   =     -8547.89916652
  -exchange      EXHF   =         0.00000000
  -V(xc)+E(xc)   XCENC  =      1010.28935943
  PAW double counting   =     16611.65738911   -17116.11255375
  entropy T*S    EENTRO =         0.00000000
  eigenvalues    EBANDS =     -3014.12516270
  atomic energy  EATOM  =     23319.14298724
  Solvation  Ediel_sol  =         0.00000000
  ---------------------------------------------------
  free energy    TOTEN  =      -196.02932917 eV

  energy without entropy =     -196.02932917  energy(sigma->0) =     -196.02932917


--------------------------------------------------------------------------------------------------------




--------------------------------------- Iteration      1(   6)  ---------------------------------------


    POTLOK:  cpu time    0.2606: real time    0.2613
    SETDIJ:  cpu time    0.0236: real time    0.0237
    EDDIAG:  cpu time    9.9472: real time    9.9871
  RMM-DIIS:  cpu time   62.9639: real time   63.2287
    ORTHCH:  cpu time    0.7247: real time    0.7265
 BZINTS: Fermi energy:  2.703194;203.000000 electrons
         Band energy:***********;  BLOECHL correction: -0.034125
       DOS:  cpu time    0.0610: real time    0.0611
    CHARGE:  cpu time    2.0174: real time    2.0257
    MIXING:  cpu time    0.0090: real time    0.0090
    --------------------------------------------
      LOOP:  cpu time   76.0075: real time   76.3231

 eigenvalue-minimisations  : 20744
 total energy-change (2. order) :-0.4933938E+00  (-0.6713255E-01)
 number of electron     202.9999961 magnetization      22.9891381
 augmentation part       68.7539623 magnetization      16.2797977

 Broyden mixing:
  rms(total) = 0.96402E-01    rms(broyden)= 0.96340E-01
  rms(prec ) = 0.13046E+00
  weight for this iteration     100.00

 eigenvalues of (default mixing * dielectric matrix)
  average eigenvalue GAMMA=   0.4048
  0.4048

 Free energy of the ion-electron system (eV)
  ---------------------------------------------------
  alpha Z        PSCENC =      1096.51130837
  Ewald energy   TEWEN  =    -13555.49349035
  -Hartree energ DENC   =     -8547.99991721
  -exchange      EXHF   =         0.00000000
  -V(xc)+E(xc)   XCENC  =      1010.21857109
  PAW double counting   =     16618.12585295   -17122.91825744
  entropy T*S    EENTRO =         0.00000000
  eigenvalues    EBANDS =     -3014.10977759
  atomic energy  EATOM  =     23319.14298724
  Solvation  Ediel_sol  =         0.00000000
  ---------------------------------------------------
  free energy    TOTEN  =      -196.52272294 eV

  energy without entropy =     -196.52272294  energy(sigma->0) =     -196.52272294


--------------------------------------------------------------------------------------------------------




--------------------------------------- Iteration      1(   7)  ---------------------------------------


    POTLOK:  cpu time    0.2664: real time    0.2676
    SETDIJ:  cpu time    0.0240: real time    0.0241
    EDDIAG:  cpu time   10.1063: real time   10.1425
  RMM-DIIS:  cpu time   67.3419: real time   67.6405
    ORTHCH:  cpu time    0.8132: real time    0.8148
 BZINTS: Fermi energy:  2.678947;203.000000 electrons
         Band energy:***********;  BLOECHL correction: -0.034301
       DOS:  cpu time    0.0666: real time    0.0667
    --------------------------------------------
      LOOP:  cpu time   78.6185: real time   78.9561

 eigenvalue-minimisations  : 22049
 total energy-change (2. order) : 0.4650558E-02  (-0.5506823E-02)
 number of electron     202.9999961 magnetization      22.9891381
 augmentation part       68.7539623 magnetization      16.2797977

 Free energy of the ion-electron system (eV)
  ---------------------------------------------------
  alpha Z        PSCENC =      1096.51130837
  Ewald energy   TEWEN  =    -13555.49349035
  -Hartree energ DENC   =     -8546.57861868
  -exchange      EXHF   =         0.00000000
  -V(xc)+E(xc)   XCENC  =      1010.20049320
  PAW double counting   =     16615.28336726   -17119.96425292
  entropy T*S    EENTRO =         0.00000000
  eigenvalues    EBANDS =     -3015.61986649
  atomic energy  EATOM  =     23319.14298724
  Solvation  Ediel_sol  =         0.00000000
  ---------------------------------------------------
  free energy    TOTEN  =      -196.51807238 eV

  energy without entropy =     -196.51807238  energy(sigma->0) =     -196.51807238


--------------------------------------------------------------------------------------------------------




 average (electrostatic) potential at core
  the test charge radii are     0.8577  0.9577  0.7215
  (the norm of the test charge is              1.0000)
       1 -16.1489       2 -50.2391       3 -50.2676       4 -50.2371       5 -50.2581
       6 -50.2809       7 -50.2373       8 -50.2893       9 -50.2361      10 -73.1567
      11 -73.1565      12 -73.1568      13 -73.1192      14 -73.1192      15 -73.4267
      16 -73.1562      17 -73.4274      18 -73.2605      19 -73.2604      20 -73.2601
      21 -73.4282      22 -73.4283      23 -73.1197      24 -73.2601      25 -73.1187
 
 
 
 E-fermi :   2.6789     XC(G=0): -10.6782     alpha+bet : -9.6740


 spin component 1

 k-point     1 :       0.0000    0.0000    0.0000
  band No.  band energies     occupation 
      1     -48.4535      1.00000
      2     -48.3879      1.00000
      3     -48.3670      1.00000
      4     -48.3442      1.00000
      5     -48.3245      1.00000
      6     -48.3065      1.00000
      7     -48.2950      1.00000
      8     -48.2938      1.00000
      9     -48.1986      1.00000
     10     -48.1972      1.00000
     11     -48.1874      1.00000
     12     -48.1799      1.00000
     13     -48.1686      1.00000
     14     -48.1661      1.00000
     15     -48.1606      1.00000
     16     -48.1604      1.00000
     17     -48.1548      1.00000
     18     -48.1503      1.00000
     19     -48.1488      1.00000
     20     -48.1454      1.00000
     21     -48.1445      1.00000
     22     -48.1281      1.00000
     23     -48.1258      1.00000
     24     -48.1092      1.00000
     25     -41.6662      1.00000
     26     -17.5798      1.00000
     27     -16.9900      1.00000
     28     -16.8182      1.00000
     29     -16.2146      1.00000
     30     -16.1869      1.00000
     31     -16.1856      1.00000
     32     -15.9848      1.00000
     33     -15.8502      1.00000
     34     -15.8502      1.00000
     35     -15.8140      1.00000
     36     -15.7842      1.00000
     37     -15.7014      1.00000
     38     -15.7013      1.00000
     39     -15.5604      1.00000
     40     -15.5318      1.00000
     41     -15.5313      1.00000
     42      -5.1459      1.00000
     43      -4.6633      1.00000
     44      -4.6108      1.00000
     45      -4.6107      1.00000
     46      -4.1703      1.00000
     47      -4.1235      1.00000
     48      -3.9523      1.00000
     49      -3.9468      1.00000
     50      -3.8079      1.00000
     51      -3.6700      1.00000
     52      -3.6672      1.00000
     53      -3.6549      1.00000
     54      -3.5534      1.00000
     55      -3.4634      1.00000
     56      -3.1138      1.00000
     57      -3.0585      1.00000
     58      -3.0324      1.00000
     59      -3.0316      1.00000
     60      -2.9638      1.00000
     61      -2.8776      1.00000
     62      -2.8131      1.00000
     63      -2.7981      1.00000
     64      -2.7960      1.00000
     65      -2.6688      1.00000
     66      -2.4732      1.00000
     67      -2.4712      1.00000
     68      -2.3379      1.00000
     69      -2.2924      1.00000
     70      -1.9910      1.00000
     71      -1.9888      1.00000
     72      -1.8333      1.00000
     73      -1.6770      1.00000
     74      -1.6757      1.00000
     75      -1.1702      1.00000
     76      -1.1640      1.00000
     77      -0.8512      1.00000
     78      -0.8033      1.00000
     79      -0.8024      1.00000
     80      -0.6875      1.00000
     81      -0.6688      1.00000
     82      -0.5546      1.00000
     83      -0.5244      1.00000
     84      -0.5049      1.00000
     85      -0.5044      1.00000
     86      -0.3972      1.00000
     87       0.1334      1.00000
     88       0.1374      1.00000
     89       0.1507      1.00000
     90       0.2548      1.00000
     91       0.2575      1.00000
     92       0.2837      1.00000
     93       0.2925      1.00000
     94       0.2988      1.00000
     95       0.4361      1.00000
     96       0.4490      1.00000
     97       0.4575      1.00000
     98       0.4610      1.00000
     99       0.5474      1.00000
    100       0.5550      1.00000
    101       0.6102      1.00000
    102       0.6104      1.00000
    103       0.6390      1.00000
    104       0.9411      1.00000
    105       0.9632      1.00000
    106       0.9672      1.00000
    107       1.3475      1.00000
    108       1.3517      1.00000
    109       1.3567      1.00000
    110       1.4047      1.00000
    111       1.4903      1.00000
    112       1.5105      1.00000
    113       1.5163      1.00000
    114       3.2305      0.00000
    115       3.2530      0.00000
    116       3.6664      0.00000
    117       3.6723      0.00000
    118       3.8470      0.00000
    119       3.8563      0.00000
    120       3.9036      0.00000
    121       3.9976      0.00000
    122       3.9986      0.00000
    123       4.2645      0.00000
    124       4.2746      0.00000
    125       4.4313      0.00000
    126       4.4348      0.00000
    127       4.4732      0.00000
    128       4.5266      0.00000
    129       4.5676      0.00000
    130       8.4330      0.00000
    131      11.1219      0.00000
    132      11.5340      0.00000
    133      11.6558      0.00000
    134      11.6579      0.00000
    135      11.9624      0.00000
    136      12.4872      0.00000
    137      12.4884      0.00000
    138      13.2155      0.00000
    139      13.3814      0.00000
    140      13.5204      0.00000
    141      13.5254      0.00000
    142      13.5628      0.00000
    143      13.8680      0.00000
    144      15.7698      0.00000
    145      15.8441      0.00000
    146      15.9364      0.00000
    147      16.0249      0.00000
    148      16.2006      0.00000
    149      16.2679      0.00000
    150      16.4554      0.00000

 k-point     2 :       0.2500    0.0000    0.0000
  band No.  band energies     occupation 
      1     -48.4432      1.00000
      2     -48.3896      1.00000
      3     -48.3694      1.00000
      4     -48.3451      1.00000
      5     -48.3240      1.00000
      6     -48.3055      1.00000
      7     -48.2944      1.00000
      8     -48.2940      1.00000
      9     -48.1971      1.00000
     10     -48.1953      1.00000
     11     -48.1871      1.00000
     12     -48.1800      1.00000
     13     -48.1716      1.00000
     14     -48.1683      1.00000
     15     -48.1610      1.00000
     16     -48.1580      1.00000
     17     -48.1559      1.00000
     18     -48.1537      1.00000
     19     -48.1486      1.00000
     20     -48.1447      1.00000
     21     -48.1417      1.00000
     22     -48.1325      1.00000
     23     -48.1284      1.00000
     24     -48.1091      1.00000
     25     -41.6662      1.00000
     26     -17.4833      1.00000
     27     -17.0259      1.00000
     28     -16.7766      1.00000
     29     -16.3287      1.00000
     30     -16.1800      1.00000
     31     -16.1741      1.00000
     32     -15.9627      1.00000
     33     -15.8721      1.00000
     34     -15.8538      1.00000
     35     -15.8102      1.00000
     36     -15.7774      1.00000
     37     -15.7070      1.00000
     38     -15.6821      1.00000
     39     -15.5774      1.00000
     40     -15.5619      1.00000
     41     -15.5514      1.00000
     42      -4.9680      1.00000
     43      -4.4661      1.00000
     44      -4.4653      1.00000
     45      -4.3675      1.00000
     46      -4.1101      1.00000
     47      -3.9959      1.00000
     48      -3.9299      1.00000
     49      -3.9239      1.00000
     50      -3.9028      1.00000
     51      -3.7067      1.00000
     52      -3.6464      1.00000
     53      -3.6120      1.00000
     54      -3.5618      1.00000
     55      -3.3900      1.00000
     56      -3.2786      1.00000
     57      -3.2175      1.00000
     58      -3.1489      1.00000
     59      -3.0783      1.00000
     60      -3.0681      1.00000
     61      -2.9762      1.00000
     62      -2.9462      1.00000
     63      -2.9116      1.00000
     64      -2.8335      1.00000
     65      -2.7103      1.00000
     66      -2.6805      1.00000
     67      -2.4841      1.00000
     68      -2.2989      1.00000
     69      -1.9180      1.00000
     70      -1.9030      1.00000
     71      -1.8881      1.00000
     72      -1.6416      1.00000
     73      -1.6263      1.00000
     74      -1.4783      1.00000
     75      -1.3864      1.00000
     76      -1.3295      1.00000
     77      -1.2402      1.00000
     78      -1.1249      1.00000
     79      -1.0581      1.00000
     80      -0.9436      1.00000
     81      -0.6633      1.00000
     82      -0.6476      1.00000
     83      -0.6161      1.00000
     84      -0.5653      1.00000
     85      -0.3740      1.00000
     86      -0.2137      1.00000
     87      -0.1639      1.00000
     88       0.0256      1.00000
     89       0.0574      1.00000
     90       0.1690      1.00000
     91       0.2951      1.00000
     92       0.3558      1.00000
     93       0.3697      1.00000
     94       0.3948      1.00000
     95       0.4450      1.00000
     96       0.5063      1.00000
     97       0.5967      1.00000
     98       0.6046      1.00000
     99       0.6446      1.00000
    100       0.6968      1.00000
    101       0.7534      1.00000
    102       0.8211      1.00000
    103       0.8367      1.00000
    104       0.9457      1.00000
    105       1.0951      1.00000
    106       1.1314      1.00000
    107       1.2015      1.00000
    108       1.2741      1.00000
    109       1.3148      1.00000
    110       1.3806      1.00000
    111       1.4170      1.00000
    112       1.4936      1.00000
    113       1.5676      1.00000
    114       3.4255      0.00000
    115       3.4498      0.00000
    116       3.6985      0.00000
    117       3.7506      0.00000
    118       3.7637      0.00000
    119       3.7772      0.00000
    120       3.8685      0.00000
    121       3.9054      0.00000
    122       3.9190      0.00000
    123       4.0916      0.00000
    124       4.2537      0.00000
    125       4.2830      0.00000
    126       4.3095      0.00000
    127       4.3655      0.00000
    128       4.4149      0.00000
    129       4.4926      0.00000
    130       8.9215      0.00000
    131      11.2397      0.00000
    132      11.3026      0.00000
    133      11.6768      0.00000
    134      11.9801      0.00000
    135      12.0627      0.00000
    136      12.2034      0.00000
    137      12.7786      0.00000
    138      13.1806      0.00000
    139      13.5659      0.00000
    140      13.6839      0.00000
    141      13.7142      0.00000
    142      14.1887      0.00000
    143      14.6328      0.00000
    144      15.3158      0.00000
    145      15.5317      0.00000
    146      15.7373      0.00000
    147      15.9689      0.00000
    148      16.1513      0.00000
    149      16.2496      0.00000
    150      16.7483      0.00000

 k-point     3 :       0.5000    0.0000    0.0000
  band No.  band energies     occupation 
      1     -48.4259      1.00000
      2     -48.4044      1.00000
      3     -48.3614      1.00000
      4     -48.3501      1.00000
      5     -48.3236      1.00000
      6     -48.3048      1.00000
      7     -48.2946      1.00000
      8     -48.2932      1.00000
      9     -48.1970      1.00000
     10     -48.1870      1.00000
     11     -48.1855      1.00000
     12     -48.1836      1.00000
     13     -48.1800      1.00000
     14     -48.1679      1.00000
     15     -48.1630      1.00000
     16     -48.1606      1.00000
     17     -48.1576      1.00000
     18     -48.1490      1.00000
     19     -48.1458      1.00000
     20     -48.1448      1.00000
     21     -48.1407      1.00000
     22     -48.1360      1.00000
     23     -48.1334      1.00000
     24     -48.1090      1.00000
     25     -41.6661      1.00000
     26     -17.2758      1.00000
     27     -17.2115      1.00000
     28     -16.5891      1.00000
     29     -16.5443      1.00000
     30     -16.1728      1.00000
     31     -16.1633      1.00000
     32     -15.9438      1.00000
     33     -15.8841      1.00000
     34     -15.8579      1.00000
     35     -15.8044      1.00000
     36     -15.7701      1.00000
     37     -15.7270      1.00000
     38     -15.6526      1.00000
     39     -15.5940      1.00000
     40     -15.5923      1.00000
     41     -15.5815      1.00000
     42      -4.5599      1.00000
     43      -4.5410      1.00000
     44      -4.1200      1.00000
     45      -4.0348      1.00000
     46      -4.0066      1.00000
     47      -3.9336      1.00000
     48      -3.8870      1.00000
     49      -3.8638      1.00000
     50      -3.8477      1.00000
     51      -3.8020      1.00000
     52      -3.7930      1.00000
     53      -3.6965      1.00000
     54      -3.5537      1.00000
     55      -3.4785      1.00000
     56      -3.4133      1.00000
     57      -3.3435      1.00000
     58      -3.3264      1.00000
     59      -3.2533      1.00000
     60      -3.1270      1.00000
     61      -3.0486      1.00000
     62      -2.9346      1.00000
     63      -2.8906      1.00000
     64      -2.8392      1.00000
     65      -2.7556      1.00000
     66      -2.5405      1.00000
     67      -2.5108      1.00000
     68      -2.0826      1.00000
     69      -2.0563      1.00000
     70      -1.9751      1.00000
     71      -1.9746      1.00000
     72      -1.6844      1.00000
     73      -1.5901      1.00000
     74      -1.5418      1.00000
     75      -1.4698      1.00000
     76      -1.4111      1.00000
     77      -1.2599      1.00000
     78      -1.1994      1.00000
     79      -1.1497      1.00000
     80      -0.9708      1.00000
     81      -0.8955      1.00000
     82      -0.7783      1.00000
     83      -0.7757      1.00000
     84      -0.6781      1.00000
     85      -0.4468      1.00000
     86      -0.2890      1.00000
     87      -0.0739      1.00000
     88       0.0567      1.00000
     89       0.0792      1.00000
     90       0.1734      1.00000
     91       0.2519      1.00000
     92       0.3192      1.00000
     93       0.3350      1.00000
     94       0.5977      1.00000
     95       0.6512      1.00000
     96       0.6796      1.00000
     97       0.6894      1.00000
     98       0.7009      1.00000
     99       0.7434      1.00000
    100       0.7762      1.00000
    101       0.8421      1.00000
    102       0.9673      1.00000
    103       0.9925      1.00000
    104       1.0177      1.00000
    105       1.0889      1.00000
    106       1.1376      1.00000
    107       1.1392      1.00000
    108       1.1643      1.00000
    109       1.2500      1.00000
    110       1.3945      1.00000
    111       1.4304      1.00000
    112       1.4934      1.00000
    113       1.5038      1.00000
    114       3.6035      0.00000
    115       3.6246      0.00000
    116       3.6622      0.00000
    117       3.6901      0.00000
    118       3.7128      0.00000
    119       3.7343      0.00000
    120       3.8505      0.00000
    121       3.8557      0.00000
    122       3.9568      0.00000
    123       4.0594      0.00000
    124       4.0995      0.00000
    125       4.1153      0.00000
    126       4.1829      0.00000
    127       4.2231      0.00000
    128       4.2708      0.00000
    129       4.4585      0.00000
    130      10.0155      0.00000
    131      10.1395      0.00000
    132      11.4308      0.00000
    133      11.8407      0.00000
    134      11.9981      0.00000
    135      12.1673      0.00000
    136      12.2227      0.00000
    137      13.6787      0.00000
    138      13.8404      0.00000
    139      13.9037      0.00000
    140      13.9463      0.00000
    141      13.9624      0.00000
    142      14.0983      0.00000
    143      14.6615      0.00000
    144      14.7396      0.00000
    145      14.8943      0.00000
    146      15.6503      0.00000
    147      15.7269      0.00000
    148      15.8610      0.00000
    149      16.0298      0.00000
    150      16.5981      0.00000

 k-point     4 :       0.0000    0.2500    0.0000
  band No.  band energies     occupation 
      1     -48.4462      1.00000
      2     -48.3899      1.00000
      3     -48.3614      1.00000
      4     -48.3440      1.00000
      5     -48.3299      1.00000
      6     -48.3060      1.00000
      7     -48.2952      1.00000
      8     -48.2927      1.00000
      9     -48.1983      1.00000
     10     -48.1958      1.00000
     11     -48.1865      1.00000
     12     -48.1801      1.00000
     13     -48.1687      1.00000
     14     -48.1665      1.00000
     15     -48.1646      1.00000
     16     -48.1615      1.00000
     17     -48.1542      1.00000
     18     -48.1534      1.00000
     19     -48.1497      1.00000
     20     -48.1434      1.00000
     21     -48.1400      1.00000
     22     -48.1290      1.00000
     23     -48.1272      1.00000
     24     -48.1145      1.00000
     25     -41.6662      1.00000
     26     -17.4834      1.00000
     27     -17.0260      1.00000
     28     -16.7764      1.00000
     29     -16.3288      1.00000
     30     -16.1787      1.00000
     31     -16.1752      1.00000
     32     -15.9629      1.00000
     33     -15.8722      1.00000
     34     -15.8537      1.00000
     35     -15.8103      1.00000
     36     -15.7772      1.00000
     37     -15.7070      1.00000
     38     -15.6823      1.00000
     39     -15.5772      1.00000
     40     -15.5615      1.00000
     41     -15.5518      1.00000
     42      -4.9681      1.00000
     43      -4.4663      1.00000
     44      -4.4658      1.00000
     45      -4.3678      1.00000
     46      -4.1113      1.00000
     47      -3.9956      1.00000
     48      -3.9302      1.00000
     49      -3.9260      1.00000
     50      -3.9013      1.00000
     51      -3.7087      1.00000
     52      -3.6475      1.00000
     53      -3.6098      1.00000
     54      -3.5600      1.00000
     55      -3.3881      1.00000
     56      -3.2775      1.00000
     57      -3.2174      1.00000
     58      -3.1498      1.00000
     59      -3.0782      1.00000
     60      -3.0674      1.00000
     61      -2.9761      1.00000
     62      -2.9454      1.00000
     63      -2.9146      1.00000
     64      -2.8327      1.00000
     65      -2.7095      1.00000
     66      -2.6796      1.00000
     67      -2.4837      1.00000
     68      -2.2970      1.00000
     69      -1.9177      1.00000
     70      -1.9030      1.00000
     71      -1.8894      1.00000
     72      -1.6406      1.00000
     73      -1.6281      1.00000
     74      -1.4756      1.00000
     75      -1.3854      1.00000
     76      -1.3307      1.00000
     77      -1.2363      1.00000
     78      -1.1238      1.00000
     79      -1.0635      1.00000
     80      -0.9442      1.00000
     81      -0.6621      1.00000
     82      -0.6502      1.00000
     83      -0.6177      1.00000
     84      -0.5634      1.00000
     85      -0.3733      1.00000
     86      -0.2171      1.00000
     87      -0.1668      1.00000
     88       0.0271      1.00000
     89       0.0593      1.00000
     90       0.1691      1.00000
     91       0.2871      1.00000
     92       0.3507      1.00000
     93       0.3664      1.00000
     94       0.3896      1.00000
     95       0.4467      1.00000
     96       0.5068      1.00000
     97       0.5980      1.00000
     98       0.6081      1.00000
     99       0.6413      1.00000
    100       0.6967      1.00000
    101       0.7633      1.00000
    102       0.8253      1.00000
    103       0.8380      1.00000
    104       0.9486      1.00000
    105       1.0964      1.00000
    106       1.1302      1.00000
    107       1.2039      1.00000
    108       1.2759      1.00000
    109       1.3117      1.00000
    110       1.3851      1.00000
    111       1.4121      1.00000
    112       1.4936      1.00000
    113       1.5659      1.00000
    114       3.4286      0.00000
    115       3.4468      0.00000
    116       3.6967      0.00000
    117       3.7559      0.00000
    118       3.7584      0.00000
    119       3.7810      0.00000
    120       3.8684      0.00000
    121       3.9048      0.00000
    122       3.9195      0.00000
    123       4.1001      0.00000
    124       4.2490      0.00000
    125       4.2780      0.00000
    126       4.3134      0.00000
    127       4.3616      0.00000
    128       4.4150      0.00000
    129       4.4917      0.00000
    130       8.9215      0.00000
    131      11.2385      0.00000
    132      11.3021      0.00000
    133      11.6763      0.00000
    134      11.9832      0.00000
    135      12.0623      0.00000
    136      12.2029      0.00000
    137      12.7784      0.00000
    138      13.1788      0.00000
    139      13.5664      0.00000
    140      13.6878      0.00000
    141      13.7108      0.00000
    142      14.1848      0.00000
    143      14.6105      0.00000
    144      15.2198      0.00000
    145      15.5834      0.00000
    146      15.7320      0.00000
    147      16.0243      0.00000
    148      16.1139      0.00000
    149      16.3179      0.00000
    150      16.6376      0.00000

 k-point     5 :       0.2500    0.2500    0.0000
  band No.  band energies     occupation 
      1     -48.4355      1.00000
      2     -48.3860      1.00000
      3     -48.3707      1.00000
      4     -48.3457      1.00000
      5     -48.3291      1.00000
      6     -48.3041      1.00000
      7     -48.2979      1.00000
      8     -48.2890      1.00000
      9     -48.1959      1.00000
     10     -48.1946      1.00000
     11     -48.1865      1.00000
     12     -48.1802      1.00000
     13     -48.1709      1.00000
     14     -48.1685      1.00000
     15     -48.1660      1.00000
     16     -48.1601      1.00000
     17     -48.1578      1.00000
     18     -48.1521      1.00000
     19     -48.1494      1.00000
     20     -48.1434      1.00000
     21     -48.1396      1.00000
     22     -48.1319      1.00000
     23     -48.1298      1.00000
     24     -48.1142      1.00000
     25     -41.6661      1.00000
     26     -17.3880      1.00000
     27     -16.9840      1.00000
     28     -16.8159      1.00000
     29     -16.4289      1.00000
     30     -16.1733      1.00000
     31     -16.1641      1.00000
     32     -15.9392      1.00000
     33     -15.8739      1.00000
     34     -15.8493      1.00000
     35     -15.8166      1.00000
     36     -15.7577      1.00000
     37     -15.7074      1.00000
     38     -15.7040      1.00000
     39     -15.5987      1.00000
     40     -15.5859      1.00000
     41     -15.5767      1.00000
     42      -4.8030      1.00000
     43      -4.2930      1.00000
     44      -4.2732      1.00000
     45      -4.2303      1.00000
     46      -4.0359      1.00000
     47      -3.9566      1.00000
     48      -3.9281      1.00000
     49      -3.8854      1.00000
     50      -3.8468      1.00000
     51      -3.8112      1.00000
     52      -3.6246      1.00000
     53      -3.6022      1.00000
     54      -3.5341      1.00000
     55      -3.4606      1.00000
     56      -3.3632      1.00000
     57      -3.2108      1.00000
     58      -3.1973      1.00000
     59      -3.1562      1.00000
     60      -3.0154      1.00000
     61      -2.9984      1.00000
     62      -2.9903      1.00000
     63      -2.8951      1.00000
     64      -2.7239      1.00000
     65      -2.7139      1.00000
     66      -2.6968      1.00000
     67      -2.6424      1.00000
     68      -2.2664      1.00000
     69      -2.1358      1.00000
     70      -1.8886      1.00000
     71      -1.8407      1.00000
     72      -1.7494      1.00000
     73      -1.5650      1.00000
     74      -1.5236      1.00000
     75      -1.5085      1.00000
     76      -1.4695      1.00000
     77      -1.3444      1.00000
     78      -1.2812      1.00000
     79      -1.1424      1.00000
     80      -1.1304      1.00000
     81      -0.7938      1.00000
     82      -0.7822      1.00000
     83      -0.5570      1.00000
     84      -0.5476      1.00000
     85      -0.4480      1.00000
     86      -0.3579      1.00000
     87      -0.1058      1.00000
     88       0.0928      1.00000
     89       0.1206      1.00000
     90       0.2293      1.00000
     91       0.3330      1.00000
     92       0.4075      1.00000
     93       0.4100      1.00000
     94       0.4224      1.00000
     95       0.4968      1.00000
     96       0.5026      1.00000
     97       0.5874      1.00000
     98       0.6569      1.00000
     99       0.6605      1.00000
    100       0.8166      1.00000
    101       0.8898      1.00000
    102       0.8938      1.00000
    103       0.9591      1.00000
    104       1.0032      1.00000
    105       1.0237      1.00000
    106       1.0723      1.00000
    107       1.2804      1.00000
    108       1.3102      1.00000
    109       1.3893      1.00000
    110       1.4780      1.00000
    111       1.4983      1.00000
    112       1.5072      1.00000
    113       1.5262      1.00000
    114       3.4910      0.00000
    115       3.4929      0.00000
    116       3.5430      0.00000
    117       3.6366      0.00000
    118       3.6885      0.00000
    119       3.7967      0.00000
    120       3.8434      0.00000
    121       3.8650      0.00000
    122       3.9273      0.00000
    123       4.0138      0.00000
    124       4.1110      0.00000
    125       4.1562      0.00000
    126       4.2084      0.00000
    127       4.2611      0.00000
    128       4.3708      0.00000
    129       4.4418      0.00000
    130       9.3946      0.00000
    131      11.4125      0.00000
    132      11.5470      0.00000
    133      11.6385      0.00000
    134      11.8823      0.00000
    135      12.4278      0.00000
    136      12.5564      0.00000
    137      12.5787      0.00000
    138      12.7611      0.00000
    139      13.7056      0.00000
    140      14.0571      0.00000
    141      14.0875      0.00000
    142      14.4045      0.00000
    143      14.7848      0.00000
    144      15.0574      0.00000
    145      15.3527      0.00000
    146      15.6148      0.00000
    147      16.1972      0.00000
    148      16.2378      0.00000
    149      16.3255      0.00000
    150      16.5489      0.00000

 k-point     6 :       0.5000    0.2500    0.0000
  band No.  band energies     occupation 
      1     -48.4165      1.00000
      2     -48.3990      1.00000
      3     -48.3666      1.00000
      4     -48.3519      1.00000
      5     -48.3284      1.00000
      6     -48.3013      1.00000
      7     -48.3000      1.00000
      8     -48.2865      1.00000
      9     -48.1951      1.00000
     10     -48.1873      1.00000
     11     -48.1853      1.00000
     12     -48.1826      1.00000
     13     -48.1795      1.00000
     14     -48.1698      1.00000
     15     -48.1660      1.00000
     16     -48.1634      1.00000
     17     -48.1568      1.00000
     18     -48.1510      1.00000
     19     -48.1464      1.00000
     20     -48.1432      1.00000
     21     -48.1409      1.00000
     22     -48.1354      1.00000
     23     -48.1323      1.00000
     24     -48.1140      1.00000
     25     -41.6661      1.00000
     26     -17.1787      1.00000
     27     -17.1287      1.00000
     28     -16.6653      1.00000
     29     -16.6511      1.00000
     30     -16.1671      1.00000
     31     -16.1448      1.00000
     32     -15.9164      1.00000
     33     -15.8642      1.00000
     34     -15.8520      1.00000
     35     -15.8157      1.00000
     36     -15.7469      1.00000
     37     -15.7342      1.00000
     38     -15.6903      1.00000
     39     -15.6224      1.00000
     40     -15.6147      1.00000
     41     -15.6104      1.00000
     42      -4.4326      1.00000
     43      -4.4255      1.00000
     44      -4.0839      1.00000
     45      -3.9607      1.00000
     46      -3.9589      1.00000
     47      -3.9199      1.00000
     48      -3.8377      1.00000
     49      -3.8257      1.00000
     50      -3.7569      1.00000
     51      -3.7419      1.00000
     52      -3.6813      1.00000
     53      -3.6368      1.00000
     54      -3.5871      1.00000
     55      -3.5786      1.00000
     56      -3.4115      1.00000
     57      -3.3766      1.00000
     58      -3.2354      1.00000
     59      -3.2033      1.00000
     60      -2.9836      1.00000
     61      -2.9818      1.00000
     62      -2.9334      1.00000
     63      -2.8826      1.00000
     64      -2.8007      1.00000
     65      -2.6769      1.00000
     66      -2.5349      1.00000
     67      -2.5065      1.00000
     68      -2.3011      1.00000
     69      -2.2201      1.00000
     70      -2.1515      1.00000
     71      -1.9745      1.00000
     72      -1.9386      1.00000
     73      -1.9089      1.00000
     74      -1.7589      1.00000
     75      -1.6183      1.00000
     76      -1.5297      1.00000
     77      -1.4873      1.00000
     78      -1.1889      1.00000
     79      -1.0192      1.00000
     80      -1.0085      1.00000
     81      -0.9961      1.00000
     82      -0.9703      1.00000
     83      -0.8383      1.00000
     84      -0.3477      1.00000
     85      -0.2989      1.00000
     86      -0.2088      1.00000
     87      -0.0795      1.00000
     88      -0.0555      1.00000
     89      -0.0267      1.00000
     90       0.4134      1.00000
     91       0.4321      1.00000
     92       0.4459      1.00000
     93       0.4661      1.00000
     94       0.5235      1.00000
     95       0.5266      1.00000
     96       0.5507      1.00000
     97       0.5801      1.00000
     98       0.6395      1.00000
     99       0.6753      1.00000
    100       0.7759      1.00000
    101       0.8602      1.00000
    102       0.9430      1.00000
    103       1.0366      1.00000
    104       1.0758      1.00000
    105       1.1481      1.00000
    106       1.2410      1.00000
    107       1.3161      1.00000
    108       1.3776      1.00000
    109       1.4249      1.00000
    110       1.4708      1.00000
    111       1.4744      1.00000
    112       1.5334      1.00000
    113       1.5663      1.00000
    114       3.3195      0.00000
    115       3.3840      0.00000
    116       3.5570      0.00000
    117       3.6040      0.00000
    118       3.7056      0.00000
    119       3.7462      0.00000
    120       3.7609      0.00000
    121       3.8413      0.00000
    122       3.8819      0.00000
    123       3.9237      0.00000
    124       3.9458      0.00000
    125       4.0315      0.00000
    126       4.2361      0.00000
    127       4.2943      0.00000
    128       4.2955      0.00000
    129       4.3612      0.00000
    130      10.4069      0.00000
    131      10.5449      0.00000
    132      11.7176      0.00000
    133      11.9424      0.00000
    134      12.0534      0.00000
    135      12.3217      0.00000
    136      12.4677      0.00000
    137      13.0025      0.00000
    138      13.5272      0.00000
    139      13.5763      0.00000
    140      14.0937      0.00000
    141      14.2445      0.00000
    142      14.4625      0.00000
    143      14.7246      0.00000
    144      14.7567      0.00000
    145      15.6509      0.00000
    146      15.8130      0.00000
    147      15.9127      0.00000
    148      16.2255      0.00000
    149      16.3681      0.00000
    150      16.4879      0.00000

 k-point     7 :      -0.2500    0.2500    0.0000
[...]
    103       3.6500      0.00000
    104       3.6706      0.00000
    105       3.6974      0.00000
    106       3.7063      0.00000
    107       3.7385      0.00000
    108       3.7930      0.00000
    109       3.8175      0.00000
    110       3.8918      0.00000
    111       3.9340      0.00000
    112       3.9628      0.00000
    113       3.9770      0.00000
    114       5.1096      0.00000
    115       5.1580      0.00000
    116       5.2164      0.00000
    117       5.2836      0.00000
    118       5.3130      0.00000
    119       5.3251      0.00000
    120       5.3662      0.00000
    121       5.3822      0.00000
    122       5.4042      0.00000
    123       5.4364      0.00000
    124       5.5162      0.00000
    125       5.5985      0.00000
    126       5.6735      0.00000
    127       5.6941      0.00000
    128       5.7406      0.00000
    129       5.7812      0.00000
    130       9.9854      0.00000
    131      10.9183      0.00000
    132      11.6110      0.00000
    133      11.8108      0.00000
    134      12.1576      0.00000
    135      12.5962      0.00000
    136      13.1219      0.00000
    137      13.2235      0.00000
    138      13.7506      0.00000
    139      14.1513      0.00000
    140      14.3923      0.00000
    141      14.4676      0.00000
    142      14.7587      0.00000
    143      15.1376      0.00000
    144      15.3616      0.00000
    145      15.4240      0.00000
    146      15.8627      0.00000
    147      16.3166      0.00000
    148      16.4003      0.00000
    149      16.5816      0.00000
    150      16.7668      0.00000


--------------------------------------------------------------------------------------------------------


 soft charge-density along one line, spin component           1
         0         1         2         3         4         5         6         7         8         9
 total charge-density along one line
 
 soft charge-density along one line, spin component           2
         0         1         2         3         4         5         6         7         8         9
 total charge-density along one line
 
 pseudopotential strength for first ion, spin component:           1
-49.627   9.581  -0.000  -0.000  -0.000  -0.000  -0.000  -0.000
  9.581  -0.621  -0.000   0.000   0.000   0.000   0.000   0.000
 -0.000  -0.000  -0.518  -0.000  -0.000   0.265  -0.000  -0.000
 -0.000   0.000  -0.000  -0.518   0.000  -0.000   0.265   0.000
 -0.000   0.000  -0.000   0.000  -0.518  -0.000   0.000   0.265
 -0.000   0.000   0.265  -0.000  -0.000   1.932  -0.000  -0.000
 -0.000   0.000  -0.000   0.265   0.000  -0.000   1.932   0.000
 -0.000   0.000  -0.000   0.000   0.265  -0.000   0.000   1.932
 pseudopotential strength for first ion, spin component:           2
-49.622   9.580   0.000  -0.000  -0.000   0.000  -0.000  -0.000
  9.580  -0.620  -0.000   0.000   0.000  -0.000   0.000   0.000
  0.000  -0.000  -0.509  -0.000  -0.000   0.259   0.000  -0.000
 -0.000   0.000  -0.000  -0.509  -0.000   0.000   0.259  -0.000
 -0.000   0.000  -0.000  -0.000  -0.509  -0.000  -0.000   0.259
  0.000  -0.000   0.259   0.000  -0.000   1.935   0.000  -0.000
 -0.000   0.000   0.000   0.259  -0.000   0.000   1.935  -0.000
 -0.000   0.000  -0.000  -0.000   0.259  -0.000  -0.000   1.935
 total augmentation occupancy for first ion, spin component:           1
  2.016   0.110   0.000   0.000  -0.000   0.000  -0.000  -0.000
  0.110   0.777   0.000   0.000  -0.000   0.000  -0.000   0.000
  0.000   0.000   0.088   0.000   0.000  -0.016   0.000  -0.000
  0.000   0.000   0.000   0.090   0.000  -0.000  -0.016  -0.000
 -0.000  -0.000   0.000   0.000   0.089   0.000   0.000  -0.016
  0.000   0.000  -0.016  -0.000   0.000   0.003   0.000  -0.000
 -0.000  -0.000   0.000  -0.016   0.000   0.000   0.003   0.000
 -0.000   0.000  -0.000  -0.000  -0.016  -0.000   0.000   0.003
 total augmentation occupancy for first ion, spin component:           2
  0.001   0.005   0.000   0.000  -0.000   0.000   0.000  -0.000
  0.005   0.031   0.000  -0.000  -0.000  -0.000  -0.000  -0.000
  0.000   0.000   0.003   0.000  -0.000  -0.000  -0.000   0.000
  0.000  -0.000   0.000   0.003  -0.000   0.000  -0.000   0.000
 -0.000  -0.000  -0.000  -0.000   0.003  -0.000   0.000  -0.000
  0.000  -0.000  -0.000   0.000  -0.000   0.000  -0.000   0.000
  0.000  -0.000  -0.000  -0.000   0.000  -0.000   0.000  -0.000
 -0.000  -0.000   0.000   0.000  -0.000   0.000  -0.000   0.000


------------------------ aborting loop because EDIFF is reached ----------------------------------------


 


 total charge     
 
# of ion       s       p       d       tot
------------------------------------------
    1        2.081   0.213   0.000   2.294
    2        0.343   6.445   4.857  11.645
    3        0.342   6.444   4.864  11.650
    4        0.343   6.445   4.856  11.644
    5        0.342   6.443   4.860  11.646
    6        0.342   6.444   4.872  11.658
    7        0.343   6.445   4.856  11.644
    8        0.342   6.444   4.875  11.662
    9        0.343   6.445   4.856  11.644
   10        1.582   3.397   0.000   4.979
   11        1.582   3.397   0.000   4.979
   12        1.582   3.397   0.000   4.979
   13        1.583   3.395   0.000   4.978
   14        1.583   3.395   0.000   4.978
   15        1.569   3.466   0.000   5.035
   16        1.582   3.397   0.000   4.979
   17        1.569   3.466   0.000   5.035
   18        1.581   3.398   0.000   4.979
   19        1.581   3.398   0.000   4.979
   20        1.581   3.398   0.000   4.980
   21        1.569   3.465   0.000   5.034
   22        1.569   3.465   0.000   5.034
   23        1.583   3.394   0.000   4.977
   24        1.581   3.397   0.000   4.979
   25        1.583   3.395   0.000   4.977
--------------------------------------------------
tot         30.082 106.390  38.897 175.369
 


 magnetization (x)
 
# of ion       s       p       d       tot
------------------------------------------
    1        0.004   0.007   0.000   0.011
    2        0.030   0.035   2.717   2.782
    3        0.029   0.034   2.671   2.734
    4        0.030   0.035   2.717   2.782
    5        0.029   0.034   2.672   2.735
    6        0.029   0.034   2.667   2.730
    7        0.030   0.035   2.716   2.781
    8        0.029   0.034   2.666   2.729
    9        0.030   0.035   2.716   2.781
   10        0.003   0.009   0.000   0.012
   11        0.003   0.009   0.000   0.012
   12        0.003   0.009   0.000   0.012
   13        0.003   0.020   0.000   0.023
   14        0.003   0.020   0.000   0.023
   15        0.001   0.016   0.000   0.017
   16        0.003   0.009   0.000   0.012
   17        0.001   0.017   0.000   0.018
   18        0.003   0.009   0.000   0.011
   19        0.003   0.009   0.000   0.011
   20        0.003   0.009   0.000   0.011
   21        0.001   0.017   0.000   0.018
   22        0.001   0.017   0.000   0.018
   23        0.003   0.020   0.000   0.023
   24        0.003   0.009   0.000   0.011
   25        0.003   0.020   0.000   0.023
--------------------------------------------------
tot          0.283   0.497  21.541  22.321
 
    CHARGE:  cpu time    2.2346: real time    2.2407
    FORLOC:  cpu time    0.0346: real time    0.0348
    FORNL :  cpu time   19.4186: real time   19.4936
    STRESS:  cpu time   58.2711: real time   58.4947
    FORCOR:  cpu time    0.2512: real time    0.2521
    FORHAR:  cpu time    0.0584: real time    0.0584
    MIXING:  cpu time    0.0071: real time    0.0071
    OFIELD:  cpu time    0.0000: real time    0.0000

  FORCE on cell =-STRESS in cart. coord.  units (eV):
  Direction    XX          YY          ZZ          XY          YZ          ZX
  --------------------------------------------------------------------------------------
  Alpha Z  1096.51131  1096.51131  1096.51131
  Ewald   -4524.47011 -4525.11160 -4505.96238    -0.00000     0.00933    -0.00311
  Hartree  2846.06884  2843.61393  2859.92101     0.01121     0.30615     0.17648
  E(xc)   -1110.68761 -1110.69019 -1110.69486     0.00035     0.00011     0.00003
  Local   -1207.15300 -1203.84732 -1238.77538    -0.01875    -0.35932    -0.20009
  n-local  -910.01290  -910.00902  -909.97258     0.00078     0.00065     0.00168
  augment   599.06451   599.08364   598.76866     0.00680    -0.00008    -0.00000
  Kinetic  3212.37702  3212.46693  3211.29813     0.00643    -0.00344    -0.00225
  Fock        0.00000     0.00000     0.00000     0.00000     0.00000     0.00000
  -------------------------------------------------------------------------------------
  Total       1.69807     2.01766     1.09391     0.00683    -0.04662    -0.02727
  in kB       9.95125    11.82419     6.41067     0.04000    -0.27321    -0.15979
  external pressure =        9.40 kB  Pullay stress =        0.00 kB


 VOLUME and BASIS-vectors are now :
 -----------------------------------------------------------------------------
  energy-cutoff  :      520.00
  volume of cell :      273.39
      direct lattice vectors                 reciprocal lattice vectors
     5.770635000  0.000000000  0.000000000     0.173291154  0.000000000  0.000000000
     0.000000000  5.770635000  0.000000000     0.000000000  0.173291154  0.000000000
     0.000000000  0.000000000  8.209947000     0.000000000  0.000000000  0.121803466

  length of vectors
     5.770635000  5.770635000  8.209947000     0.173291154  0.173291154  0.121803466


 FORCES acting on ions
    electron-ion (+dipol)            ewald-force                    non-local-force                 convergence-correction
 -----------------------------------------------------------------------------------------------
   0.641E-02 -.120E-01 0.126E+00   0.153E-02 0.456E-02 -.158E+00   0.681E-04 0.254E-03 -.617E-02   -.764E-02 0.705E-02 0.341E-01
   -.108E+02 -.247E-01 -.314E+02   0.110E+02 0.325E-03 0.329E+02   -.263E+00 -.133E-02 -.601E+00   0.505E-01 0.248E-01 -.274E+00
   -.307E-01 0.189E+02 -.263E+02   -.470E-03 -.201E+02 0.269E+02   -.248E-03 0.405E+00 -.513E+00   0.307E-01 0.568E-01 0.195E-01
   0.108E+02 -.230E-01 -.314E+02   -.110E+02 0.325E-03 0.329E+02   0.262E+00 0.444E-03 -.599E+00   -.489E-01 0.223E-01 -.278E+00
   -.331E-01 -.189E+02 -.263E+02   -.470E-03 0.201E+02 0.269E+02   -.354E-02 -.405E+00 -.514E+00   0.355E-01 -.547E-01 0.220E-01
   0.190E+02 0.216E-01 0.260E+02   -.201E+02 -.141E-02 -.270E+02   0.411E+00 0.223E-02 0.505E+00   -.119E+00 -.227E-01 0.293E+00
   0.322E-01 -.106E+02 0.317E+02   0.108E-03 0.110E+02 -.328E+02   0.896E-03 -.258E+00 0.610E+00   -.322E-01 -.787E-01 -.711E-01
   -.190E+02 0.201E-01 0.260E+02   0.201E+02 -.141E-02 -.270E+02   -.410E+00 0.261E-03 0.503E+00   0.118E+00 -.199E-01 0.297E+00
   0.322E-01 0.106E+02 0.317E+02   0.108E-03 -.110E+02 -.328E+02   0.237E-02 0.255E+00 0.610E+00   -.334E-01 0.816E-01 -.679E-01
   0.164E-01 0.357E+03 0.233E+03   0.473E-04 -.378E+03 -.247E+03   0.519E-03 0.206E+02 0.139E+02   -.182E-01 0.890E-01 -.277E-01
   0.357E+03 0.483E-02 -.233E+03   -.378E+03 0.142E-03 0.247E+03   0.206E+02 0.715E-03 -.139E+02   0.794E-01 -.599E-02 -.675E-01
   -.357E+03 0.626E-02 -.233E+03   0.378E+03 0.142E-03 0.247E+03   -.206E+02 0.129E-02 -.139E+02   -.855E-01 -.753E-02 -.613E-01
   -.157E-01 -.355E+03 -.257E+03   -.522E-04 0.376E+03 0.272E+03   -.189E-02 -.206E+02 -.145E+02   0.178E-01 -.748E-01 -.317E+00
   -.159E-01 0.355E+03 -.257E+03   -.522E-04 -.376E+03 0.272E+03   -.695E-03 0.206E+02 -.145E+02   0.161E-01 0.887E-01 -.240E+00
   -.315E+03 -.615E-01 0.212E+03   0.330E+03 0.103E-02 -.222E+03   -.141E+02 -.498E-02 0.957E+01   -.202E+00 0.647E-01 0.479E-02
   0.169E-01 -.357E+03 0.234E+03   0.473E-04 0.378E+03 -.247E+03   0.152E-02 -.206E+02 0.139E+02   -.181E-01 -.864E-01 -.458E-01
   0.315E+03 -.624E-01 0.212E+03   -.330E+03 0.103E-02 -.222E+03   0.141E+02 -.562E-02 0.957E+01   0.209E+00 0.659E-01 -.126E-02
   -.590E-01 0.344E+03 0.257E+03   -.206E-03 -.364E+03 -.272E+03   -.480E-02 0.201E+02 0.144E+02   0.623E-01 -.950E-01 0.332E+00
   0.344E+03 0.620E-01 -.258E+03   -.364E+03 -.617E-03 0.272E+03   0.201E+02 0.572E-02 -.144E+02   0.258E+00 -.660E-01 0.119E+00
   -.344E+03 0.646E-01 -.258E+03   0.364E+03 -.617E-03 0.272E+03   -.201E+02 0.641E-02 -.144E+02   -.248E+00 -.689E-01 0.565E-01
   0.560E-01 -.315E+03 -.212E+03   0.341E-03 0.330E+03 0.222E+03   0.423E-02 -.142E+02 -.956E+01   -.599E-01 0.120E+00 0.368E-01
   0.537E-01 0.315E+03 -.212E+03   0.341E-03 -.330E+03 0.222E+03   0.387E-02 0.142E+02 -.956E+01   -.576E-01 -.122E+00 0.548E-01
   -.355E+03 -.495E-02 0.258E+03   0.376E+03 -.156E-03 -.272E+03   -.206E+02 -.122E-02 0.145E+02   -.974E-01 0.585E-02 -.850E-01
   -.564E-01 -.344E+03 0.257E+03   -.206E-03 0.364E+03 -.272E+03   -.424E-02 -.201E+02 0.144E+02   0.605E-01 0.849E-01 0.256E+00
   0.355E+03 -.525E-02 0.257E+03   -.376E+03 -.156E-03 -.272E+03   0.206E+02 -.120E-02 0.145E+02   0.862E-01 0.561E-02 -.232E-01
 -----------------------------------------------------------------------------------------------
   0.850E-02 -.157E-01 0.457E-01   0.000E+00 -.569E-13 0.114E-12   -.176E-02 -.137E-02 -.125E-01   -.395E-02 0.144E-01 -.341E-01
 
 
 POSITION                                       TOTAL-FORCE (eV/Angst)
 -----------------------------------------------------------------------------------
      2.88531      2.88528      0.00119         0.000254     -0.000067     -0.004451
      4.32798      2.88532      3.07873         0.059112     -0.000798      0.628018
      0.00000      1.44266      1.02624        -0.000902     -0.800073      0.116963
      1.44266      2.88532      3.07873        -0.058223      0.000161      0.626725
      0.00000      4.32798      1.02624        -0.001703      0.800505      0.115936
      1.44266      0.00000      7.18370        -0.795611     -0.000200     -0.120506
      2.88532      4.32798      5.13122         0.000868      0.058493     -0.619909
      4.32798      0.00000      7.18370         0.796719     -0.000761     -0.121427
      2.88532      1.44266      5.13122         0.001207     -0.058664     -0.619921
      2.88532      1.61105      3.20805        -0.001339      0.022785      0.011856
      1.61105      2.88532      5.00189         0.022459     -0.000199     -0.014020
      4.15959      2.88532      5.00189        -0.022697      0.000265     -0.013925
      0.00000      4.15959      2.94941         0.000120     -0.087589     -0.123146
      0.00000      1.61105      2.94941        -0.000708      0.085606     -0.123913
      1.27427      2.88532      1.15557         0.448573     -0.000704     -0.404961
      2.88532      4.15959      3.20805         0.000241     -0.020524      0.012805
      4.49636      2.88532      1.15557        -0.447909     -0.000956     -0.404546
      0.00000      4.49636      7.31303        -0.001765      0.022650     -0.013464
      4.49636      0.00000      0.89692         0.019516      0.001129      0.007256
      1.27427      0.00000      0.89692        -0.019914      0.001621      0.008287
      2.88532      1.27427      7.05438         0.000506      0.448855      0.408627
      2.88532      4.49636      7.05438         0.000196     -0.449877      0.409412
      4.15959      0.00000      5.26054        -0.083831     -0.000374      0.125908
      0.00000      1.27427      7.31303        -0.000548     -0.020396     -0.012718
      1.61105      0.00000      5.26054         0.085378     -0.000888      0.125113
 -----------------------------------------------------------------------------------
    total drift:                                0.002796     -0.002645     -0.000820


--------------------------------------------------------------------------------------------------------



  FREE ENERGIE OF THE ION-ELECTRON SYSTEM (eV)
  ---------------------------------------------------
  free  energy   TOTEN  =      -196.51807238 eV

  energy  without entropy=     -196.51807238  energy(sigma->0) =     -196.51807238
 


--------------------------------------------------------------------------------------------------------


    POTLOK:  cpu time    0.2866: real time    0.2873


--------------------------------------------------------------------------------------------------------


     LOOP+:  cpu time  589.1401: real time  591.7992
    4ORBIT:  cpu time    0.0000: real time    0.0000
 


 total charge     
 
# of ion       s       p       d       tot
------------------------------------------
    1        2.081   0.213   0.000   2.294
    2        0.343   6.445   4.857  11.645
    3        0.342   6.444   4.864  11.650
    4        0.343   6.445   4.856  11.644
    5        0.342   6.443   4.860  11.646
    6        0.342   6.444   4.872  11.658
    7        0.343   6.445   4.856  11.644
    8        0.342   6.444   4.875  11.662
    9        0.343   6.445   4.856  11.644
   10        1.582   3.397   0.000   4.979
   11        1.582   3.397   0.000   4.979
   12        1.582   3.397   0.000   4.979
   13        1.583   3.395   0.000   4.978
   14        1.583   3.395   0.000   4.978
   15        1.569   3.466   0.000   5.035
   16        1.582   3.397   0.000   4.979
   17        1.569   3.466   0.000   5.035
   18        1.581   3.398   0.000   4.979
   19        1.581   3.398   0.000   4.979
   20        1.581   3.398   0.000   4.980
   21        1.569   3.465   0.000   5.034
   22        1.569   3.465   0.000   5.034
   23        1.583   3.394   0.000   4.977
   24        1.581   3.397   0.000   4.979
   25        1.583   3.395   0.000   4.977
--------------------------------------------------
tot         30.082 106.390  38.897 175.369
 


 magnetization (x)
 
# of ion       s       p       d       tot
------------------------------------------
    1        0.004   0.007   0.000   0.011
    2        0.030   0.035   2.717   2.782
    3        0.029   0.034   2.671   2.734
    4        0.030   0.035   2.717   2.782
    5        0.029   0.034   2.672   2.735
    6        0.029   0.034   2.667   2.730
    7        0.030   0.035   2.716   2.781
    8        0.029   0.034   2.666   2.729
    9        0.030   0.035   2.716   2.781
   10        0.003   0.009   0.000   0.012
   11        0.003   0.009   0.000   0.012
   12        0.003   0.009   0.000   0.012
   13        0.003   0.020   0.000   0.023
   14        0.003   0.020   0.000   0.023
   15        0.001   0.016   0.000   0.017
   16        0.003   0.009   0.000   0.012
   17        0.001   0.017   0.000   0.018
   18        0.003   0.009   0.000   0.011
   19        0.003   0.009   0.000   0.011
   20        0.003   0.009   0.000   0.011
   21        0.001   0.017   0.000   0.018
   22        0.001   0.017   0.000   0.018
   23        0.003   0.020   0.000   0.023
   24        0.003   0.009   0.000   0.011
   25        0.003   0.020   0.000   0.023
--------------------------------------------------
tot          0.283   0.497  21.541  22.321
 
 BZINTS: Fermi energy:  2.678947;203.000000 electrons
         Band energy:***********;  BLOECHL correction: -0.034301

 total amount of memory used by VASP MPI-rank0   244219. kBytes
=======================================================================

   base      :      30000. kBytes
   nonlr-proj:      17011. kBytes
   fftplans  :       7295. kBytes
   grid      :      29392. kBytes
   one-center:        777. kBytes
   wavefun   :     159744. kBytes
 
  
  
 General timing and accounting informations for this job:
 ========================================================
  
                  Total CPU time used (sec):      609.218
                            User time (sec):      601.494
                          System time (sec):        7.724
                         Elapsed time (sec):      611.925
  
                   Maximum memory used (kb):   479571968.
                   Average memory used (kb):           0.
  
                          Minor page faults:       121806
                          Major page faults:          224
                 Voluntary context switches:           37
