 vasp.5.4.4.18Apr17-6-g9f103f2a35 (build Aug 22 2019 09:35:51) complex          
  
 executed on             LinuxIFC date 2021.04.26  19:41:22
 running on    6 total cores
 distrk:  each k-point on    6 cores,    1 groups
 distr:  one band on NCORES_PER_BAND=   1 cores,    6 groups


--------------------------------------------------------------------------------------------------------


 INCAR:
 POTCAR:   PAW_PBE Li_sv 23Jan2001                
 POTCAR:   PAW_PBE Mn_pv 07Sep2000                
 POTCAR:   PAW_PBE O 08Apr2002                    

 ----------------------------------------------------------------------------- 
|                                                                             |
|           W    W    AA    RRRRR   N    N  II  N    N   GGGG   !!!           |
|           W    W   A  A   R    R  NN   N  II  NN   N  G    G  !!!           |
|           W    W  A    A  R    R  N N  N  II  N N  N  G       !!!           |
|           W WW W  AAAAAA  RRRRR   N  N N  II  N  N N  G  GGG   !            |
|           WW  WW  A    A  R   R   N   NN  II  N   NN  G    G                |
|           W    W  A    A  R    R  N    N  II  N    N   GGGG   !!!           |
|                                                                             |
|      For optimal performance we recommend to set                            |
|        NCORE= 4 - approx SQRT( number of cores)                             |
|      NCORE specifies how many cores store one orbital (NPAR=cpu/NCORE).     |
|      This setting can  greatly improve the performance of VASP for DFT.     |
|      The default,   NCORE=1            might be grossly inefficient         |
|      on modern multi-core architectures or massively parallel machines.     |
|      Do your own testing !!!!                                               |
|      Unfortunately you need to use the default for GW and RPA calculations. |
|      (for HF NCORE is supported but not extensively tested yet)             |
|                                                                             |
 ----------------------------------------------------------------------------- 

 POTCAR:   PAW_PBE Li_sv 23Jan2001                
   VRHFIN =Li: 1s2s2p                                                           
   LEXCH  = PE                                                                  
   EATOM  =   202.7858 eV,   14.9043 Ry                                         
                                                                                
   TITEL  = PAW_PBE Li_sv 23Jan2001                                             
   LULTRA =        F    use ultrasoft PP ?                                      
   IUNSCR =        0    unscreen: 0-lin 1-nonlin 2-no                           
   RPACOR =     .000    partial core radius                                     
   POMASS =    7.010; ZVAL   =    3.000    mass and valenz                      
   RCORE  =    2.050    outmost cutoff radius                                   
   RWIGS  =    2.050; RWIGS  =    1.085    wigner-seitz radius (au A)           
   ENMAX  =  271.649; ENMIN  =  203.737 eV                                      
   ICORE  =        2    local potential                                         
   LCOR   =        T    correct aug charges                                     
   LPAW   =        T    paw PP                                                  
   EAUG   =  428.394                                                            
   RMAX   =    2.797    core radius for proj-oper                               
   RAUG   =    1.300    factor for augmentation sphere                          
   RDEP   =    2.094    radius for radial grids                                 
   RDEPT  =    1.550    core radius for aug-charge                              
   QCUT   =   -4.468; QGAM   =    8.937    optimization parameters              
                                                                                
   Description                                                                  
     l     E      TYP  RCUT    TYP  RCUT                                        
     0   .000     23  1.550                                                     
     0   .000     23  2.050                                                     
     0   .000     23  1.550                                                     
     0   .000     23  2.050                                                     
     1  -.200     23  2.050                                                     
     1  1.500     23  2.050                                                     
     2   .000      7  1.550                                                     
  local pseudopotential read in
  atomic valenz-charges read in
  non local Contribution for L=           0  read in
    real space projection operators read in
  non local Contribution for L=           0  read in
    real space projection operators read in
  non local Contribution for L=           1  read in
    real space projection operators read in
  non local Contribution for L=           1  read in
    real space projection operators read in
    PAW grid and wavefunctions read in
 
   number of l-projection  operators is LMAX  =           4
   number of lm-projection operators is LMMAX =           8
 
 POTCAR:   PAW_PBE Mn_pv 07Sep2000                
   VRHFIN =Mn: 3p4s3d                                                           
   LEXCH  = PE                                                                  
   EATOM  =  2024.8347 eV,  148.8212 Ry                                         
                                                                                
   TITEL  = PAW_PBE Mn_pv 07Sep2000                                             
   LULTRA =        F    use ultrasoft PP ?                                      
   IUNSCR =        1    unscreen: 0-lin 1-nonlin 2-no                           
   RPACOR =    2.080    partial core radius                                     
   POMASS =   54.938; ZVAL   =   13.000    mass and valenz                      
   RCORE  =    2.300    outmost cutoff radius                                   
   RWIGS  =    2.500; RWIGS  =    1.323    wigner-seitz radius (au A)           
   ENMAX  =  269.865; ENMIN  =  202.399 eV                                      
   RCLOC  =    1.725    cutoff for local pot                                    
   LCOR   =        T    correct aug charges                                     
   LPAW   =        T    paw PP                                                  
   EAUG   =  569.085                                                            
   DEXC   =    -.003                                                            
   RMAX   =    2.807    core radius for proj-oper                               
   RAUG   =    1.300    factor for augmentation sphere                          
   RDEP   =    2.338    radius for radial grids                                 
   QCUT   =   -4.454; QGAM   =    8.907    optimization parameters              
                                                                                
   Description                                                                  
     l     E      TYP  RCUT    TYP  RCUT                                        
     1   .000     23  2.000                                                     
     1  -.100     23  2.000                                                     
     2   .000     23  2.300                                                     
     2   .000     23  2.300                                                     
     0   .000     23  2.300                                                     
     0   .000     23  2.300                                                     
     3   .000      7   .000                                                     
  local pseudopotential read in
  partial core-charges read in
  atomic valenz-charges read in
  non local Contribution for L=           1  read in
    real space projection operators read in
  non local Contribution for L=           1  read in
    real space projection operators read in
  non local Contribution for L=           2  read in
    real space projection operators read in
  non local Contribution for L=           2  read in
    real space projection operators read in
  non local Contribution for L=           0  read in
    real space projection operators read in
  non local Contribution for L=           0  read in
    real space projection operators read in
    PAW grid and wavefunctions read in
 
   number of l-projection  operators is LMAX  =           6
   number of lm-projection operators is LMMAX =          18
 
 POTCAR:   PAW_PBE O 08Apr2002                    
   VRHFIN =O: s2p4                                                              
   LEXCH  = PE                                                                  
   EATOM  =   432.3788 eV,   31.7789 Ry                                         
                                                                                
   TITEL  = PAW_PBE O 08Apr2002                                                 
   LULTRA =        F    use ultrasoft PP ?                                      
   IUNSCR =        0    unscreen: 0-lin 1-nonlin 2-no                           
   RPACOR =     .000    partial core radius                                     
   POMASS =   16.000; ZVAL   =    6.000    mass and valenz                      
   RCORE  =    1.520    outmost cutoff radius                                   
   RWIGS  =    1.550; RWIGS  =     .820    wigner-seitz radius (au A)           
   ENMAX  =  400.000; ENMIN  =  300.000 eV                                      
   ICORE  =        2    local potential                                         
   LCOR   =        T    correct aug charges                                     
   LPAW   =        T    paw PP                                                  
   EAUG   =  605.392                                                            
   DEXC   =     .000                                                            
   RMAX   =    2.264    core radius for proj-oper                               
   RAUG   =    1.300    factor for augmentation sphere                          
   RDEP   =    1.550    radius for radial grids                                 
   QCUT   =   -5.520; QGAM   =   11.041    optimization parameters              
                                                                                
   Description                                                                  
     l     E      TYP  RCUT    TYP  RCUT                                        
     0   .000     23  1.200                                                     
     0  -.700     23  1.200                                                     
     1   .000     23  1.520                                                     
     1   .600     23  1.520                                                     
     2   .000      7  1.500                                                     
  local pseudopotential read in
  atomic valenz-charges read in
  non local Contribution for L=           0  read in
    real space projection operators read in
  non local Contribution for L=           0  read in
    real space projection operators read in
  non local Contribution for L=           1  read in
    real space projection operators read in
  non local Contribution for L=           1  read in
    real space projection operators read in
    PAW grid and wavefunctions read in
 
   number of l-projection  operators is LMAX  =           4
   number of lm-projection operators is LMMAX =           8
 
 Optimization of the real space projectors (new method)

 maximal supplied QI-value         = 18.33
 optimisation between [QCUT,QGAM] = [ 11.55, 23.28] = [ 37.34,151.76] Ry 
 Optimized for a Real-space Cutoff    1.32 Angstroem

   l    n(q)    QCUT    max X(q) W(low)/X(q) W(high)/X(q)  e(spline) 
   0      9    11.548     5.519    0.68E-05    0.20E-05    0.27E-07
   0      9    11.548    24.272    0.42E-04    0.24E-04    0.63E-07
   1      9    11.548     4.148    0.83E-04    0.77E-04    0.38E-06
   1      9    11.548    11.842    0.23E-03    0.17E-03    0.54E-06
 Optimization of the real space projectors (new method)

 maximal supplied QI-value         = 16.25
 optimisation between [QCUT,QGAM] = [ 11.54, 23.24] = [ 37.28,151.24] Ry 
 Optimized for a Real-space Cutoff    1.53 Angstroem

   l    n(q)    QCUT    max X(q) W(low)/X(q) W(high)/X(q)  e(spline) 
   1     10    11.539     4.093    0.14E-05    0.94E-06    0.35E-07
   1     10    11.539     5.163    0.38E-04    0.24E-04    0.17E-06
   2     10    11.539     4.144    0.87E-05    0.14E-04    0.48E-07
   2     10    11.539    35.116    0.12E-03    0.13E-03    0.25E-06
   0     11    11.539    20.431    0.20E-04    0.18E-05    0.19E-07
   0     11    11.539    61.159    0.37E-04    0.19E-04    0.29E-06
 Optimization of the real space projectors (new method)

 maximal supplied QI-value         = 24.76
 optimisation between [QCUT,QGAM] = [ 11.64, 23.27] = [ 37.91,151.63] Ry 
 Optimized for a Real-space Cutoff    1.08 Angstroem

   l    n(q)    QCUT    max X(q) W(low)/X(q) W(high)/X(q)  e(spline) 
   0      7    11.635     4.192    0.54E-04    0.80E-04    0.26E-07
   0      7    11.635     8.473    0.70E-04    0.40E-03    0.21E-06
   1      7    11.635     2.474    0.39E-04    0.14E-03    0.23E-07
   1      7    11.635     3.912    0.25E-03    0.37E-03    0.22E-06
 PAW_PBE Li_sv 23Jan2001                :
 energy of atom  1       EATOM= -202.7858
 kinetic energy error for atom=    0.0020 (will be added to EATOM!!)
 PAW_PBE Mn_pv 07Sep2000                :
 energy of atom  2       EATOM=-2024.8347
 kinetic energy error for atom=    0.0058 (will be added to EATOM!!)
 PAW_PBE O 08Apr2002                    :
 energy of atom  3       EATOM= -432.3788
 kinetic energy error for atom=    0.0208 (will be added to EATOM!!)
 
 
 POSCAR: Li1 Mn8 O16                             
  positions in direct lattice
  No initial velocities read in
 exchange correlation table for  LEXCH =        8
   RHO(1)=    0.500       N(1)  =     2000
   RHO(2)=  100.500       N(2)  =     4000
 


--------------------------------------------------------------------------------------------------------


 ion  position               nearest neighbor table
   1  0.500  0.500  0.000-  15 1.98  17 1.98  21 1.98  22 1.98
   2  0.750  0.500  0.375-  10 1.93  13 1.93  14 1.93  16 1.93  12 1.93  17 1.93   4 2.89   4 2.89
                             9 2.89   3 2.89   5 2.89   7 2.89
   3  0.000  0.250  0.125-  15 1.93  17 1.93  19 1.93  20 1.93  14 1.93  24 1.93   5 2.89   5 2.89
                             8 2.89   4 2.89   2 2.89   6 2.89
   4  0.250  0.500  0.375-  10 1.93  13 1.93  14 1.93  16 1.93  15 1.93  11 1.93   2 2.89   2 2.89
                             9 2.89   3 2.89   5 2.89   7 2.89
   5  0.000  0.750  0.125-  15 1.93  17 1.93  19 1.93  20 1.93  13 1.93  18 1.93   3 2.89   3 2.89
                             8 2.89   2 2.89   4 2.89   6 2.89
   6  0.250  0.000  0.875-  18 1.93  21 1.93  22 1.93  24 1.93  20 1.93  25 1.93   8 2.89   8 2.89
                             9 2.89   5 2.89   7 2.89   3 2.89
   7  0.500  0.750  0.625-  11 1.93  12 1.93  23 1.93  25 1.93  16 1.93  22 1.93   9 2.89   9 2.89
                             2 2.89   4 2.89   6 2.89   8 2.89
   8  0.750  0.000  0.875-  18 1.93  21 1.93  22 1.93  24 1.93  23 1.93  19 1.93   6 2.89   6 2.89
                             9 2.89   5 2.89   3 2.89   7 2.89
   9  0.500  0.250  0.625-  11 1.93  12 1.93  23 1.93  25 1.93  10 1.93  21 1.93   7 2.89   7 2.89
                             8 2.89   4 2.89   6 2.89   2 2.89
  10  0.500  0.279  0.391-   2 1.93   4 1.93   9 1.93
  11  0.279  0.500  0.609-   7 1.93   9 1.93   4 1.93
  12  0.721  0.500  0.609-   7 1.93   9 1.93   2 1.93
  13  0.000  0.721  0.359-   2 1.93   4 1.93   5 1.93
  14  0.000  0.279  0.359-   2 1.93   4 1.93   3 1.93
  15  0.221  0.500  0.141-   3 1.93   5 1.93   4 1.93   1 1.98
  16  0.500  0.721  0.391-   2 1.93   4 1.93   7 1.93
  17  0.779  0.500  0.141-   3 1.93   5 1.93   2 1.93   1 1.98
  18  0.000  0.779  0.891-   6 1.93   8 1.93   5 1.93
  19  0.779  0.000  0.109-   3 1.93   5 1.93   8 1.93
  20  0.221  0.000  0.109-   3 1.93   5 1.93   6 1.93
  21  0.500  0.221  0.859-   6 1.93   8 1.93   9 1.93   1 1.98
  22  0.500  0.779  0.859-   6 1.93   8 1.93   7 1.93   1 1.98
  23  0.721  0.000  0.641-   7 1.93   9 1.93   8 1.93
  24  0.000  0.221  0.891-   6 1.93   8 1.93   3 1.93
  25  0.279  0.000  0.641-   7 1.93   9 1.93   6 1.93
 

IMPORTANT INFORMATION: All symmetrisations will be switched off!
NOSYMM: (Re-)initialisation of all symmetry stuff for point group C_1.

 
 
 KPOINTS: pymatgen v2019.10.16 with grid density =

Automatic generation of k-mesh.
Space group operators:
 irot       det(A)        alpha          n_x          n_y          n_z        tau_x        tau_y        tau_z
    1     1.000000     0.000000     1.000000     0.000000     0.000000     0.000000     0.000000     0.000000
 
 Subroutine IBZKPT returns following result:
 ===========================================
 
 Found     26 irreducible k-points:
 
 Following reciprocal coordinates:
            Coordinates               Weight
  0.000000  0.000000  0.000000      1.000000
  0.250000  0.000000  0.000000      2.000000
  0.500000  0.000000  0.000000      1.000000
  0.000000  0.250000  0.000000      2.000000
  0.250000  0.250000  0.000000      2.000000
  0.500000  0.250000  0.000000      2.000000
 -0.250000  0.250000  0.000000      2.000000
  0.000000  0.500000  0.000000      1.000000
  0.250000  0.500000  0.000000      2.000000
  0.500000  0.500000  0.000000      1.000000
  0.000000  0.000000  0.333333      2.000000
  0.250000  0.000000  0.333333      2.000000
  0.500000  0.000000  0.333333      2.000000
 -0.250000  0.000000  0.333333      2.000000
  0.000000  0.250000  0.333333      2.000000
  0.250000  0.250000  0.333333      2.000000
  0.500000  0.250000  0.333333      2.000000
 -0.250000  0.250000  0.333333      2.000000
  0.000000  0.500000  0.333333      2.000000
  0.250000  0.500000  0.333333      2.000000
  0.500000  0.500000  0.333333      2.000000
 -0.250000  0.500000  0.333333      2.000000
  0.000000 -0.250000  0.333333      2.000000
  0.250000 -0.250000  0.333333      2.000000
  0.500000 -0.250000  0.333333      2.000000
 -0.250000 -0.250000  0.333333      2.000000
 
 Following cartesian coordinates:
            Coordinates               Weight
  0.000000  0.000000  0.000000      1.000000
  0.043323  0.000000  0.000000      2.000000
  0.086646  0.000000  0.000000      1.000000
  0.000000  0.043323  0.000000      2.000000
  0.043323  0.043323  0.000000      2.000000
  0.086646  0.043323  0.000000      2.000000
 -0.043323  0.043323  0.000000      2.000000
  0.000000  0.086646  0.000000      1.000000
  0.043323  0.086646  0.000000      2.000000
  0.086646  0.086646  0.000000      1.000000
  0.000000  0.000000  0.040601      2.000000
  0.043323  0.000000  0.040601      2.000000
  0.086646  0.000000  0.040601      2.000000
 -0.043323  0.000000  0.040601      2.000000
  0.000000  0.043323  0.040601      2.000000
  0.043323  0.043323  0.040601      2.000000
  0.086646  0.043323  0.040601      2.000000
 -0.043323  0.043323  0.040601      2.000000
  0.000000  0.086646  0.040601      2.000000
  0.043323  0.086646  0.040601      2.000000
  0.086646  0.086646  0.040601      2.000000
 -0.043323  0.086646  0.040601      2.000000
  0.000000 -0.043323  0.040601      2.000000
  0.043323 -0.043323  0.040601      2.000000
  0.086646 -0.043323  0.040601      2.000000
 -0.043323 -0.043323  0.040601      2.000000
 
 TETIRR: Found    144 inequivalent tetrahedra from      288


--------------------------------------------------------------------------------------------------------




 Dimension of arrays:
   k-points           NKPTS =     26   k-points in BZ     NKDIM =     26   number of bands    NBANDS=    150
   number of dos      NEDOS =    301   number of ions     NIONS =     25
   non local maximal  LDIM  =      6   non local SUM 2l+1 LMDIM =     18
   total plane-waves  NPLWV = 147456
   max r-space proj   IRMAX =   8202   max aug-charges    IRDMAX=  16563
   dimension x,y,z NGX =    48 NGY =   48 NGZ =   64
   dimension x,y,z NGXF=    96 NGYF=   96 NGZF=  128
   support grid    NGXF=    96 NGYF=   96 NGZF=  128
   ions per type =               1   8  16
   NGX,Y,Z   is equivalent  to a cutoff of  13.83, 13.83, 12.96 a.u.
   NGXF,Y,Z  is equivalent  to a cutoff of  27.66, 27.66, 25.92 a.u.

 SYSTEM =  unknown system                          
 POSCAR =  Li1 Mn8 O16                             

 Startparameter for this run:
   NWRITE =      2    write-flag & timer
   PREC   = accura    normal or accurate (medium, high low for compatibility)
   ISTART =      0    job   : 0-new  1-cont  2-samecut
   ICHARG =      1    charge: 1-file 2-atom 10-const
   ISPIN  =      2    spin polarized calculation?
   LNONCOLLINEAR =      F non collinear calculations
   LSORBIT =      F    spin-orbit coupling
   INIWAV =      1    electr: 0-lowe 1-rand  2-diag
   LASPH  =      F    aspherical Exc in radial PAW
   METAGGA=      F    non-selfconsistent MetaGGA calc.

 Electronic Relaxation 1
   ENCUT  =  520.0 eV  38.22 Ry    6.18 a.u.  10.73 10.73 15.27*2*pi/ulx,y,z
   ENINI  =  520.0     initial cutoff
   ENAUG  =  605.4 eV  augmentation charge cutoff
   NELM   =    100;   NELMIN=  1; NELMDL= -5     # of ELM steps 
   EDIFF  = 0.1E-01   stopping-criterion for ELM
   LREAL  =      T    real-space projection
   NLSPLINE    = F    spline interpolate recip. space projectors
   LCOMPAT=      F    compatible to vasp.4.4
   GGA_COMPAT  = T    GGA compatible to vasp.4.4-vasp.4.6
   LMAXPAW     = -100 max onsite density
   LMAXMIX     =    2 max onsite mixed and CHGCAR
   VOSKOWN=      0    Vosko Wilk Nusair interpolation
   ROPT   =   -0.00025  -0.00025  -0.00025
 Ionic relaxation
   EDIFFG = 0.0E+00   stopping-criterion for IOM
   NSW    =      0    number of steps for IOM
   NBLOCK =      1;   KBLOCK =      1    inner block; outer block 
   IBRION =     -1    ionic relax: 0-MD 1-quasi-New 2-CG
   NFREE  =      0    steps in history (QN), initial steepest desc. (CG)
   ISIF   =      2    stress and relaxation
   IWAVPR =     10    prediction:  0-non 1-charg 2-wave 3-comb
   ISYM   =      0    0-nonsym 1-usesym 2-fastsym
   LCORR  =      T    Harris-Foulkes like correction to forces

   POTIM  = 0.5000    time-step for ionic-motion
   TEIN   =    0.0    initial temperature
   TEBEG  =    0.0;   TEEND  =   0.0 temperature during run
   SMASS  =  -3.00    Nose mass-parameter (am)
   estimated Nose-frequenzy (Omega)   =  0.10E-29 period in steps =****** mass=  -0.761E-27a.u.
   SCALEE = 1.0000    scale energy and forces
   NPACO  =    256;   APACO  = 16.0  distance and # of slots for P.C.
   PSTRESS=    0.0 pullay stress

  Mass of Ions in am
   POMASS =   7.01 54.94 16.00
  Ionic Valenz
   ZVAL   =   3.00 13.00  6.00
  Atomic Wigner-Seitz radii
   RWIGS  =  -1.00 -1.00 -1.00
  virtual crystal weights 
   VCA    =   1.00  1.00  1.00
   NELECT =     203.0000    total number of electrons
   NUPDOWN=      -1.0000    fix difference up-down

 DOS related values:
   EMIN   =  10.00;   EMAX   =-10.00  energy-range for DOS
   EFERMI =   0.00
   ISMEAR =    -5;   SIGMA  =   0.05  broadening in eV -4-tet -1-fermi 0-gaus

 Electronic relaxation 2 (details)
   IALGO  =     68    algorithm
   LDIAG  =      T    sub-space diagonalisation (order eigenvalues)
   LSUBROT=      F    optimize rotation matrix (better conditioning)
   TURBO    =      0    0=normal 1=particle mesh
   IRESTART =      0    0=no restart 2=restart with 2 vectors
   NREBOOT  =      0    no. of reboots
   NMIN     =      0    reboot dimension
   EREF     =   0.00    reference energy to select bands
   IMIX   =      4    mixing-type and parameters
     AMIX     =   0.40;   BMIX     =  1.00
     AMIX_MAG =   1.60;   BMIX_MAG =  1.00
     AMIN     =   0.10
     WC   =   100.;   INIMIX=   1;  MIXPRE=   1;  MAXMIX= -45

 Intra band minimization:
   WEIMIN = 0.0000     energy-eigenvalue tresh-hold
   EBREAK =  0.00E+00  absolut break condition
   DEPER  =   0.30     relativ break condition  

   TIME   =   0.40     timestep for ELM

  volume/ion in A,a.u.               =      10.94        73.80
  Fermi-wavevector in a.u.,A,eV,Ry     =   1.482442  2.801409 29.900622  2.197634
  Thomas-Fermi vector in A             =   2.596227
 
 Write flags
   LWAVE        =      F    write WAVECAR
   LDOWNSAMPLE  =      F    k-point downsampling of WAVECAR
   LCHARG       =      T    write CHGCAR
   LVTOT        =      F    write LOCPOT, total local potential
   LVHAR        =      F    write LOCPOT, Hartree potential only
   LELF         =      F    write electronic localiz. function (ELF)
   LORBIT       =     11    0 simple, 1 ext, 2 COOP (PROOUT), +10 PAW based schemes


 Dipole corrections
   LMONO  =      F    monopole corrections only (constant potential shift)
   LDIPOL =      F    correct potential (dipole corrections)
   IDIPOL =      0    1-x, 2-y, 3-z, 4-all directions 
   EPSILON=  1.0000000 bulk dielectric constant

 Exchange correlation treatment:
   GGA     =    --    GGA type
   LEXCH   =     8    internal setting for exchange type
   VOSKOWN=      0    Vosko Wilk Nusair interpolation
   LHFCALC =     F    Hartree Fock is set to
   LHFONE  =     F    Hartree Fock one center treatment
   AEXX    =    0.0000 exact exchange contribution

 Linear response parameters
   LEPSILON=     F    determine dielectric tensor
   LRPA    =     F    only Hartree local field effects (RPA)
   LNABLA  =     F    use nabla operator in PAW spheres
   LVEL    =     F    velocity operator in full k-point grid
   LINTERFAST=   F  fast interpolation
   KINTER  =     0    interpolate to denser k-point grid
   CSHIFT  =0.1000    complex shift for real part using Kramers Kronig
   OMEGAMAX=  -1.0    maximum frequency
   DEG_THRESHOLD= 0.2000000E-02 threshold for treating states as degnerate
   RTIME   =   -0.100 relaxation time in fs
  (WPLASMAI=    0.000 imaginary part of plasma frequency in eV, 0.658/RTIME)
   DFIELD  = 0.0000000 0.0000000 0.0000000 field for delta impulse in time
 
 Orbital magnetization related:
   ORBITALMAG=     F  switch on orbital magnetization
   LCHIMAG   =     F  perturbation theory with respect to B field
   DQ        =  0.001000  dq finite difference perturbation B field
   LLRAUG    =     F  two centre corrections for induced B field



--------------------------------------------------------------------------------------------------------


 Static calculation
 charge density and potential will be updated during run
 spin polarized calculation
 RMM-DIIS sequential band-by-band and
  variant of blocked Davidson during initial phase
 perform sub-space diagonalisation
    before iterative eigenvector-optimisation
 modified Broyden-mixing scheme, WC =      100.0
 initial mixing is a Kerker type mixing with AMIX =  0.4000 and BMIX =      1.0000
 Hartree-type preconditioning will be used
 using additional bands           48
 real space projection scheme for non local part
 use partial core corrections
 calculate Harris-corrections to forces 
   (improved forces if not selfconsistent)
 use gradient corrections 
 use of overlap-Matrix (Vanderbilt PP)
 Fermi weights with tetrahedron method with Bloechl corrections


--------------------------------------------------------------------------------------------------------


  energy-cutoff  :      520.00
  volume of cell :      273.39
      direct lattice vectors                 reciprocal lattice vectors
     5.770635000  0.000000000  0.000000000     0.173291154  0.000000000  0.000000000
     0.000000000  5.770635000  0.000000000     0.000000000  0.173291154  0.000000000
     0.000000000  0.000000000  8.209947000     0.000000000  0.000000000  0.121803466

  length of vectors
     5.770635000  5.770635000  8.209947000     0.173291154  0.173291154  0.121803466


 
 k-points in units of 2pi/SCALE and weight: pymatgen v2019.10.16 with grid density =
   0.00000000  0.00000000  0.00000000       0.021
   0.04332279  0.00000000  0.00000000       0.042
   0.08664558  0.00000000  0.00000000       0.021
   0.00000000  0.04332279  0.00000000       0.042
   0.04332279  0.04332279  0.00000000       0.042
   0.08664558  0.04332279  0.00000000       0.042
  -0.04332279  0.04332279  0.00000000       0.042
   0.00000000  0.08664558  0.00000000       0.021
   0.04332279  0.08664558  0.00000000       0.042
   0.08664558  0.08664558  0.00000000       0.021
   0.00000000  0.00000000  0.04060116       0.042
   0.04332279  0.00000000  0.04060116       0.042
   0.08664558  0.00000000  0.04060116       0.042
  -0.04332279  0.00000000  0.04060116       0.042
   0.00000000  0.04332279  0.04060116       0.042
   0.04332279  0.04332279  0.04060116       0.042
   0.08664558  0.04332279  0.04060116       0.042
  -0.04332279  0.04332279  0.04060116       0.042
   0.00000000  0.08664558  0.04060116       0.042
   0.04332279  0.08664558  0.04060116       0.042
   0.08664558  0.08664558  0.04060116       0.042
  -0.04332279  0.08664558  0.04060116       0.042
   0.00000000 -0.04332279  0.04060116       0.042
   0.04332279 -0.04332279  0.04060116       0.042
   0.08664558 -0.04332279  0.04060116       0.042
  -0.04332279 -0.04332279  0.04060116       0.042
 
 k-points in reciprocal lattice and weights: pymatgen v2019.10.16 with grid density =
   0.00000000  0.00000000  0.00000000       0.021
   0.25000000  0.00000000  0.00000000       0.042
   0.50000000  0.00000000  0.00000000       0.021
   0.00000000  0.25000000  0.00000000       0.042
   0.25000000  0.25000000  0.00000000       0.042
   0.50000000  0.25000000  0.00000000       0.042
  -0.25000000  0.25000000  0.00000000       0.042
   0.00000000  0.50000000  0.00000000       0.021
   0.25000000  0.50000000  0.00000000       0.042
   0.50000000  0.50000000  0.00000000       0.021
   0.00000000  0.00000000  0.33333333       0.042
   0.25000000  0.00000000  0.33333333       0.042
   0.50000000  0.00000000  0.33333333       0.042
  -0.25000000  0.00000000  0.33333333       0.042
   0.00000000  0.25000000  0.33333333       0.042
   0.25000000  0.25000000  0.33333333       0.042
   0.50000000  0.25000000  0.33333333       0.042
  -0.25000000  0.25000000  0.33333333       0.042
   0.00000000  0.50000000  0.33333333       0.042
   0.25000000  0.50000000  0.33333333       0.042
   0.50000000  0.50000000  0.33333333       0.042
  -0.25000000  0.50000000  0.33333333       0.042
   0.00000000 -0.25000000  0.33333333       0.042
   0.25000000 -0.25000000  0.33333333       0.042
   0.50000000 -0.25000000  0.33333333       0.042
  -0.25000000 -0.25000000  0.33333333       0.042
 
 position of ions in fractional coordinates (direct lattice) 
   0.49999800  0.49999400  0.00014500
   0.75000000  0.50000000  0.37500000
   0.00000000  0.25000000  0.12500000
   0.25000000  0.50000000  0.37500000
   0.00000000  0.75000000  0.12500000
   0.25000000  0.00000000  0.87500000
   0.50000000  0.75000000  0.62500000
   0.75000000  0.00000000  0.87500000
   0.50000000  0.25000000  0.62500000
   0.50000000  0.27918000  0.39075200
   0.27918000  0.50000000  0.60924800
   0.72082000  0.50000000  0.60924800
   0.00000000  0.72082000  0.35924800
   0.00000000  0.27918000  0.35924800
   0.22082000  0.50000000  0.14075200
   0.50000000  0.72082000  0.39075200
   0.77918000  0.50000000  0.14075200
   0.00000000  0.77918000  0.89075200
   0.77918000  0.00000000  0.10924800
   0.22082000  0.00000000  0.10924800
   0.50000000  0.22082000  0.85924800
   0.50000000  0.77918000  0.85924800
   0.72082000  0.00000000  0.64075200
   0.00000000  0.22082000  0.89075200
   0.27918000  0.00000000  0.64075200
 
 position of ions in cartesian coordinates  (Angst):
   2.88530596  2.88528288  0.00119044
   4.32797625  2.88531750  3.07873012
   0.00000000  1.44265875  1.02624337
   1.44265875  2.88531750  3.07873012
   0.00000000  4.32797625  1.02624337
   1.44265875  0.00000000  7.18370362
   2.88531750  4.32797625  5.13121687
   4.32797625  0.00000000  7.18370362
   2.88531750  1.44265875  5.13121687
   2.88531750  1.61104588  3.20805321
   1.61104588  2.88531750  5.00189379
   4.15958912  2.88531750  5.00189379
   0.00000000  4.15958912  2.94940704
   0.00000000  1.61104588  2.94940704
   1.27427162  2.88531750  1.15556646
   2.88531750  4.15958912  3.20805321
   4.49636338  2.88531750  1.15556646
   0.00000000  4.49636338  7.31302671
   4.49636338  0.00000000  0.89692029
   1.27427162  0.00000000  0.89692029
   2.88531750  1.27427162  7.05438054
   2.88531750  4.49636338  7.05438054
   4.15958912  0.00000000  5.26053996
   0.00000000  1.27427162  7.31302671
   1.61104588  0.00000000  5.26053996
 


--------------------------------------------------------------------------------------------------------


 k-point  1 :   0.0000 0.0000 0.0000  plane waves:    7395
 k-point  2 :   0.2500 0.0000 0.0000  plane waves:    7381
 k-point  3 :   0.5000 0.0000 0.0000  plane waves:    7382
 k-point  4 :   0.0000 0.2500 0.0000  plane waves:    7381
 k-point  5 :   0.2500 0.2500 0.0000  plane waves:    7355
 k-point  6 :   0.5000 0.2500 0.0000  plane waves:    7358
 k-point  7 :  -0.2500 0.2500 0.0000  plane waves:    7355
 k-point  8 :   0.0000 0.5000 0.0000  plane waves:    7382
 k-point  9 :   0.2500 0.5000 0.0000  plane waves:    7358
 k-point 10 :   0.5000 0.5000 0.0000  plane waves:    7384
 k-point 11 :   0.0000 0.0000 0.3333  plane waves:    7330
 k-point 12 :   0.2500 0.0000 0.3333  plane waves:    7359
 k-point 13 :   0.5000 0.0000 0.3333  plane waves:    7362
 k-point 14 :  -0.2500 0.0000 0.3333  plane waves:    7359
 k-point 15 :   0.0000 0.2500 0.3333  plane waves:    7359
 k-point 16 :   0.2500 0.2500 0.3333  plane waves:    7352
 k-point 17 :   0.5000 0.2500 0.3333  plane waves:    7350
 k-point 18 :  -0.2500 0.2500 0.3333  plane waves:    7352
 k-point 19 :   0.0000 0.5000 0.3333  plane waves:    7362
 k-point 20 :   0.2500 0.5000 0.3333  plane waves:    7350
 k-point 21 :   0.5000 0.5000 0.3333  plane waves:    7356
 k-point 22 :  -0.2500 0.5000 0.3333  plane waves:    7350
 k-point 23 :   0.0000-0.2500 0.3333  plane waves:    7359
 k-point 24 :   0.2500-0.2500 0.3333  plane waves:    7352
 k-point 25 :   0.5000-0.2500 0.3333  plane waves:    7350
 k-point 26 :  -0.2500-0.2500 0.3333  plane waves:    7352

 maximum and minimum number of plane-waves per node :      7395     7330

 maximum number of plane-waves:      7395
 maximum index in each direction: 
   IXMAX=   10   IYMAX=   10   IZMAX=   15
   IXMIN=  -11   IYMIN=  -11   IZMIN=  -15


 serial   3D FFT for wavefunctions
 parallel 3D FFT for charge:
    minimum data exchange during FFTs selected (reduces bandwidth)


 total amount of memory used by VASP MPI-rank0   244219. kBytes
=======================================================================

   base      :      30000. kBytes
   nonlr-proj:      17011. kBytes
   fftplans  :       7295. kBytes
   grid      :      29392. kBytes
   one-center:        777. kBytes
   wavefun   :     159744. kBytes
 
     INWAV:  cpu time    0.0000: real time    0.0000
 Broyden mixing: mesh for mixing (old mesh)
   NGX = 21   NGY = 21   NGZ = 31
  (NGX  = 96   NGY  = 96   NGZ  =128)
  gives a total of  13671 points

 initial charge density was supplied:
 charge density of overlapping atoms calculated
 number of electron     203.0000000 magnetization      50.2000000
 keeping initial charge density in first step


--------------------------------------------------------------------------------------------------------


 Maximum index for non-local projection operator         7951
 Maximum index for augmentation-charges         2679 (set IRDMAX)


--------------------------------------------------------------------------------------------------------


 First call to EWALD:  gamma=   0.273
 Maximum number of real-space cells 3x 3x 2
 Maximum number of reciprocal cells 2x 2x 3

    FEWALD:  cpu time    0.0016: real time    0.0016


--------------------------------------- Iteration      1(   1)  ---------------------------------------


    POTLOK:  cpu time    0.2806: real time    0.2832
    SETDIJ:  cpu time    0.0260: real time    0.0262
     EDDAV:  cpu time   65.2963: real time   65.6530
 BZINTS: Fermi energy: 25.281655;203.000000 electrons
         Band energy: 680.665361;  BLOECHL correction: -0.088706
       DOS:  cpu time    0.0787: real time    0.0788
    --------------------------------------------
      LOOP:  cpu time   65.6816: real time   66.0413

 eigenvalue-minimisations  : 15720
 total energy-change (2. order) : 0.3327214E+04  (-0.1004766E+05)
 number of electron     203.0000000 magnetization      50.2000000
 augmentation part      203.0000000 magnetization      50.2000000

 Free energy of the ion-electron system (eV)
  ---------------------------------------------------
  alpha Z        PSCENC =      1096.51130837
  Ewald energy   TEWEN  =    -13555.49349035
  -Hartree energ DENC   =     -8780.69938008
  -exchange      EXHF   =         0.00000000
  -V(xc)+E(xc)   XCENC  =      1023.10749213
  PAW double counting   =     15913.62944871   -16369.64932519
  entropy T*S    EENTRO =         0.00000000
  eigenvalues    EBANDS =       680.66536077
  atomic energy  EATOM  =     23319.14298724
  Solvation  Ediel_sol  =         0.00000000
  ---------------------------------------------------
  free energy    TOTEN  =      3327.21440158 eV

  energy without entropy =     3327.21440158  energy(sigma->0) =     3327.21440158


--------------------------------------------------------------------------------------------------------




--------------------------------------- Iteration      1(   2)  ---------------------------------------


     EDDAV:  cpu time   65.0509: real time   65.4049
 BZINTS: Fermi energy:  9.050038;203.000000 electrons
         Band energy:***********;  BLOECHL correction: -0.050997
       DOS:  cpu time    0.0611: real time    0.0616
    --------------------------------------------
      LOOP:  cpu time   65.1120: real time   65.4665

 eigenvalue-minimisations  : 15792
 total energy-change (2. order) :-0.2971022E+04  (-0.2711070E+04)
 number of electron     203.0000000 magnetization      50.2000000
 augmentation part      203.0000000 magnetization      50.2000000

 Free energy of the ion-electron system (eV)
  ---------------------------------------------------
  alpha Z        PSCENC =      1096.51130837
  Ewald energy   TEWEN  =    -13555.49349035
  -Hartree energ DENC   =     -8780.69938008
  -exchange      EXHF   =         0.00000000
  -V(xc)+E(xc)   XCENC  =      1023.10749213
  PAW double counting   =     15913.62944871   -16369.64932519
  entropy T*S    EENTRO =         0.00000000
  eigenvalues    EBANDS =     -2290.35628704
  atomic energy  EATOM  =     23319.14298724
  Solvation  Ediel_sol  =         0.00000000
  ---------------------------------------------------
  free energy    TOTEN  =       356.19275378 eV

  energy without entropy =      356.19275378  energy(sigma->0) =      356.19275378


--------------------------------------------------------------------------------------------------------




--------------------------------------- Iteration      1(   3)  ---------------------------------------


     EDDAV:  cpu time   67.2795: real time   67.7146
 BZINTS: Fermi energy:  5.775650;203.000000 electrons
         Band energy:***********;  BLOECHL correction: -0.023784
       DOS:  cpu time    0.0616: real time    0.0617
    --------------------------------------------
      LOOP:  cpu time   67.3411: real time   67.7762

 eigenvalue-minimisations  : 16410
 total energy-change (2. order) :-0.5494388E+03  (-0.4912001E+03)
 number of electron     203.0000000 magnetization      50.2000000
 augmentation part      203.0000000 magnetization      50.2000000

 Free energy of the ion-electron system (eV)
  ---------------------------------------------------
  alpha Z        PSCENC =      1096.51130837
  Ewald energy   TEWEN  =    -13555.49349035
  -Hartree energ DENC   =     -8780.69938008
  -exchange      EXHF   =         0.00000000
  -V(xc)+E(xc)   XCENC  =      1023.10749213
  PAW double counting   =     15913.62944871   -16369.64932519
  entropy T*S    EENTRO =         0.00000000
  eigenvalues    EBANDS =     -2839.79509994
  atomic energy  EATOM  =     23319.14298724
  Solvation  Ediel_sol  =         0.00000000
  ---------------------------------------------------
  free energy    TOTEN  =      -193.24605913 eV

  energy without entropy =     -193.24605913  energy(sigma->0) =     -193.24605913


--------------------------------------------------------------------------------------------------------




--------------------------------------- Iteration      1(   4)  ---------------------------------------


     EDDAV:  cpu time   86.9428: real time   87.4480
 BZINTS: Fermi energy:  5.479546;203.000000 electrons
         Band energy:***********;  BLOECHL correction: -0.027726
       DOS:  cpu time    0.0623: real time    0.0626
    --------------------------------------------
      LOOP:  cpu time   87.0051: real time   87.5106

 eigenvalue-minimisations  : 22548
 total energy-change (2. order) :-0.5446227E+02  (-0.5325602E+02)
 number of electron     203.0000000 magnetization      50.2000000
 augmentation part      203.0000000 magnetization      50.2000000

 Free energy of the ion-electron system (eV)
  ---------------------------------------------------
  alpha Z        PSCENC =      1096.51130837
  Ewald energy   TEWEN  =    -13555.49349035
  -Hartree energ DENC   =     -8780.69938008
  -exchange      EXHF   =         0.00000000
  -V(xc)+E(xc)   XCENC  =      1023.10749213
  PAW double counting   =     15913.62944871   -16369.64932519
  entropy T*S    EENTRO =         0.00000000
  eigenvalues    EBANDS =     -2894.25737432
  atomic energy  EATOM  =     23319.14298724
  Solvation  Ediel_sol  =         0.00000000
  ---------------------------------------------------
  free energy    TOTEN  =      -247.70833351 eV

  energy without entropy =     -247.70833351  energy(sigma->0) =     -247.70833351


--------------------------------------------------------------------------------------------------------




--------------------------------------- Iteration      1(   5)  ---------------------------------------


     EDDAV:  cpu time   87.6380: real time   88.3197
 BZINTS: Fermi energy:  5.469750;203.000000 electrons
         Band energy:***********;  BLOECHL correction: -0.027667
       DOS:  cpu time    0.0616: real time    0.0618
    CHARGE:  cpu time    2.1361: real time    2.1459
    MIXING:  cpu time    0.0072: real time    0.0072
    --------------------------------------------
      LOOP:  cpu time   89.8429: real time   90.5347

 eigenvalue-minimisations  : 22596
 total energy-change (2. order) :-0.1185104E+01  (-0.1179989E+01)
 number of electron     202.9999994 magnetization      35.3071723
 augmentation part       64.2638693 magnetization      26.3546108

 Broyden mixing:
  rms(total) = 0.66786E+01    rms(broyden)= 0.66760E+01
  rms(prec ) = 0.89971E+01
  weight for this iteration     100.00

 Free energy of the ion-electron system (eV)
  ---------------------------------------------------
  alpha Z        PSCENC =      1096.51130837
  Ewald energy   TEWEN  =    -13555.49349035
  -Hartree energ DENC   =     -8780.69938008
  -exchange      EXHF   =         0.00000000
  -V(xc)+E(xc)   XCENC  =      1023.10749213
  PAW double counting   =     15913.62944871   -16369.64932519
  entropy T*S    EENTRO =         0.00000000
  eigenvalues    EBANDS =     -2895.44247834
  atomic energy  EATOM  =     23319.14298724
  Solvation  Ediel_sol  =         0.00000000
  ---------------------------------------------------
  free energy    TOTEN  =      -248.89343752 eV

  energy without entropy =     -248.89343752  energy(sigma->0) =     -248.89343752


--------------------------------------------------------------------------------------------------------




--------------------------------------- Iteration      1(   6)  ---------------------------------------


    POTLOK:  cpu time    0.2699: real time    0.2706
    SETDIJ:  cpu time    0.0254: real time    0.0255
    EDDIAG:  cpu time   10.2563: real time   10.3456
  RMM-DIIS:  cpu time   58.9991: real time   59.3862
    ORTHCH:  cpu time    0.7395: real time    0.7428
 BZINTS: Fermi energy:  1.191002;203.000000 electrons
         Band energy:***********;  BLOECHL correction: -0.081889
       DOS:  cpu time    0.0717: real time    0.0721
    CHARGE:  cpu time    2.1602: real time    2.1694
    MIXING:  cpu time    0.0073: real time    0.0073
    --------------------------------------------
      LOOP:  cpu time   72.5294: real time   73.0196

 eigenvalue-minimisations  : 18925
 total energy-change (2. order) : 0.9774480E+01  (-0.4178730E+02)
 number of electron     202.9999900 magnetization      30.2554676
 augmentation part       82.0454763 magnetization      24.1397897

 Broyden mixing:
  rms(total) = 0.93175E+01    rms(broyden)= 0.93155E+01
  rms(prec ) = 0.13546E+02
  weight for this iteration     100.00

 eigenvalues of (default mixing * dielectric matrix)
  average eigenvalue GAMMA=   0.4596
  0.4596

 Free energy of the ion-electron system (eV)
  ---------------------------------------------------
  alpha Z        PSCENC =      1096.51130837
  Ewald energy   TEWEN  =    -13555.49349035
  -Hartree energ DENC   =     -8423.57644637
  -exchange      EXHF   =         0.00000000
  -V(xc)+E(xc)   XCENC  =      1017.23550499
  PAW double counting   =     15646.47777540   -16098.50774431
  entropy T*S    EENTRO =         0.00000000
  eigenvalues    EBANDS =     -3240.90885275
  atomic energy  EATOM  =     23319.14298724
  Solvation  Ediel_sol  =         0.00000000
  ---------------------------------------------------
  free energy    TOTEN  =      -239.11895778 eV

  energy without entropy =     -239.11895778  energy(sigma->0) =     -239.11895778


--------------------------------------------------------------------------------------------------------




--------------------------------------- Iteration      1(   7)  ---------------------------------------


    POTLOK:  cpu time    0.2708: real time    0.2726
    SETDIJ:  cpu time    0.0253: real time    0.0253
    EDDIAG:  cpu time   10.1674: real time   10.2234
  RMM-DIIS:  cpu time   66.6626: real time   67.0599
    ORTHCH:  cpu time    0.7241: real time    0.7263
 BZINTS: Fermi energy:  4.260886;203.000000 electrons
         Band energy:***********;  BLOECHL correction: -0.033089
       DOS:  cpu time    0.0627: real time    0.0629
    CHARGE:  cpu time    2.3179: real time    2.3277
    MIXING:  cpu time    0.0101: real time    0.0101
    --------------------------------------------
      LOOP:  cpu time   80.2409: real time   80.7082

 eigenvalue-minimisations  : 21533
 total energy-change (2. order) : 0.4054087E+02  (-0.1042558E+02)
 number of electron     202.9999977 magnetization      26.4008723
 augmentation part       65.5177384 magnetization      17.8647453

 Broyden mixing:
  rms(total) = 0.33725E+01    rms(broyden)= 0.33696E+01
  rms(prec ) = 0.45069E+01
  weight for this iteration     100.00

 eigenvalues of (default mixing * dielectric matrix)
  average eigenvalue GAMMA=   0.5200
  0.7492  0.2908

 Free energy of the ion-electron system (eV)
  ---------------------------------------------------
  alpha Z        PSCENC =      1096.51130837
  Ewald energy   TEWEN  =    -13555.49349035
  -Hartree energ DENC   =     -8739.10902688
  -exchange      EXHF   =         0.00000000
  -V(xc)+E(xc)   XCENC  =      1016.91360606
  PAW double counting   =     16360.61312761   -16843.00719177
  entropy T*S    EENTRO =         0.00000000
  eigenvalues    EBANDS =     -2854.14941131
  atomic energy  EATOM  =     23319.14298724
  Solvation  Ediel_sol  =         0.00000000
  ---------------------------------------------------
  free energy    TOTEN  =      -198.57809105 eV

  energy without entropy =     -198.57809105  energy(sigma->0) =     -198.57809105


--------------------------------------------------------------------------------------------------------




--------------------------------------- Iteration      1(   8)  ---------------------------------------


    POTLOK:  cpu time    0.2875: real time    0.2880
    SETDIJ:  cpu time    0.0293: real time    0.0293
    EDDIAG:  cpu time    9.8890: real time    9.9335
  RMM-DIIS:  cpu time   54.9944: real time   55.3044
    ORTHCH:  cpu time    0.7347: real time    0.7372
 BZINTS: Fermi energy:  3.574871;203.000000 electrons
         Band energy:***********;  BLOECHL correction: -0.033710
       DOS:  cpu time    0.0634: real time    0.0635
    CHARGE:  cpu time    2.0917: real time    2.0997
    MIXING:  cpu time    0.0077: real time    0.0077
    --------------------------------------------
      LOOP:  cpu time   68.0976: real time   68.4632

 eigenvalue-minimisations  : 17715
 total energy-change (2. order) : 0.2533447E+01  (-0.7538557E+00)
 number of electron     202.9999970 magnetization      23.6770792
 augmentation part       66.7712208 magnetization      15.8654477

 Broyden mixing:
  rms(total) = 0.17820E+01    rms(broyden)= 0.17819E+01
  rms(prec ) = 0.25492E+01
  weight for this iteration     100.00

 eigenvalues of (default mixing * dielectric matrix)
  average eigenvalue GAMMA=   0.7229
  0.3211  0.9238  0.9238

 Free energy of the ion-electron system (eV)
  ---------------------------------------------------
  alpha Z        PSCENC =      1096.51130837
  Ewald energy   TEWEN  =    -13555.49349035
  -Hartree energ DENC   =     -8670.59578583
  -exchange      EXHF   =         0.00000000
  -V(xc)+E(xc)   XCENC  =      1013.94988071
  PAW double counting   =     16399.32850310   -16885.98637406
  entropy T*S    EENTRO =         0.00000000
  eigenvalues    EBANDS =     -2912.90167368
  atomic energy  EATOM  =     23319.14298724
  Solvation  Ediel_sol  =         0.00000000
  ---------------------------------------------------
  free energy    TOTEN  =      -196.04464452 eV

  energy without entropy =     -196.04464452  energy(sigma->0) =     -196.04464452


--------------------------------------------------------------------------------------------------------




--------------------------------------- Iteration      1(   9)  ---------------------------------------


    POTLOK:  cpu time    0.2625: real time    0.2632
    SETDIJ:  cpu time    0.0258: real time    0.0258
    EDDIAG:  cpu time   10.2042: real time   10.2719
  RMM-DIIS:  cpu time   53.1109: real time   53.4960
    ORTHCH:  cpu time    0.9134: real time    0.9178
 BZINTS: Fermi energy:  2.862513;203.000000 electrons
         Band energy:***********;  BLOECHL correction: -0.029632
       DOS:  cpu time    0.0716: real time    0.0719
    CHARGE:  cpu time    2.3144: real time    2.3273
    MIXING:  cpu time    0.0096: real time    0.0096
    --------------------------------------------
      LOOP:  cpu time   66.9124: real time   67.3836

 eigenvalue-minimisations  : 17028
 total energy-change (2. order) :-0.6607513E+00  (-0.9587558E+00)
 number of electron     202.9999963 magnetization      23.1398138
 augmentation part       68.1055565 magnetization      15.9330266

 Broyden mixing:
  rms(total) = 0.81716E+00    rms(broyden)= 0.81685E+00
  rms(prec ) = 0.10831E+01
  weight for this iteration     100.00

 eigenvalues of (default mixing * dielectric matrix)
  average eigenvalue GAMMA=   0.7485
  1.0782  1.0782  0.3190  0.5187

 Free energy of the ion-electron system (eV)
  ---------------------------------------------------
  alpha Z        PSCENC =      1096.51130837
  Ewald energy   TEWEN  =    -13555.49349035
  -Hartree energ DENC   =     -8601.37080745
  -exchange      EXHF   =         0.00000000
  -V(xc)+E(xc)   XCENC  =      1011.05697679
  PAW double counting   =     16456.75023149   -16948.68379819
  entropy T*S    EENTRO =         0.00000000
  eigenvalues    EBANDS =     -2974.61880373
  atomic energy  EATOM  =     23319.14298724
  Solvation  Ediel_sol  =         0.00000000
  ---------------------------------------------------
  free energy    TOTEN  =      -196.70539584 eV

  energy without entropy =     -196.70539584  energy(sigma->0) =     -196.70539584


--------------------------------------------------------------------------------------------------------




--------------------------------------- Iteration      1(  10)  ---------------------------------------


    POTLOK:  cpu time    0.2933: real time    0.2948
    SETDIJ:  cpu time    0.0288: real time    0.0291
    EDDIAG:  cpu time    9.8096: real time    9.8653
  RMM-DIIS:  cpu time   57.4863: real time   57.9047
    ORTHCH:  cpu time    0.7319: real time    0.7358
 BZINTS: Fermi energy:  2.743809;203.000000 electrons
         Band energy:***********;  BLOECHL correction: -0.034307
       DOS:  cpu time    0.0607: real time    0.0610
    CHARGE:  cpu time    2.0601: real time    2.0674
    MIXING:  cpu time    0.0102: real time    0.0102
    --------------------------------------------
      LOOP:  cpu time   70.4809: real time   70.9682

 eigenvalue-minimisations  : 18435
 total energy-change (2. order) : 0.1516349E+00  (-0.1715829E+00)
 number of electron     202.9999961 magnetization      23.0745476
 augmentation part       68.6071770 magnetization      16.0914406

 Broyden mixing:
  rms(total) = 0.43021E+00    rms(broyden)= 0.43001E+00
  rms(prec ) = 0.56423E+00
  weight for this iteration     100.00

 eigenvalues of (default mixing * dielectric matrix)
  average eigenvalue GAMMA=   0.8033
  1.3478  1.3478  0.6561  0.3160  0.3487

 Free energy of the ion-electron system (eV)
  ---------------------------------------------------
  alpha Z        PSCENC =      1096.51130837
  Ewald energy   TEWEN  =    -13555.49349035
  -Hartree energ DENC   =     -8573.64036618
  -exchange      EXHF   =         0.00000000
  -V(xc)+E(xc)   XCENC  =      1010.47865321
  PAW double counting   =     16486.72340996   -16981.43916811
  entropy T*S    EENTRO =         0.00000000
  eigenvalues    EBANDS =     -2998.83709505
  atomic energy  EATOM  =     23319.14298724
  Solvation  Ediel_sol  =         0.00000000
  ---------------------------------------------------
  free energy    TOTEN  =      -196.55376092 eV

  energy without entropy =     -196.55376092  energy(sigma->0) =     -196.55376092


--------------------------------------------------------------------------------------------------------




--------------------------------------- Iteration      1(  11)  ---------------------------------------


    POTLOK:  cpu time    0.2857: real time    0.2873
    SETDIJ:  cpu time    0.0293: real time    0.0293
    EDDIAG:  cpu time   10.1396: real time   10.2188
  RMM-DIIS:  cpu time   64.6899: real time   65.2161
    ORTHCH:  cpu time    0.8001: real time    0.8036
 BZINTS: Fermi energy:  2.637398;203.000000 electrons
         Band energy:***********;  BLOECHL correction: -0.033302
       DOS:  cpu time    0.0722: real time    0.0728
    CHARGE:  cpu time    2.3242: real time    2.3363
    MIXING:  cpu time    0.0100: real time    0.0101
    --------------------------------------------
      LOOP:  cpu time   78.3511: real time   78.9741

 eigenvalue-minimisations  : 20816
 total energy-change (2. order) : 0.2341415E-01  (-0.5375645E-01)
 number of electron     202.9999960 magnetization      23.0243591
 augmentation part       68.8494050 magnetization      16.2406342

 Broyden mixing:
  rms(total) = 0.17450E+00    rms(broyden)= 0.17439E+00
  rms(prec ) = 0.23281E+00
  weight for this iteration     100.00

 eigenvalues of (default mixing * dielectric matrix)
  average eigenvalue GAMMA=   0.8796
  1.7223  1.2675  0.9955  0.6794  0.3198  0.2931

 Free energy of the ion-electron system (eV)
  ---------------------------------------------------
  alpha Z        PSCENC =      1096.51130837
  Ewald energy   TEWEN  =    -13555.49349035
  -Hartree energ DENC   =     -8552.50224189
  -exchange      EXHF   =         0.00000000
  -V(xc)+E(xc)   XCENC  =      1010.24918465
  PAW double counting   =     16528.09673894   -17026.42694861
  entropy T*S    EENTRO =         0.00000000
  eigenvalues    EBANDS =     -3016.10788511
  atomic energy  EATOM  =     23319.14298724
  Solvation  Ediel_sol  =         0.00000000
  ---------------------------------------------------
  free energy    TOTEN  =      -196.53034676 eV

  energy without entropy =     -196.53034676  energy(sigma->0) =     -196.53034676


--------------------------------------------------------------------------------------------------------




--------------------------------------- Iteration      1(  12)  ---------------------------------------


    POTLOK:  cpu time    0.2954: real time    0.2968
    SETDIJ:  cpu time    0.0282: real time    0.0282
    EDDIAG:  cpu time    9.8709: real time    9.9298
  RMM-DIIS:  cpu time   65.1801: real time   65.6010
    ORTHCH:  cpu time    0.9195: real time    0.9230
 BZINTS: Fermi energy:  2.658983;203.000000 electrons
         Band energy:***********;  BLOECHL correction: -0.034413
       DOS:  cpu time    0.0721: real time    0.0723
    CHARGE:  cpu time    2.1299: real time    2.1407
    MIXING:  cpu time    0.0085: real time    0.0086
    --------------------------------------------
      LOOP:  cpu time   78.5045: real time   79.0004

 eigenvalue-minimisations  : 21106
 total energy-change (2. order) : 0.1270416E-01  (-0.1288744E-01)
 number of electron     202.9999960 magnetization      22.9685072
 augmentation part       68.8844340 magnetization      16.2751878

 Broyden mixing:
  rms(total) = 0.78032E-01    rms(broyden)= 0.77994E-01
  rms(prec ) = 0.94162E-01
  weight for this iteration     100.00

 eigenvalues of (default mixing * dielectric matrix)
  average eigenvalue GAMMA=   0.9336
  2.1258  1.2222  1.2222  0.6761  0.6761  0.3203  0.2927

 Free energy of the ion-electron system (eV)
  ---------------------------------------------------
  alpha Z        PSCENC =      1096.51130837
  Ewald energy   TEWEN  =    -13555.49349035
  -Hartree energ DENC   =     -8544.23668786
  -exchange      EXHF   =         0.00000000
  -V(xc)+E(xc)   XCENC  =      1010.19041583
  PAW double counting   =     16583.36777511   -17086.01077246
  entropy T*S    EENTRO =         0.00000000
  eigenvalues    EBANDS =     -3019.98917847
  atomic energy  EATOM  =     23319.14298724
  Solvation  Ediel_sol  =         0.00000000
  ---------------------------------------------------
  free energy    TOTEN  =      -196.51764260 eV

  energy without entropy =     -196.51764260  energy(sigma->0) =     -196.51764260


--------------------------------------------------------------------------------------------------------




--------------------------------------- Iteration      1(  13)  ---------------------------------------


    POTLOK:  cpu time    0.2637: real time    0.2650
    SETDIJ:  cpu time    0.0259: real time    0.0261
    EDDIAG:  cpu time    9.9520: real time   10.0082
  RMM-DIIS:  cpu time   62.4615: real time   62.7596
    ORTHCH:  cpu time    0.7460: real time    0.7505
 BZINTS: Fermi energy:  2.662258;203.000000 electrons
         Band energy:***********;  BLOECHL correction: -0.034390
       DOS:  cpu time    0.0630: real time    0.0631
    --------------------------------------------
      LOOP:  cpu time   73.5122: real time   73.8724

 eigenvalue-minimisations  : 20396
 total energy-change (2. order) :-0.7803949E-03  (-0.1168636E-02)
 number of electron     202.9999960 magnetization      22.9685072
 augmentation part       68.8844340 magnetization      16.2751878

 Free energy of the ion-electron system (eV)
  ---------------------------------------------------
  alpha Z        PSCENC =      1096.51130837
  Ewald energy   TEWEN  =    -13555.49349035
  -Hartree energ DENC   =     -8546.00738400
  -exchange      EXHF   =         0.00000000
  -V(xc)+E(xc)   XCENC  =      1010.24355004
  PAW double counting   =     16603.02667560   -17106.95559262
  entropy T*S    EENTRO =         0.00000000
  eigenvalues    EBANDS =     -3016.98647726
  atomic energy  EATOM  =     23319.14298724
  Solvation  Ediel_sol  =         0.00000000
  ---------------------------------------------------
  free energy    TOTEN  =      -196.51842300 eV

  energy without entropy =     -196.51842300  energy(sigma->0) =     -196.51842300


--------------------------------------------------------------------------------------------------------




 average (electrostatic) potential at core
  the test charge radii are     0.8577  0.9577  0.7215
  (the norm of the test charge is              1.0000)
       1 -16.1424       2 -50.2336       3 -50.2975       4 -50.2567       5 -50.3265
       6 -50.2976       7 -50.2866       8 -50.2653       9 -50.2912      10 -73.1372
      11 -73.1352      12 -73.1358      13 -73.0856      14 -73.0870      15 -73.4062
      16 -73.1385      17 -73.4058      18 -73.2622      19 -73.2616      20 -73.2606
      21 -73.4040      22 -73.4045      23 -73.0824      24 -73.2637      25 -73.0809
 
 
 
 E-fermi :   2.6623     XC(G=0): -10.6816     alpha+bet : -9.6740


 spin component 1

 k-point     1 :       0.0000    0.0000    0.0000
  band No.  band energies     occupation 
      1     -48.4821      1.00000
      2     -48.4245      1.00000
      3     -48.3950      1.00000
      4     -48.3713      1.00000
      5     -48.3465      1.00000
      6     -48.3434      1.00000
      7     -48.3350      1.00000
      8     -48.3052      1.00000
      9     -48.2482      1.00000
     10     -48.2244      1.00000
     11     -48.2086      1.00000
     12     -48.2082      1.00000
     13     -48.2061      1.00000
     14     -48.2010      1.00000
     15     -48.2006      1.00000
     16     -48.1923      1.00000
     17     -48.1884      1.00000
     18     -48.1716      1.00000
     19     -48.1702      1.00000
     20     -48.1612      1.00000
     21     -48.1575      1.00000
     22     -48.1478      1.00000
     23     -48.1380      1.00000
     24     -48.1255      1.00000
     25     -41.6630      1.00000
     26     -17.5791      1.00000
     27     -16.9848      1.00000
     28     -16.8200      1.00000
     29     -16.2157      1.00000
     30     -16.1829      1.00000
     31     -16.1810      1.00000
     32     -15.9785      1.00000
     33     -15.8542      1.00000
     34     -15.8535      1.00000
     35     -15.8033      1.00000
     36     -15.7906      1.00000
     37     -15.6971      1.00000
     38     -15.6968      1.00000
     39     -15.5545      1.00000
     40     -15.5245      1.00000
     41     -15.5233      1.00000
     42      -5.1490      1.00000
     43      -4.6659      1.00000
     44      -4.6133      1.00000
     45      -4.6127      1.00000
     46      -4.1702      1.00000
     47      -4.1285      1.00000
     48      -3.9585      1.00000
     49      -3.9540      1.00000
     50      -3.8092      1.00000
     51      -3.6737      1.00000
     52      -3.6652      1.00000
     53      -3.6607      1.00000
     54      -3.5562      1.00000
     55      -3.4709      1.00000
     56      -3.1164      1.00000
     57      -3.0578      1.00000
     58      -3.0411      1.00000
     59      -3.0338      1.00000
     60      -2.9681      1.00000
     61      -2.8820      1.00000
     62      -2.8081      1.00000
     63      -2.8044      1.00000
     64      -2.7954      1.00000
     65      -2.6631      1.00000
     66      -2.4791      1.00000
     67      -2.4720      1.00000
     68      -2.3368      1.00000
     69      -2.2986      1.00000
     70      -1.9940      1.00000
     71      -1.9919      1.00000
     72      -1.8376      1.00000
     73      -1.6801      1.00000
     74      -1.6755      1.00000
     75      -1.1861      1.00000
     76      -1.1705      1.00000
     77      -0.8490      1.00000
     78      -0.8013      1.00000
     79      -0.7978      1.00000
     80      -0.7057      1.00000
     81      -0.6874      1.00000
     82      -0.5468      1.00000
     83      -0.5205      1.00000
     84      -0.5017      1.00000
     85      -0.4999      1.00000
     86      -0.3925      1.00000
     87       0.1108      1.00000
     88       0.1287      1.00000
     89       0.1321      1.00000
     90       0.2552      1.00000
     91       0.2591      1.00000
     92       0.2609      1.00000
     93       0.2649      1.00000
     94       0.2797      1.00000
     95       0.4123      1.00000
     96       0.4222      1.00000
     97       0.4459      1.00000
     98       0.4502      1.00000
     99       0.5242      1.00000
    100       0.5480      1.00000
    101       0.6117      1.00000
    102       0.6129      1.00000
    103       0.6444      1.00000
    104       0.9246      1.00000
    105       0.9451      1.00000
    106       0.9552      1.00000
    107       1.3399      1.00000
    108       1.3453      1.00000
    109       1.3543      1.00000
    110       1.3933      1.00000
    111       1.4795      1.00000
    112       1.4920      1.00000
    113       1.5106      1.00000
    114       3.2143      0.00000
    115       3.2446      0.00000
    116       3.6483      0.00000
    117       3.6694      0.00000
    118       3.8333      0.00000
    119       3.8458      0.00000
    120       3.8941      0.00000
    121       3.9838      0.00000
    122       3.9969      0.00000
    123       4.2513      0.00000
    124       4.2669      0.00000
    125       4.4211      0.00000
    126       4.4291      0.00000
    127       4.4663      0.00000
    128       4.5181      0.00000
    129       4.5614      0.00000
    130       8.4313      0.00000
    131      11.1217      0.00000
    132      11.5345      0.00000
    133      11.6548      0.00000
    134      11.6553      0.00000
    135      11.9604      0.00000
    136      12.4855      0.00000
    137      12.4863      0.00000
    138      13.2117      0.00000
    139      13.3770      0.00000
    140      13.5204      0.00000
    141      13.5221      0.00000
    142      13.5616      0.00000
    143      13.8662      0.00000
    144      15.6970      0.00000
    145      15.8364      0.00000
    146      15.9099      0.00000
    147      16.0037      0.00000
    148      16.1507      0.00000
    149      16.2268      0.00000
    150      16.4119      0.00000

 k-point     2 :       0.2500    0.0000    0.0000
  band No.  band energies     occupation 
      1     -48.4751      1.00000
      2     -48.4284      1.00000
      3     -48.3887      1.00000
      4     -48.3711      1.00000
      5     -48.3475      1.00000
      6     -48.3465      1.00000
      7     -48.3320      1.00000
      8     -48.3067      1.00000
      9     -48.2478      1.00000
     10     -48.2256      1.00000
     11     -48.2103      1.00000
     12     -48.2074      1.00000
     13     -48.2039      1.00000
     14     -48.2011      1.00000
     15     -48.1999      1.00000
     16     -48.1950      1.00000
     17     -48.1861      1.00000
     18     -48.1700      1.00000
     19     -48.1680      1.00000
     20     -48.1642      1.00000
     21     -48.1608      1.00000
     22     -48.1491      1.00000
     23     -48.1387      1.00000
     24     -48.1295      1.00000
     25     -41.6630      1.00000
     26     -17.4828      1.00000
     27     -17.0220      1.00000
     28     -16.7772      1.00000
     29     -16.3293      1.00000
     30     -16.1738      1.00000
     31     -16.1711      1.00000
     32     -15.9569      1.00000
     33     -15.8737      1.00000
     34     -15.8585      1.00000
     35     -15.8054      1.00000
     36     -15.7765      1.00000
     37     -15.7073      1.00000
     38     -15.6775      1.00000
     39     -15.5710      1.00000
     40     -15.5523      1.00000
     41     -15.5446      1.00000
     42      -4.9713      1.00000
     43      -4.4687      1.00000
     44      -4.4682      1.00000
     45      -4.3707      1.00000
     46      -4.1136      1.00000
     47      -4.0009      1.00000
     48      -3.9374      1.00000
     49      -3.9273      1.00000
     50      -3.9086      1.00000
     51      -3.7115      1.00000
     52      -3.6528      1.00000
     53      -3.6111      1.00000
     54      -3.5637      1.00000
     55      -3.3895      1.00000
     56      -3.2772      1.00000
     57      -3.2191      1.00000
     58      -3.1530      1.00000
     59      -3.0786      1.00000
     60      -3.0760      1.00000
     61      -2.9809      1.00000
     62      -2.9465      1.00000
     63      -2.9166      1.00000
     64      -2.8298      1.00000
     65      -2.7099      1.00000
     66      -2.6814      1.00000
     67      -2.4878      1.00000
     68      -2.2969      1.00000
     69      -1.9205      1.00000
     70      -1.9072      1.00000
     71      -1.8911      1.00000
     72      -1.6425      1.00000
     73      -1.6314      1.00000
     74      -1.4785      1.00000
     75      -1.3886      1.00000
     76      -1.3323      1.00000
     77      -1.2415      1.00000
     78      -1.1223      1.00000
     79      -1.0801      1.00000
     80      -0.9439      1.00000
     81      -0.6616      1.00000
     82      -0.6558      1.00000
     83      -0.6208      1.00000
     84      -0.5607      1.00000
     85      -0.3726      1.00000
     86      -0.2314      1.00000
     87      -0.1761      1.00000
     88       0.0248      1.00000
     89       0.0561      1.00000
     90       0.1649      1.00000
     91       0.2599      1.00000
     92       0.3311      1.00000
     93       0.3452      1.00000
     94       0.3633      1.00000
     95       0.4276      1.00000
     96       0.4948      1.00000
     97       0.5872      1.00000
     98       0.5948      1.00000
     99       0.6303      1.00000
    100       0.6924      1.00000
    101       0.7524      1.00000
    102       0.8193      1.00000
    103       0.8364      1.00000
    104       0.9379      1.00000
    105       1.0836      1.00000
    106       1.1211      1.00000
    107       1.1928      1.00000
    108       1.2647      1.00000
    109       1.3086      1.00000
    110       1.3785      1.00000
    111       1.4041      1.00000
    112       1.4782      1.00000
    113       1.5549      1.00000
    114       3.4177      0.00000
    115       3.4360      0.00000
    116       3.6799      0.00000
    117       3.7441      0.00000
    118       3.7481      0.00000
    119       3.7752      0.00000
    120       3.8587      0.00000
    121       3.9039      0.00000
    122       3.9041      0.00000
    123       4.0900      0.00000
    124       4.2410      0.00000
    125       4.2743      0.00000
    126       4.3075      0.00000
    127       4.3512      0.00000
    128       4.4066      0.00000
    129       4.4768      0.00000
    130       8.9201      0.00000
    131      11.2373      0.00000
    132      11.3011      0.00000
    133      11.6772      0.00000
    134      11.9779      0.00000
    135      12.0624      0.00000
    136      12.2020      0.00000
    137      12.7765      0.00000
    138      13.1771      0.00000
    139      13.5612      0.00000
    140      13.6811      0.00000
    141      13.7077      0.00000
    142      14.1812      0.00000
    143      14.5893      0.00000
    144      15.2049      0.00000
    145      15.5403      0.00000
    146      15.6182      0.00000
    147      15.8963      0.00000
    148      15.9652      0.00000
    149      16.1388      0.00000
    150      16.2769      0.00000

 k-point     3 :       0.5000    0.0000    0.0000
  band No.  band energies     occupation 
      1     -48.4661      1.00000
      2     -48.4345      1.00000
      3     -48.3804      1.00000
      4     -48.3705      1.00000
      5     -48.3535      1.00000
      6     -48.3470      1.00000
      7     -48.3278      1.00000
      8     -48.3089      1.00000
      9     -48.2473      1.00000
     10     -48.2265      1.00000
     11     -48.2109      1.00000
     12     -48.2077      1.00000
     13     -48.2045      1.00000
     14     -48.2004      1.00000
     15     -48.1984      1.00000
     16     -48.1937      1.00000
     17     -48.1848      1.00000
     18     -48.1736      1.00000
     19     -48.1685      1.00000
     20     -48.1643      1.00000
     21     -48.1594      1.00000
     22     -48.1513      1.00000
     23     -48.1393      1.00000
     24     -48.1340      1.00000
     25     -41.6630      1.00000
     26     -17.2786      1.00000
     27     -17.2056      1.00000
     28     -16.5848      1.00000
     29     -16.5483      1.00000
     30     -16.1664      1.00000
     31     -16.1598      1.00000
     32     -15.9396      1.00000
     33     -15.8787      1.00000
     34     -15.8633      1.00000
     35     -15.8099      1.00000
     36     -15.7654      1.00000
     37     -15.7280      1.00000
     38     -15.6476      1.00000
     39     -15.5872      1.00000
     40     -15.5820      1.00000
     41     -15.5746      1.00000
     42      -4.5669      1.00000
     43      -4.5419      1.00000
     44      -4.1266      1.00000
     45      -4.0333      1.00000
     46      -4.0178      1.00000
     47      -3.9349      1.00000
     48      -3.8926      1.00000
     49      -3.8747      1.00000
     50      -3.8505      1.00000
     51      -3.8051      1.00000
     52      -3.7977      1.00000
     53      -3.7024      1.00000
     54      -3.5540      1.00000
     55      -3.4761      1.00000
     56      -3.4119      1.00000
     57      -3.3440      1.00000
     58      -3.3224      1.00000
     59      -3.2533      1.00000
     60      -3.1341      1.00000
     61      -3.0587      1.00000
     62      -2.9383      1.00000
     63      -2.8920      1.00000
     64      -2.8406      1.00000
     65      -2.7534      1.00000
     66      -2.5369      1.00000
     67      -2.5090      1.00000
     68      -2.0826      1.00000
     69      -2.0567      1.00000
     70      -1.9786      1.00000
     71      -1.9713      1.00000
     72      -1.6913      1.00000
     73      -1.5921      1.00000
     74      -1.5413      1.00000
     75      -1.4651      1.00000
     76      -1.4166      1.00000
     77      -1.2591      1.00000
     78      -1.2048      1.00000
     79      -1.1485      1.00000
     80      -0.9790      1.00000
     81      -0.9074      1.00000
     82      -0.7921      1.00000
     83      -0.7906      1.00000
     84      -0.6830      1.00000
     85      -0.4527      1.00000
     86      -0.2924      1.00000
     87      -0.0693      1.00000
     88       0.0519      1.00000
     89       0.0621      1.00000
     90       0.1566      1.00000
     91       0.2363      1.00000
     92       0.2889      1.00000
     93       0.3020      1.00000
     94       0.5808      1.00000
     95       0.6376      1.00000
     96       0.6658      1.00000
     97       0.6772      1.00000
     98       0.6874      1.00000
     99       0.7347      1.00000
    100       0.7710      1.00000
    101       0.8365      1.00000
    102       0.9693      1.00000
    103       0.9898      1.00000
    104       1.0136      1.00000
    105       1.0818      1.00000
    106       1.1298      1.00000
    107       1.1337      1.00000
    108       1.1579      1.00000
    109       1.2471      1.00000
    110       1.3793      1.00000
    111       1.4170      1.00000
    112       1.4783      1.00000
    113       1.4936      1.00000
    114       3.5843      0.00000
    115       3.6176      0.00000
    116       3.6579      0.00000
    117       3.6787      0.00000
    118       3.7025      0.00000
    119       3.7211      0.00000
    120       3.8455      0.00000
    121       3.8581      0.00000
    122       3.9515      0.00000
    123       4.0518      0.00000
    124       4.0934      0.00000
    125       4.1098      0.00000
    126       4.1721      0.00000
    127       4.2097      0.00000
    128       4.2476      0.00000
    129       4.4429      0.00000
    130      10.0144      0.00000
    131      10.1372      0.00000
    132      11.4297      0.00000
    133      11.8421      0.00000
    134      11.9981      0.00000
    135      12.1647      0.00000
    136      12.2195      0.00000
    137      13.6699      0.00000
    138      13.8333      0.00000
    139      13.9027      0.00000
    140      13.9428      0.00000
    141      13.9491      0.00000
    142      14.0917      0.00000
    143      14.6478      0.00000
    144      14.7285      0.00000
    145      14.8859      0.00000
    146      15.6371      0.00000
    147      15.7105      0.00000
    148      15.8447      0.00000
    149      16.1338      0.00000
    150      16.3882      0.00000

 k-point     4 :       0.0000    0.2500    0.0000
  band No.  band energies     occupation 
      1     -48.4716      1.00000
      2     -48.4197      1.00000
      3     -48.4027      1.00000
      4     -48.3748      1.00000
      5     -48.3516      1.00000
      6     -48.3394      1.00000
      7     -48.3307      1.00000
      8     -48.3053      1.00000
      9     -48.2447      1.00000
     10     -48.2243      1.00000
     11     -48.2157      1.00000
     12     -48.2077      1.00000
     13     -48.2073      1.00000
     14     -48.2019      1.00000
     15     -48.1997      1.00000
     16     -48.1929      1.00000
     17     -48.1882      1.00000
     18     -48.1718      1.00000
     19     -48.1701      1.00000
     20     -48.1612      1.00000
     21     -48.1574      1.00000
     22     -48.1503      1.00000
     23     -48.1386      1.00000
     24     -48.1255      1.00000
     25     -41.6630      1.00000
     26     -17.4827      1.00000
     27     -17.0218      1.00000
     28     -16.7775      1.00000
     29     -16.3292      1.00000
     30     -16.1757      1.00000
     31     -16.1695      1.00000
     32     -15.9567      1.00000
     33     -15.8740      1.00000
     34     -15.8578      1.00000
     35     -15.8054      1.00000
     36     -15.7767      1.00000
     37     -15.7075      1.00000
     38     -15.6771      1.00000
     39     -15.5713      1.00000
     40     -15.5535      1.00000
     41     -15.5434      1.00000
     42      -4.9709      1.00000
     43      -4.4688      1.00000
     44      -4.4675      1.00000
     45      -4.3695      1.00000
     46      -4.1091      1.00000
     47      -4.0027      1.00000
     48      -3.9368      1.00000
     49      -3.9286      1.00000
     50      -3.9043      1.00000
     51      -3.7057      1.00000
     52      -3.6479      1.00000
     53      -3.6184      1.00000
     54      -3.5693      1.00000
     55      -3.3928      1.00000
     56      -3.2797      1.00000
     57      -3.2207      1.00000
     58      -3.1525      1.00000
     59      -3.0789      1.00000
     60      -3.0682      1.00000
     61      -2.9806      1.00000
     62      -2.9497      1.00000
     63      -2.9152      1.00000
     64      -2.8322      1.00000
     65      -2.7146      1.00000
     66      -2.6838      1.00000
     67      -2.4893      1.00000
     68      -2.3033      1.00000
     69      -1.9217      1.00000
     70      -1.9049      1.00000
     71      -1.8901      1.00000
     72      -1.6406      1.00000
     73      -1.6274      1.00000
     74      -1.4842      1.00000
     75      -1.3928      1.00000
     76      -1.3318      1.00000
     77      -1.2509      1.00000
     78      -1.1256      1.00000
     79      -1.0651      1.00000
     80      -0.9458      1.00000
     81      -0.6644      1.00000
     82      -0.6477      1.00000
[...]
    103       3.6346      0.00000
    104       3.6518      0.00000
    105       3.6809      0.00000
    106       3.6916      0.00000
    107       3.7245      0.00000
    108       3.7802      0.00000
    109       3.8039      0.00000
    110       3.8768      0.00000
    111       3.9178      0.00000
    112       3.9493      0.00000
    113       3.9631      0.00000
    114       5.0947      0.00000
    115       5.1385      0.00000
    116       5.1979      0.00000
    117       5.2721      0.00000
    118       5.2952      0.00000
    119       5.3048      0.00000
    120       5.3486      0.00000
    121       5.3681      0.00000
    122       5.3904      0.00000
    123       5.4206      0.00000
    124       5.4991      0.00000
    125       5.5849      0.00000
    126       5.6605      0.00000
    127       5.6812      0.00000
    128       5.7279      0.00000
    129       5.7724      0.00000
    130       9.9778      0.00000
    131      10.9138      0.00000
    132      11.6013      0.00000
    133      11.8008      0.00000
    134      12.1535      0.00000
    135      12.5925      0.00000
    136      13.1152      0.00000
    137      13.2173      0.00000
    138      13.7367      0.00000
    139      14.1390      0.00000
    140      14.3797      0.00000
    141      14.4556      0.00000
    142      14.7268      0.00000
    143      15.0445      0.00000
    144      15.3248      0.00000
    145      15.4028      0.00000
    146      15.7787      0.00000
    147      16.1607      0.00000
    148      16.2932      0.00000
    149      16.4084      0.00000
    150      16.6385      0.00000


--------------------------------------------------------------------------------------------------------


 soft charge-density along one line, spin component           1
         0         1         2         3         4         5         6         7         8         9
 total charge-density along one line
 
 soft charge-density along one line, spin component           2
         0         1         2         3         4         5         6         7         8         9
 total charge-density along one line
 
 pseudopotential strength for first ion, spin component:           1
-49.626   9.581  -0.000  -0.000   0.000  -0.000  -0.000   0.000
  9.581  -0.621   0.000  -0.000  -0.000   0.000  -0.000  -0.000
 -0.000   0.000  -0.517  -0.000   0.000   0.264  -0.000   0.000
 -0.000  -0.000  -0.000  -0.517   0.000  -0.000   0.264  -0.000
  0.000  -0.000   0.000   0.000  -0.517   0.000  -0.000   0.264
 -0.000   0.000   0.264  -0.000   0.000   1.932  -0.000  -0.000
 -0.000  -0.000  -0.000   0.264  -0.000  -0.000   1.932  -0.000
  0.000  -0.000   0.000  -0.000   0.264  -0.000  -0.000   1.932
 pseudopotential strength for first ion, spin component:           2
-49.615   9.578  -0.000  -0.000   0.000  -0.000  -0.000   0.000
  9.578  -0.619   0.000  -0.000  -0.000   0.000  -0.000  -0.000
 -0.000   0.000  -0.507  -0.000   0.000   0.259  -0.000   0.000
 -0.000  -0.000  -0.000  -0.507  -0.000  -0.000   0.259  -0.000
  0.000  -0.000   0.000  -0.000  -0.507   0.000  -0.000   0.259
 -0.000   0.000   0.259  -0.000   0.000   1.935  -0.000   0.000
 -0.000  -0.000  -0.000   0.259  -0.000  -0.000   1.935  -0.000
  0.000  -0.000   0.000  -0.000   0.259   0.000  -0.000   1.935
 total augmentation occupancy for first ion, spin component:           1
  2.016   0.109  -0.000   0.000   0.000   0.000  -0.000   0.000
  0.109   0.774  -0.000   0.000  -0.000   0.000  -0.000   0.000
 -0.000  -0.000   0.088   0.000  -0.000  -0.016  -0.000   0.000
  0.000   0.000   0.000   0.089  -0.000  -0.000  -0.016   0.000
  0.000  -0.000  -0.000  -0.000   0.088   0.000   0.000  -0.016
  0.000   0.000  -0.016  -0.000   0.000   0.003   0.000   0.000
 -0.000  -0.000  -0.000  -0.016   0.000   0.000   0.003  -0.000
  0.000   0.000   0.000   0.000  -0.016   0.000  -0.000   0.003
 total augmentation occupancy for first ion, spin component:           2
  0.001   0.004  -0.000   0.000  -0.000   0.000  -0.000   0.000
  0.004   0.030  -0.000   0.000  -0.000  -0.000  -0.000   0.000
 -0.000  -0.000   0.003  -0.000  -0.000  -0.000   0.000   0.000
  0.000   0.000  -0.000   0.003  -0.000   0.000  -0.000   0.000
 -0.000  -0.000  -0.000  -0.000   0.003   0.000   0.000  -0.000
  0.000  -0.000  -0.000   0.000   0.000   0.000  -0.000  -0.000
 -0.000  -0.000   0.000  -0.000   0.000  -0.000   0.000  -0.000
  0.000   0.000   0.000   0.000  -0.000  -0.000  -0.000   0.000


------------------------ aborting loop because EDIFF is reached ----------------------------------------


 


 total charge     
 
# of ion       s       p       d       tot
------------------------------------------
    1        2.081   0.213   0.000   2.293
    2        0.343   6.445   4.854  11.642
    3        0.343   6.444   4.875  11.661
    4        0.343   6.445   4.863  11.652
    5        0.343   6.444   4.888  11.675
    6        0.343   6.444   4.874  11.661
    7        0.343   6.445   4.875  11.664
    8        0.342   6.444   4.860  11.646
    9        0.343   6.446   4.877  11.666
   10        1.582   3.393   0.000   4.975
   11        1.582   3.392   0.000   4.974
   12        1.582   3.393   0.000   4.974
   13        1.583   3.388   0.000   4.971
   14        1.583   3.389   0.000   4.972
   15        1.569   3.461   0.000   5.030
   16        1.582   3.394   0.000   4.976
   17        1.569   3.462   0.000   5.031
   18        1.581   3.397   0.000   4.979
   19        1.581   3.397   0.000   4.978
   20        1.581   3.396   0.000   4.977
   21        1.569   3.461   0.000   5.030
   22        1.569   3.461   0.000   5.030
   23        1.583   3.387   0.000   4.970
   24        1.581   3.398   0.000   4.979
   25        1.583   3.386   0.000   4.968
--------------------------------------------------
tot         30.084 106.323  38.967 175.374
 


 magnetization (x)
 
# of ion       s       p       d       tot
------------------------------------------
    1        0.003   0.007   0.000   0.010
    2        0.030   0.035   2.717   2.782
    3        0.029   0.034   2.667   2.730
    4        0.030   0.035   2.716   2.781
    5        0.029   0.034   2.664   2.727
    6        0.029   0.034   2.668   2.731
    7        0.030   0.035   2.713   2.778
    8        0.029   0.034   2.672   2.735
    9        0.030   0.035   2.713   2.778
   10        0.003   0.010   0.000   0.013
   11        0.003   0.010   0.000   0.014
   12        0.003   0.010   0.000   0.014
   13        0.004   0.021   0.000   0.024
   14        0.004   0.021   0.000   0.024
   15        0.001   0.018   0.000   0.019
   16        0.003   0.010   0.000   0.013
   17        0.001   0.018   0.000   0.019
   18        0.003   0.010   0.000   0.013
   19        0.003   0.010   0.000   0.013
   20        0.003   0.010   0.000   0.013
   21        0.001   0.018   0.000   0.019
   22        0.001   0.018   0.000   0.019
   23        0.004   0.021   0.000   0.024
   24        0.003   0.010   0.000   0.013
   25        0.004   0.021   0.000   0.024
--------------------------------------------------
tot          0.284   0.518  21.529  22.331
 
    CHARGE:  cpu time    2.0529: real time    2.0604
    FORLOC:  cpu time    0.0265: real time    0.0266
    FORNL :  cpu time   19.3702: real time   19.4492
    STRESS:  cpu time   58.1412: real time   58.3697
    FORCOR:  cpu time    0.2638: real time    0.2649
    FORHAR:  cpu time    0.0550: real time    0.0552
    MIXING:  cpu time    0.0098: real time    0.0098
    OFIELD:  cpu time    0.0000: real time    0.0000

  FORCE on cell =-STRESS in cart. coord.  units (eV):
  Direction    XX          YY          ZZ          XY          YZ          ZX
  --------------------------------------------------------------------------------------
  Alpha Z  1096.51131  1096.51131  1096.51131
  Ewald   -4524.47011 -4525.11160 -4505.96238    -0.00000     0.00933    -0.00311
  Hartree  2844.82648  2850.50277  2862.71260     0.01310    -0.98017    -0.32383
  E(xc)   -1110.72785 -1110.72657 -1110.73282     0.00029    -0.00050    -0.00039
  Local   -1202.34232 -1208.16205 -1238.49360    -0.02348     1.09106     0.35270
  n-local  -906.85715  -906.88609  -906.84410    -0.00044     0.00454     0.00197
  augment   599.60061   599.54496   599.28629     0.00789     0.00928     0.00530
  Kinetic  3210.75939  3210.61035  3209.57051     0.00987     0.02975     0.01840
  Fock        0.00000     0.00000     0.00000     0.00000     0.00000     0.00000
  -------------------------------------------------------------------------------------
  Total       7.30037     6.28307     6.04781     0.00724     0.16329     0.05104
  in kB      42.78270    36.82097    35.44221     0.04241     0.95692     0.29911
  external pressure =       38.35 kB  Pullay stress =        0.00 kB


 VOLUME and BASIS-vectors are now :
 -----------------------------------------------------------------------------
  energy-cutoff  :      520.00
  volume of cell :      273.39
      direct lattice vectors                 reciprocal lattice vectors
     5.770635000  0.000000000  0.000000000     0.173291154  0.000000000  0.000000000
     0.000000000  5.770635000  0.000000000     0.000000000  0.173291154  0.000000000
     0.000000000  0.000000000  8.209947000     0.000000000  0.000000000  0.121803466

  length of vectors
     5.770635000  5.770635000  8.209947000     0.173291154  0.173291154  0.121803466


 FORCES acting on ions
    electron-ion (+dipol)            ewald-force                    non-local-force                 convergence-correction
 -----------------------------------------------------------------------------------------------
   -.300E-01 0.180E-01 0.126E+00   0.153E-02 0.456E-02 -.158E+00   -.673E-03 0.920E-03 -.573E-02   0.280E-01 -.216E-01 0.303E-01
   -.110E+02 0.638E-01 -.316E+02   0.110E+02 0.325E-03 0.329E+02   -.288E+00 0.170E-02 -.632E+00   0.261E+00 -.666E-01 -.758E-01
   0.145E+00 0.188E+02 -.265E+02   -.470E-03 -.201E+02 0.269E+02   0.784E-02 0.413E+00 -.548E+00   -.151E+00 0.171E+00 0.273E+00
   0.110E+02 0.642E-01 -.316E+02   -.110E+02 0.325E-03 0.329E+02   0.282E+00 0.260E-02 -.631E+00   -.254E+00 -.672E-01 -.578E-01
   0.145E+00 -.188E+02 -.265E+02   -.470E-03 0.201E+02 0.269E+02   0.703E-02 -.411E+00 -.548E+00   -.150E+00 -.171E+00 0.273E+00
   0.187E+02 -.597E-01 0.265E+02   -.201E+02 -.141E-02 -.270E+02   0.409E+00 -.247E-02 0.547E+00   0.208E+00 0.627E-01 -.265E+00
   -.124E+00 -.110E+02 0.315E+02   0.108E-03 0.110E+02 -.328E+02   -.622E-02 -.280E+00 0.630E+00   0.130E+00 0.274E+00 0.621E-01
   -.187E+02 -.602E-01 0.265E+02   0.201E+02 -.141E-02 -.270E+02   -.414E+00 -.300E-02 0.547E+00   -.205E+00 0.634E-01 -.254E+00
   -.125E+00 0.110E+02 0.315E+02   0.108E-03 -.110E+02 -.328E+02   -.732E-02 0.280E+00 0.630E+00   0.132E+00 -.274E+00 0.539E-01
   -.148E+00 0.357E+03 0.234E+03   0.473E-04 -.378E+03 -.247E+03   -.104E-01 0.206E+02 0.140E+02   0.156E+00 -.247E-01 -.424E+00
   0.358E+03 -.289E-01 -.233E+03   -.378E+03 0.142E-03 0.247E+03   0.206E+02 -.219E-02 -.139E+02   -.541E+00 0.299E-01 0.151E-01
   -.358E+03 -.272E-01 -.233E+03   0.378E+03 0.142E-03 0.247E+03   -.206E+02 -.219E-02 -.139E+02   0.573E+00 0.293E-01 -.120E+00
   0.149E+00 -.356E+03 -.258E+03   -.522E-04 0.376E+03 0.272E+03   0.103E-01 -.206E+02 -.146E+02   -.157E+00 -.248E-01 0.427E+00
   0.148E+00 0.356E+03 -.258E+03   -.522E-04 -.376E+03 0.272E+03   0.102E-01 0.206E+02 -.145E+02   -.157E+00 -.845E-02 0.180E+00
   -.316E+03 0.196E+00 0.212E+03   0.330E+03 0.103E-02 -.222E+03   -.142E+02 0.147E-01 0.957E+01   0.397E+00 -.210E+00 -.360E-01
   -.146E+00 -.357E+03 0.234E+03   0.473E-04 0.378E+03 -.247E+03   -.103E-01 -.206E+02 0.140E+02   0.155E+00 0.217E-01 -.351E+00
   0.316E+03 0.195E+00 0.211E+03   -.330E+03 0.103E-02 -.222E+03   0.142E+02 0.142E-01 0.956E+01   -.430E+00 -.209E+00 0.960E-01
   0.222E+00 0.344E+03 0.258E+03   -.206E-03 -.364E+03 -.272E+03   0.157E-01 0.201E+02 0.145E+02   -.236E+00 0.374E-01 -.472E+00
   0.344E+03 -.199E+00 -.257E+03   -.364E+03 -.617E-03 0.272E+03   0.201E+02 -.148E-01 -.144E+02   -.436E+00 0.212E+00 -.117E+00
   -.344E+03 -.199E+00 -.258E+03   0.364E+03 -.617E-03 0.272E+03   -.201E+02 -.141E-01 -.144E+02   0.391E+00 0.211E+00 0.120E+00
   -.217E+00 -.315E+03 -.212E+03   0.341E-03 0.330E+03 0.222E+03   -.159E-01 -.142E+02 -.961E+01   0.232E+00 -.295E-01 0.425E+00
   -.218E+00 0.315E+03 -.212E+03   0.341E-03 -.330E+03 0.222E+03   -.164E-01 0.142E+02 -.960E+01   0.233E+00 0.315E-01 0.353E+00
   -.356E+03 0.292E-01 0.257E+03   0.376E+03 -.156E-03 -.272E+03   -.206E+02 0.230E-02 0.145E+02   0.535E+00 -.303E-01 0.182E+00
   0.223E+00 -.344E+03 0.258E+03   -.206E-03 0.364E+03 -.272E+03   0.164E-01 -.201E+02 0.145E+02   -.236E+00 -.305E-02 -.228E+00
   0.356E+03 0.282E-01 0.257E+03   -.376E+03 -.156E-03 -.272E+03   0.206E+02 0.226E-02 0.145E+02   -.493E+00 -.302E-01 -.577E-01
 -----------------------------------------------------------------------------------------------
   0.177E-01 0.223E-01 -.135E-01   0.000E+00 -.569E-13 0.114E-12   -.107E-01 0.289E-02 -.152E-01   -.153E-01 -.272E-01 0.329E-01
 
 
 POSITION                                       TOTAL-FORCE (eV/Angst)
 -----------------------------------------------------------------------------------
      2.88531      2.88528      0.00119        -0.000787      0.002016     -0.008221
      4.32798      2.88532      3.07873         0.054180     -0.000676      0.622474
      0.00000      1.44266      1.02624         0.001869     -0.782837      0.133783
      1.44266      2.88532      3.07873        -0.058791     -0.000054      0.622817
      0.00000      4.32798      1.02624         0.002055      0.785322      0.132602
      1.44266      0.00000      7.18370        -0.782954     -0.000757     -0.132818
      2.88532      4.32798      5.13122        -0.000087      0.059438     -0.624693
      4.32798      0.00000      7.18370         0.779020     -0.001138     -0.132425
      2.88532      1.44266      5.13122         0.000441     -0.059304     -0.623851
      2.88532      1.61105      3.20805        -0.001935     -0.008095      0.003007
      1.61105      2.88532      5.00189        -0.009811     -0.000933      0.008662
      4.15959      2.88532      5.00189         0.006419      0.000155      0.009429
      0.00000      4.15959      2.94941         0.002476     -0.048489     -0.112717
      0.00000      1.61105      2.94941         0.001394      0.054520     -0.112518
      1.27427      2.88532      1.15557         0.444616      0.001829     -0.414802
      2.88532      4.15959      3.20805        -0.000714      0.006629      0.003573
      4.49636      2.88532      1.15557        -0.442601      0.000727     -0.414855
      0.00000      4.49636      7.31303         0.002443      0.004334     -0.023660
      4.49636      0.00000      0.89692         0.009394     -0.003255      0.030994
      1.27427      0.00000      0.89692        -0.003250     -0.002109      0.031561
      2.88532      1.27427      7.05438        -0.000280      0.446374      0.413314
      2.88532      4.49636      7.05438        -0.001268     -0.445187      0.412880
      4.15959      0.00000      5.26054        -0.050537      0.001104      0.099147
      0.00000      1.27427      7.31303         0.003679     -0.009775     -0.022804
      1.61105      0.00000      5.26054         0.045029      0.000161      0.099123
 -----------------------------------------------------------------------------------
    total drift:                               -0.008236     -0.001976      0.004206


--------------------------------------------------------------------------------------------------------



  FREE ENERGIE OF THE ION-ELECTRON SYSTEM (eV)
  ---------------------------------------------------
  free  energy   TOTEN  =      -196.51842300 eV

  energy  without entropy=     -196.51842300  energy(sigma->0) =     -196.51842300
 


--------------------------------------------------------------------------------------------------------


    POTLOK:  cpu time    0.2855: real time    0.2868


--------------------------------------------------------------------------------------------------------


     LOOP+:  cpu time 1046.7677: real time 1053.2110
    4ORBIT:  cpu time    0.0000: real time    0.0000
 


 total charge     
 
# of ion       s       p       d       tot
------------------------------------------
    1        2.081   0.213   0.000   2.293
    2        0.343   6.445   4.854  11.642
    3        0.343   6.444   4.875  11.661
    4        0.343   6.445   4.863  11.652
    5        0.343   6.444   4.888  11.675
    6        0.343   6.444   4.874  11.661
    7        0.343   6.445   4.875  11.664
    8        0.342   6.444   4.860  11.646
    9        0.343   6.446   4.877  11.666
   10        1.582   3.393   0.000   4.975
   11        1.582   3.392   0.000   4.974
   12        1.582   3.393   0.000   4.974
   13        1.583   3.388   0.000   4.971
   14        1.583   3.389   0.000   4.972
   15        1.569   3.461   0.000   5.030
   16        1.582   3.394   0.000   4.976
   17        1.569   3.462   0.000   5.031
   18        1.581   3.397   0.000   4.979
   19        1.581   3.397   0.000   4.978
   20        1.581   3.396   0.000   4.977
   21        1.569   3.461   0.000   5.030
   22        1.569   3.461   0.000   5.030
   23        1.583   3.387   0.000   4.970
   24        1.581   3.398   0.000   4.979
   25        1.583   3.386   0.000   4.968
--------------------------------------------------
tot         30.084 106.323  38.967 175.374
 


 magnetization (x)
 
# of ion       s       p       d       tot
------------------------------------------
    1        0.003   0.007   0.000   0.010
    2        0.030   0.035   2.717   2.782
    3        0.029   0.034   2.667   2.730
    4        0.030   0.035   2.716   2.781
    5        0.029   0.034   2.664   2.727
    6        0.029   0.034   2.668   2.731
    7        0.030   0.035   2.713   2.778
    8        0.029   0.034   2.672   2.735
    9        0.030   0.035   2.713   2.778
   10        0.003   0.010   0.000   0.013
   11        0.003   0.010   0.000   0.014
   12        0.003   0.010   0.000   0.014
   13        0.004   0.021   0.000   0.024
   14        0.004   0.021   0.000   0.024
   15        0.001   0.018   0.000   0.019
   16        0.003   0.010   0.000   0.013
   17        0.001   0.018   0.000   0.019
   18        0.003   0.010   0.000   0.013
   19        0.003   0.010   0.000   0.013
   20        0.003   0.010   0.000   0.013
   21        0.001   0.018   0.000   0.019
   22        0.001   0.018   0.000   0.019
   23        0.004   0.021   0.000   0.024
   24        0.003   0.010   0.000   0.013
   25        0.004   0.021   0.000   0.024
--------------------------------------------------
tot          0.284   0.518  21.529  22.331
 
 BZINTS: Fermi energy:  2.662258;203.000000 electrons
         Band energy:***********;  BLOECHL correction: -0.034390

 total amount of memory used by VASP MPI-rank0   244219. kBytes
=======================================================================

   base      :      30000. kBytes
   nonlr-proj:      17011. kBytes
   fftplans  :       7295. kBytes
   grid      :      29392. kBytes
   one-center:        777. kBytes
   wavefun   :     159744. kBytes
 
  
  
 General timing and accounting informations for this job:
 ========================================================
  
                  Total CPU time used (sec):     1066.295
                            User time (sec):     1054.837
                          System time (sec):       11.458
                         Elapsed time (sec):     1072.858
  
                   Maximum memory used (kb):   507228160.
                   Average memory used (kb):           0.
  
                          Minor page faults:       133351
                          Major page faults:          224
                 Voluntary context switches:           24
