   2   2   1   0
  0.2085634E+02  0.3892790E-09  0.3892791E-09  0.3892789E-09  0.5000000E-15
   1.0000000000000000E-004
  CAR 
 unknown system                          
     14.17559034     -7.14343306  301      5.52615225      1.00000000
     -7.143  0.0000E+00  0.0000E+00  0.0000E+00  0.0000E+00
     -7.072  0.0000E+00  0.0000E+00  0.0000E+00  0.0000E+00
     -7.001  0.0000E+00  0.0000E+00  0.0000E+00  0.0000E+00
     -6.930  0.0000E+00  0.0000E+00  0.0000E+00  0.0000E+00
     -6.859  0.0000E+00  0.0000E+00  0.0000E+00  0.0000E+00
     -6.788  0.0000E+00  0.0000E+00  0.0000E+00  0.0000E+00
     -6.717  0.0000E+00  0.0000E+00  0.0000E+00  0.0000E+00
     -6.646  0.0000E+00  0.0000E+00  0.0000E+00  0.0000E+00
     -6.575  0.0000E+00  0.0000E+00  0.0000E+00  0.0000E+00
     -6.504  0.0000E+00  0.0000E+00  0.0000E+00  0.0000E+00
     -6.433  0.0000E+00  0.0000E+00  0.0000E+00  0.0000E+00
     -6.362  0.0000E+00  0.0000E+00  0.0000E+00  0.0000E+00
     -6.291  0.0000E+00  0.0000E+00  0.0000E+00  0.0000E+00
     -6.220  0.0000E+00  0.0000E+00  0.0000E+00  0.0000E+00
     -6.149  0.7551E-04  0.7546E-04  0.6505E-06  0.6498E-06
     -6.077  0.1062E-02  0.1062E-02  0.3430E-04  0.3429E-04
     -6.006  0.3190E-02  0.3190E-02  0.1786E-03  0.1786E-03
     -5.935  0.6461E-02  0.6461E-02  0.5148E-03  0.5147E-03
     -5.864  0.1087E-01  0.1087E-01  0.1124E-02  0.1124E-02
     -5.793  0.1643E-01  0.1643E-01  0.2087E-02  0.2087E-02
     -5.722  0.2313E-01  0.2313E-01  0.3486E-02  0.3486E-02
     -5.651  0.3097E-01  0.3096E-01  0.5401E-02  0.5401E-02
     -5.580  0.3995E-01  0.3995E-01  0.7914E-02  0.7914E-02
     -5.509  0.5007E-01  0.5007E-01  0.1111E-01  0.1111E-01
     -5.438  0.6134E-01  0.6133E-01  0.1506E-01  0.1506E-01
     -5.367  0.7374E-01  0.7374E-01  0.1985E-01  0.1985E-01
     -5.296  0.8729E-01  0.8729E-01  0.2557E-01  0.2556E-01
     -5.225  0.1020E+00  0.1020E+00  0.3228E-01  0.3228E-01
     -5.154  0.1178E+00  0.1178E+00  0.4009E-01  0.4009E-01
     -5.083  0.1348E+00  0.1348E+00  0.4906E-01  0.4906E-01
     -5.012  0.1529E+00  0.1529E+00  0.5927E-01  0.5927E-01
     -4.940  0.1722E+00  0.1722E+00  0.7082E-01  0.7082E-01
     -4.869  0.1926E+00  0.1926E+00  0.8377E-01  0.8377E-01
     -4.798  0.3068E+00  0.3068E+00  0.1026E+00  0.1026E+00
     -4.727  0.3331E+00  0.3331E+00  0.1254E+00  0.1254E+00
     -4.656  0.3576E+00  0.3576E+00  0.1499E+00  0.1499E+00
     -4.585  0.3804E+00  0.3804E+00  0.1761E+00  0.1761E+00
     -4.514  0.4015E+00  0.4015E+00  0.2039E+00  0.2039E+00
     -4.443  0.4208E+00  0.4207E+00  0.2332E+00  0.2332E+00
     -4.372  0.4383E+00  0.4383E+00  0.2637E+00  0.2637E+00
     -4.301  0.4605E+00  0.4605E+00  0.2955E+00  0.2955E+00
     -4.230  0.4872E+00  0.4872E+00  0.3292E+00  0.3292E+00
     -4.159  0.5108E+00  0.5108E+00  0.3647E+00  0.3647E+00
     -4.088  0.5312E+00  0.5312E+00  0.4017E+00  0.4017E+00
     -4.017  0.5485E+00  0.5485E+00  0.4401E+00  0.4401E+00
     -3.946  0.5626E+00  0.5626E+00  0.4796E+00  0.4796E+00
     -3.875  0.5736E+00  0.5736E+00  0.5200E+00  0.5200E+00
     -3.803  0.5815E+00  0.5815E+00  0.5611E+00  0.5611E+00
     -3.732  0.5862E+00  0.5862E+00  0.6026E+00  0.6026E+00
     -3.661  0.5877E+00  0.5877E+00  0.6443E+00  0.6443E+00
     -3.590  0.5861E+00  0.5861E+00  0.6860E+00  0.6860E+00
     -3.519  0.5813E+00  0.5813E+00  0.7275E+00  0.7275E+00
     -3.448  0.5734E+00  0.5734E+00  0.7686E+00  0.7686E+00
     -3.377  0.5623E+00  0.5623E+00  0.8089E+00  0.8089E+00
     -3.306  0.5481E+00  0.5481E+00  0.8484E+00  0.8484E+00
     -3.235  0.5307E+00  0.5307E+00  0.8868E+00  0.8868E+00
     -3.164  0.5102E+00  0.5102E+00  0.9238E+00  0.9238E+00
     -3.093  0.4866E+00  0.4866E+00  0.9592E+00  0.9592E+00
     -3.022  0.1737E+00  0.1737E+00  0.1000E+01  0.1000E+01
     -2.951  0.0000E+00  0.0000E+00  0.1000E+01  0.1000E+01
     -2.880  0.0000E+00  0.0000E+00  0.1000E+01  0.1000E+01
     -2.809  0.0000E+00  0.0000E+00  0.1000E+01  0.1000E+01
     -2.738  0.0000E+00  0.0000E+00  0.1000E+01  0.1000E+01
     -2.666  0.0000E+00  0.0000E+00  0.1000E+01  0.1000E+01
     -2.595  0.0000E+00  0.0000E+00  0.1000E+01  0.1000E+01
     -2.524  0.0000E+00  0.0000E+00  0.1000E+01  0.1000E+01
     -2.453  0.0000E+00  0.0000E+00  0.1000E+01  0.1000E+01
     -2.382  0.0000E+00  0.0000E+00  0.1000E+01  0.1000E+01
     -2.311  0.0000E+00  0.0000E+00  0.1000E+01  0.1000E+01
     -2.240  0.0000E+00  0.0000E+00  0.1000E+01  0.1000E+01
     -2.169  0.0000E+00  0.0000E+00  0.1000E+01  0.1000E+01
     -2.098  0.0000E+00  0.0000E+00  0.1000E+01  0.1000E+01
     -2.027  0.0000E+00  0.0000E+00  0.1000E+01  0.1000E+01
     -1.956  0.0000E+00  0.0000E+00  0.1000E+01  0.1000E+01
     -1.885  0.0000E+00  0.0000E+00  0.1000E+01  0.1000E+01
     -1.814  0.0000E+00  0.0000E+00  0.1000E+01  0.1000E+01
     -1.743  0.0000E+00  0.0000E+00  0.1000E+01  0.1000E+01
     -1.672  0.0000E+00  0.0000E+00  0.1000E+01  0.1000E+01
     -1.600  0.0000E+00  0.0000E+00  0.1000E+01  0.1000E+01
     -1.529  0.0000E+00  0.0000E+00  0.1000E+01  0.1000E+01
     -1.458  0.0000E+00  0.0000E+00  0.1000E+01  0.1000E+01
     -1.387  0.0000E+00  0.0000E+00  0.1000E+01  0.1000E+01
     -1.316  0.0000E+00  0.0000E+00  0.1000E+01  0.1000E+01
     -1.245  0.0000E+00  0.0000E+00  0.1000E+01  0.1000E+01
     -1.174  0.0000E+00  0.0000E+00  0.1000E+01  0.1000E+01
     -1.103  0.6135E+00  0.6134E+00  0.1032E+01  0.1032E+01
     -1.032  0.4733E+00  0.4733E+00  0.1064E+01  0.1064E+01
     -0.961  0.5031E+00  0.5031E+00  0.1099E+01  0.1099E+01
     -0.890  0.5292E+00  0.5292E+00  0.1136E+01  0.1136E+01
     -0.819  0.5515E+00  0.5515E+00  0.1174E+01  0.1174E+01
     -0.748  0.5702E+00  0.5702E+00  0.1214E+01  0.1214E+01
     -0.677  0.5851E+00  0.5851E+00  0.1255E+01  0.1255E+01
     -0.606  0.5963E+00  0.5963E+00  0.1297E+01  0.1297E+01
     -0.535  0.6038E+00  0.6038E+00  0.1340E+01  0.1340E+01
     -0.463  0.6075E+00  0.6075E+00  0.1383E+01  0.1383E+01
     -0.392  0.6075E+00  0.6075E+00  0.1426E+01  0.1426E+01
     -0.321  0.6038E+00  0.6038E+00  0.1469E+01  0.1469E+01
     -0.250  0.5964E+00  0.5964E+00  0.1512E+01  0.1512E+01
     -0.179  0.5853E+00  0.5853E+00  0.1554E+01  0.1554E+01
     -0.108  0.5704E+00  0.5704E+00  0.1595E+01  0.1595E+01
     -0.037  0.5518E+00  0.5518E+00  0.1635E+01  0.1635E+01
      0.034  0.5295E+00  0.5295E+00  0.1673E+01  0.1673E+01
      0.105  0.5034E+00  0.5034E+00  0.1710E+01  0.1710E+01
      0.176  0.4736E+00  0.4736E+00  0.1745E+01  0.1745E+01
      0.247  0.4401E+00  0.4401E+00  0.1777E+01  0.1777E+01
      0.318  0.6204E+00  0.6204E+00  0.1813E+01  0.1813E+01
      0.389  0.3535E+00  0.3535E+00  0.1847E+01  0.1847E+01
      0.460  0.1743E+00  0.1744E+00  0.1866E+01  0.1866E+01
      0.531  0.8298E-01  0.8299E-01  0.1874E+01  0.1874E+01
      0.602  0.7340E-01  0.7340E-01  0.1880E+01  0.1880E+01
      0.674  0.7130E-01  0.7130E-01  0.1885E+01  0.1885E+01
      0.745  0.6923E-01  0.6923E-01  0.1890E+01  0.1890E+01
      0.816  0.6718E-01  0.6718E-01  0.1895E+01  0.1895E+01
      0.887  0.6517E-01  0.6517E-01  0.1899E+01  0.1899E+01
      0.958  0.6319E-01  0.6319E-01  0.1904E+01  0.1904E+01
      1.029  0.6124E-01  0.6124E-01  0.1908E+01  0.1908E+01
      1.100  0.5932E-01  0.5932E-01  0.1912E+01  0.1912E+01
      1.171  0.5743E-01  0.5743E-01  0.1917E+01  0.1917E+01
      1.242  0.5557E-01  0.5557E-01  0.1921E+01  0.1921E+01
      1.313  0.5328E+00  0.5328E+00  0.1948E+01  0.1948E+01
      1.384  0.3650E+00  0.3650E+00  0.1974E+01  0.1974E+01
      1.455  0.3702E+00  0.3702E+00  0.2000E+01  0.2000E+01
      1.526  0.3748E+00  0.3748E+00  0.2026E+01  0.2026E+01
      1.597  0.3787E+00  0.3787E+00  0.2053E+01  0.2053E+01
      1.668  0.3820E+00  0.3820E+00  0.2080E+01  0.2080E+01
      1.739  0.3845E+00  0.3845E+00  0.2108E+01  0.2108E+01
      1.811  0.3864E+00  0.3864E+00  0.2135E+01  0.2135E+01
      1.882  0.3876E+00  0.3876E+00  0.2162E+01  0.2162E+01
      1.953  0.3882E+00  0.3882E+00  0.2190E+01  0.2190E+01
      2.024  0.3881E+00  0.3881E+00  0.2218E+01  0.2218E+01
      2.095  0.3872E+00  0.3872E+00  0.2245E+01  0.2245E+01
      2.166  0.3858E+00  0.3858E+00  0.2273E+01  0.2273E+01
      2.237  0.3836E+00  0.3836E+00  0.2300E+01  0.2300E+01
      2.308  0.3808E+00  0.3808E+00  0.2327E+01  0.2327E+01
      2.379  0.3772E+00  0.3772E+00  0.2354E+01  0.2354E+01
      2.450  0.3731E+00  0.3731E+00  0.2381E+01  0.2381E+01
      2.521  0.3682E+00  0.3682E+00  0.2407E+01  0.2407E+01
      2.592  0.3627E+00  0.3627E+00  0.2433E+01  0.2433E+01
      2.663  0.3565E+00  0.3565E+00  0.2459E+01  0.2459E+01
      2.734  0.3496E+00  0.3496E+00  0.2484E+01  0.2484E+01
      2.805  0.3420E+00  0.3420E+00  0.2508E+01  0.2508E+01
      2.877  0.3338E+00  0.3338E+00  0.2532E+01  0.2532E+01
      2.948  0.3249E+00  0.3249E+00  0.2556E+01  0.2556E+01
      3.019  0.3153E+00  0.3153E+00  0.2578E+01  0.2578E+01
      3.090  0.3050E+00  0.3050E+00  0.2600E+01  0.2600E+01
      3.161  0.2941E+00  0.2941E+00  0.2622E+01  0.2622E+01
      3.232  0.5754E+00  0.5753E+00  0.2649E+01  0.2649E+01
      3.303  0.1038E+01  0.1038E+01  0.2706E+01  0.2706E+01
      3.374  0.1560E+01  0.1560E+01  0.2798E+01  0.2798E+01
      3.445  0.2142E+01  0.2142E+01  0.2930E+01  0.2929E+01
      3.516  0.1276E+01  0.1276E+01  0.3057E+01  0.3057E+01
      3.587  0.1085E+01  0.1085E+01  0.3135E+01  0.3135E+01
      3.658  0.1062E+01  0.1062E+01  0.3211E+01  0.3211E+01
      3.729  0.1033E+01  0.1033E+01  0.3286E+01  0.3286E+01
      3.800  0.9990E+00  0.9990E+00  0.3358E+01  0.3358E+01
      3.871  0.9594E+00  0.9594E+00  0.3428E+01  0.3428E+01
      3.942  0.9145E+00  0.9145E+00  0.3494E+01  0.3494E+01
      4.014  0.8641E+00  0.8641E+00  0.3557E+01  0.3557E+01
      4.085  0.8082E+00  0.8082E+00  0.3617E+01  0.3617E+01
      4.156  0.7469E+00  0.7469E+00  0.3672E+01  0.3672E+01
      4.227  0.6801E+00  0.6801E+00  0.3723E+01  0.3723E+01
      4.298  0.6079E+00  0.6080E+00  0.3769E+01  0.3769E+01
      4.369  0.5303E+00  0.5303E+00  0.3809E+01  0.3809E+01
      4.440  0.4472E+00  0.4472E+00  0.3844E+01  0.3844E+01
      4.511  0.3587E+00  0.3587E+00  0.3873E+01  0.3873E+01
      4.582  0.3288E+00  0.3288E+00  0.3897E+01  0.3897E+01
      4.653  0.2811E+00  0.2812E+00  0.3918E+01  0.3918E+01
      4.724  0.2372E+00  0.2372E+00  0.3937E+01  0.3937E+01
      4.795  0.1970E+00  0.1970E+00  0.3952E+01  0.3952E+01
      4.866  0.1606E+00  0.1606E+00  0.3965E+01  0.3965E+01
      4.937  0.1278E+00  0.1278E+00  0.3975E+01  0.3975E+01
      5.008  0.9883E-01  0.9884E-01  0.3983E+01  0.3983E+01
      5.079  0.7355E-01  0.7356E-01  0.3989E+01  0.3989E+01
      5.151  0.5200E-01  0.5200E-01  0.3993E+01  0.3993E+01
      5.222  0.3417E-01  0.3418E-01  0.3997E+01  0.3997E+01
      5.293  0.2008E-01  0.2008E-01  0.3998E+01  0.3998E+01
      5.364  0.9707E-02  0.9709E-02  0.3999E+01  0.3999E+01
      5.435  0.3064E-02  0.3065E-02  0.4000E+01  0.4000E+01
      5.506  0.1484E-03  0.1487E-03  0.4000E+01  0.4000E+01
      5.577  0.0000E+00  0.0000E+00  0.4000E+01  0.4000E+01
      5.648  0.0000E+00  0.0000E+00  0.4000E+01  0.4000E+01
      5.719  0.0000E+00  0.0000E+00  0.4000E+01  0.4000E+01
      5.790  0.0000E+00  0.0000E+00  0.4000E+01  0.4000E+01
      5.861  0.0000E+00  0.0000E+00  0.4000E+01  0.4000E+01
      5.932  0.0000E+00  0.0000E+00  0.4000E+01  0.4000E+01
      6.003  0.0000E+00  0.0000E+00  0.4000E+01  0.4000E+01
      6.074  0.0000E+00  0.0000E+00  0.4000E+01  0.4000E+01
      6.145  0.0000E+00  0.0000E+00  0.4000E+01  0.4000E+01
      6.216  0.0000E+00  0.0000E+00  0.4000E+01  0.4000E+01
      6.288  0.1166E-01  0.1167E-01  0.4000E+01  0.4000E+01
      6.359  0.9395E-01  0.9397E-01  0.4004E+01  0.4004E+01
      6.430  0.1957E+00  0.1957E+00  0.4014E+01  0.4014E+01
      6.501  0.3168E+00  0.3168E+00  0.4032E+01  0.4032E+01
      6.572  0.4574E+00  0.4574E+00  0.4059E+01  0.4059E+01
      6.643  0.6174E+00  0.6174E+00  0.4097E+01  0.4097E+01
      6.714  0.7968E+00  0.7969E+00  0.4148E+01  0.4148E+01
      6.785  0.9957E+00  0.9957E+00  0.4211E+01  0.4211E+01
      6.856  0.1214E+01  0.1214E+01  0.4290E+01  0.4290E+01
      6.927  0.1452E+01  0.1452E+01  0.4384E+01  0.4384E+01
      6.998  0.1709E+01  0.1709E+01  0.4496E+01  0.4496E+01
      7.069  0.1985E+01  0.1985E+01  0.4627E+01  0.4628E+01
      7.140  0.3218E+01  0.3218E+01  0.4921E+01  0.4921E+01
      7.211  0.2240E+00  0.2240E+00  0.4939E+01  0.4939E+01
      7.282  0.1868E+00  0.1868E+00  0.4953E+01  0.4953E+01
      7.354  0.1530E+00  0.1530E+00  0.4965E+01  0.4965E+01
      7.425  0.1226E+00  0.1226E+00  0.4975E+01  0.4975E+01
      7.496  0.9553E-01  0.9553E-01  0.4983E+01  0.4983E+01
      7.567  0.8123E-01  0.8123E-01  0.4989E+01  0.4989E+01
      7.638  0.7991E-01  0.7991E-01  0.4995E+01  0.4995E+01
      7.709  0.8217E-01  0.8217E-01  0.5000E+01  0.5000E+01
      7.780  0.8803E-01  0.8803E-01  0.5007E+01  0.5007E+01
      7.851  0.9747E-01  0.9748E-01  0.5013E+01  0.5013E+01
      7.922  0.1105E+00  0.1105E+00  0.5020E+01  0.5020E+01
      7.993  0.1271E+00  0.1271E+00  0.5029E+01  0.5029E+01
      8.064  0.1471E+00  0.1471E+00  0.5039E+01  0.5039E+01
      8.135  0.1687E+00  0.1687E+00  0.5050E+01  0.5050E+01
      8.206  0.1916E+00  0.1916E+00  0.5063E+01  0.5063E+01
      8.277  0.2159E+00  0.2159E+00  0.5077E+01  0.5077E+01
      8.348  0.2414E+00  0.2414E+00  0.5093E+01  0.5093E+01
      8.419  0.2683E+00  0.2683E+00  0.5111E+01  0.5111E+01
      8.491  0.2965E+00  0.2965E+00  0.5132E+01  0.5132E+01
      8.562  0.3261E+00  0.3261E+00  0.5154E+01  0.5154E+01
      8.633  0.3571E+00  0.3571E+00  0.5178E+01  0.5178E+01
      8.704  0.3894E+00  0.3894E+00  0.5204E+01  0.5204E+01
      8.775  0.4231E+00  0.4231E+00  0.5233E+01  0.5233E+01
      8.846  0.4582E+00  0.4582E+00  0.5265E+01  0.5265E+01
      8.917  0.4947E+00  0.4946E+00  0.5298E+01  0.5298E+01
      8.988  0.3437E+00  0.3437E+00  0.5333E+01  0.5333E+01
      9.059  0.3650E+00  0.3650E+00  0.5358E+01  0.5358E+01
      9.130  0.3854E+00  0.3854E+00  0.5385E+01  0.5385E+01
      9.201  0.4049E+00  0.4049E+00  0.5413E+01  0.5413E+01
      9.272  0.4234E+00  0.4234E+00  0.5443E+01  0.5443E+01
      9.343  0.4410E+00  0.4410E+00  0.5473E+01  0.5473E+01
      9.414  0.4577E+00  0.4577E+00  0.5505E+01  0.5505E+01
      9.485  0.4734E+00  0.4734E+00  0.5538E+01  0.5538E+01
      9.556  0.4882E+00  0.4882E+00  0.5573E+01  0.5573E+01
      9.628  0.5021E+00  0.5021E+00  0.5608E+01  0.5608E+01
      9.699  0.5150E+00  0.5150E+00  0.5644E+01  0.5644E+01
      9.770  0.5270E+00  0.5270E+00  0.5681E+01  0.5681E+01
      9.841  0.5381E+00  0.5381E+00  0.5719E+01  0.5719E+01
      9.912  0.5482E+00  0.5482E+00  0.5757E+01  0.5757E+01
      9.983  0.5574E+00  0.5574E+00  0.5797E+01  0.5797E+01
     10.054  0.5657E+00  0.5657E+00  0.5837E+01  0.5837E+01
     10.125  0.5730E+00  0.5730E+00  0.5877E+01  0.5877E+01
     10.196  0.5794E+00  0.5794E+00  0.5918E+01  0.5918E+01
     10.267  0.5848E+00  0.5848E+00  0.5959E+01  0.5959E+01
     10.338  0.5894E+00  0.5894E+00  0.6001E+01  0.6001E+01
     10.409  0.5929E+00  0.5929E+00  0.6043E+01  0.6043E+01
     10.480  0.5956E+00  0.5956E+00  0.6085E+01  0.6085E+01
     10.551  0.5973E+00  0.5973E+00  0.6128E+01  0.6128E+01
     10.622  0.5981E+00  0.5981E+00  0.6170E+01  0.6170E+01
     10.693  0.5979E+00  0.5979E+00  0.6213E+01  0.6213E+01
     10.765  0.5968E+00  0.5968E+00  0.6255E+01  0.6255E+01
     10.836  0.5948E+00  0.5948E+00  0.6298E+01  0.6298E+01
     10.907  0.5919E+00  0.5919E+00  0.6340E+01  0.6340E+01
     10.978  0.5880E+00  0.5880E+00  0.6382E+01  0.6382E+01
     11.049  0.5831E+00  0.5831E+00  0.6423E+01  0.6423E+01
     11.120  0.5774E+00  0.5774E+00  0.6465E+01  0.6465E+01
     11.191  0.5707E+00  0.5707E+00  0.6505E+01  0.6505E+01
     11.262  0.5205E+00  0.5205E+00  0.6558E+01  0.6558E+01
     11.333  0.3515E+00  0.3515E+00  0.6582E+01  0.6582E+01
     11.404  0.3559E+00  0.3559E+00  0.6608E+01  0.6608E+01
     11.475  0.3602E+00  0.3602E+00  0.6633E+01  0.6633E+01
     11.546  0.3642E+00  0.3642E+00  0.6659E+01  0.6659E+01
     11.617  0.3679E+00  0.3679E+00  0.6685E+01  0.6685E+01
     11.688  0.3714E+00  0.3714E+00  0.6711E+01  0.6711E+01
     11.759  0.3747E+00  0.3747E+00  0.6737E+01  0.6737E+01
     11.830  0.1051E+01  0.1051E+01  0.6778E+01  0.6778E+01
     11.902  0.7873E+00  0.7873E+00  0.6837E+01  0.6837E+01
     11.973  0.7005E+00  0.7005E+00  0.6890E+01  0.6890E+01
     12.044  0.6171E+00  0.6170E+00  0.6937E+01  0.6937E+01
     12.115  0.5370E+00  0.5370E+00  0.6978E+01  0.6978E+01
     12.186  0.4604E+00  0.4604E+00  0.7013E+01  0.7013E+01
     12.257  0.3871E+00  0.3871E+00  0.7043E+01  0.7043E+01
     12.328  0.3172E+00  0.3172E+00  0.7068E+01  0.7068E+01
     12.399  0.2791E+01  0.2791E+01  0.7137E+01  0.7137E+01
     12.470  0.2272E+01  0.2272E+01  0.7312E+01  0.7312E+01
     12.541  0.1736E+01  0.1736E+01  0.7455E+01  0.7455E+01
     12.612  0.1210E+01  0.1210E+01  0.7556E+01  0.7556E+01
     12.683  0.1128E+01  0.1129E+01  0.7639E+01  0.7639E+01
     12.754  0.1034E+01  0.1034E+01  0.7716E+01  0.7716E+01
     12.825  0.9272E+00  0.9272E+00  0.7786E+01  0.7786E+01
     12.896  0.8075E+00  0.8075E+00  0.7847E+01  0.7847E+01
     12.968  0.6750E+00  0.6750E+00  0.7900E+01  0.7900E+01
     13.039  0.5298E+00  0.5298E+00  0.7943E+01  0.7943E+01
     13.110  0.3719E+00  0.3718E+00  0.7975E+01  0.7975E+01
     13.181  0.2013E+00  0.2012E+00  0.7996E+01  0.7996E+01
     13.252  0.0000E+00  0.0000E+00  0.8000E+01  0.8000E+01
     13.323  0.0000E+00  0.0000E+00  0.8000E+01  0.8000E+01
     13.394  0.0000E+00  0.0000E+00  0.8000E+01  0.8000E+01
     13.465  0.0000E+00  0.0000E+00  0.8000E+01  0.8000E+01
     13.536  0.0000E+00  0.0000E+00  0.8000E+01  0.8000E+01
     13.607  0.0000E+00  0.0000E+00  0.8000E+01  0.8000E+01
     13.678  0.0000E+00  0.0000E+00  0.8000E+01  0.8000E+01
     13.749  0.0000E+00  0.0000E+00  0.8000E+01  0.8000E+01
     13.820  0.0000E+00  0.0000E+00  0.8000E+01  0.8000E+01
     13.891  0.0000E+00  0.0000E+00  0.8000E+01  0.8000E+01
     13.962  0.0000E+00  0.0000E+00  0.8000E+01  0.8000E+01
     14.033  0.0000E+00  0.0000E+00  0.8000E+01  0.8000E+01
     14.105  0.0000E+00  0.0000E+00  0.8000E+01  0.8000E+01
     14.176  0.0000E+00  0.0000E+00  0.8000E+01  0.8000E+01
     14.17559034     -7.14343306  301      5.52615225      1.00000000
     -7.143  0.0000E+00  0.0000E+00  0.0000E+00  0.0000E+00  0.0000E+00  0.0000E+00  0.0000E+00  0.0000E+00  0.0000E+00  0.0000E+00  0.0000E+00  0.0000E+00  0.0000E+00  0.0000E+00  0.0000E+00  0.0000E+00  0.0000E+00  0.0000E+00
     -7.072  0.0000E+00  0.0000E+00  0.0000E+00  0.0000E+00  0.0000E+00  0.0000E+00  0.0000E+00  0.0000E+00  0.0000E+00  0.0000E+00  0.0000E+00  0.0000E+00  0.0000E+00  0.0000E+00  0.0000E+00  0.0000E+00  0.0000E+00  0.0000E+00
     -7.001  0.0000E+00  0.0000E+00  0.0000E+00  0.0000E+00  0.0000E+00  0.0000E+00  0.0000E+00  0.0000E+00  0.0000E+00  0.0000E+00  0.0000E+00  0.0000E+00  0.0000E+00  0.0000E+00  0.0000E+00  0.0000E+00  0.0000E+00  0.0000E+00
     -6.930  0.0000E+00  0.0000E+00  0.0000E+00  0.0000E+00  0.0000E+00  0.0000E+00  0.0000E+00  0.0000E+00  0.0000E+00  0.0000E+00  0.0000E+00  0.0000E+00  0.0000E+00  0.0000E+00  0.0000E+00  0.0000E+00  0.0000E+00  0.0000E+00
     -6.859  0.0000E+00  0.0000E+00  0.0000E+00  0.0000E+00  0.0000E+00  0.0000E+00  0.0000E+00  0.0000E+00  0.0000E+00  0.0000E+00  0.0000E+00  0.0000E+00  0.0000E+00  0.0000E+00  0.0000E+00  0.0000E+00  0.0000E+00  0.0000E+00
     -6.788  0.0000E+00  0.0000E+00  0.0000E+00  0.0000E+00  0.0000E+00  0.0000E+00  0.0000E+00  0.0000E+00  0.0000E+00  0.0000E+00  0.0000E+00  0.0000E+00  0.0000E+00  0.0000E+00  0.0000E+00  0.0000E+00  0.0000E+00  0.0000E+00
     -6.717  0.0000E+00  0.0000E+00  0.0000E+00  0.0000E+00  0.0000E+00  0.0000E+00  0.0000E+00  0.0000E+00  0.0000E+00  0.0000E+00  0.0000E+00  0.0000E+00  0.0000E+00  0.0000E+00  0.0000E+00  0.0000E+00  0.0000E+00  0.0000E+00
     -6.646  0.0000E+00  0.0000E+00  0.0000E+00  0.0000E+00  0.0000E+00  0.0000E+00  0.0000E+00  0.0000E+00  0.0000E+00  0.0000E+00  0.0000E+00  0.0000E+00  0.0000E+00  0.0000E+00  0.0000E+00  0.0000E+00  0.0000E+00  0.0000E+00
     -6.575  0.0000E+00  0.0000E+00  0.0000E+00  0.0000E+00  0.0000E+00  0.0000E+00  0.0000E+00  0.0000E+00  0.0000E+00  0.0000E+00  0.0000E+00  0.0000E+00  0.0000E+00  0.0000E+00  0.0000E+00  0.0000E+00  0.0000E+00  0.0000E+00
     -6.504  0.0000E+00  0.0000E+00  0.0000E+00  0.0000E+00  0.0000E+00  0.0000E+00  0.0000E+00  0.0000E+00  0.0000E+00  0.0000E+00  0.0000E+00  0.0000E+00  0.0000E+00  0.0000E+00  0.0000E+00  0.0000E+00  0.0000E+00  0.0000E+00
     -6.433  0.0000E+00  0.0000E+00  0.0000E+00  0.0000E+00  0.0000E+00  0.0000E+00  0.0000E+00  0.0000E+00  0.0000E+00  0.0000E+00  0.0000E+00  0.0000E+00  0.0000E+00  0.0000E+00  0.0000E+00  0.0000E+00  0.0000E+00  0.0000E+00
     -6.362  0.0000E+00  0.0000E+00  0.0000E+00  0.0000E+00  0.0000E+00  0.0000E+00  0.0000E+00  0.0000E+00  0.0000E+00  0.0000E+00  0.0000E+00  0.0000E+00  0.0000E+00  0.0000E+00  0.0000E+00  0.0000E+00  0.0000E+00  0.0000E+00
     -6.291  0.0000E+00  0.0000E+00  0.0000E+00  0.0000E+00  0.0000E+00  0.0000E+00  0.0000E+00  0.0000E+00  0.0000E+00  0.0000E+00  0.0000E+00  0.0000E+00  0.0000E+00  0.0000E+00  0.0000E+00  0.0000E+00  0.0000E+00  0.0000E+00
     -6.220  0.0000E+00  0.0000E+00  0.0000E+00  0.0000E+00  0.0000E+00  0.0000E+00  0.0000E+00  0.0000E+00  0.0000E+00  0.0000E+00  0.0000E+00  0.0000E+00  0.0000E+00  0.0000E+00  0.0000E+00  0.0000E+00  0.0000E+00  0.0000E+00
     -6.149  0.1565E-04  0.1564E-04  0.2732E-06  0.2730E-06  0.3105E-06  0.3103E-06  0.2555E-06  0.2553E-06  0.0000E+00  0.0000E+00  0.0000E+00  0.0000E+00  0.0000E+00  0.0000E+00  0.0000E+00  0.0000E+00  0.0000E+00  0.0000E+00
     -6.077  0.2201E-03  0.2201E-03  0.3842E-05  0.3841E-05  0.4367E-05  0.4366E-05  0.3592E-05  0.3592E-05  0.0000E+00  0.0000E+00  0.0000E+00  0.0000E+00  0.0000E+00  0.0000E+00  0.0000E+00  0.0000E+00  0.0000E+00  0.0000E+00
     -6.006  0.6614E-03  0.6613E-03  0.1154E-04  0.1154E-04  0.1312E-04  0.1312E-04  0.1079E-04  0.1079E-04  0.0000E+00  0.0000E+00  0.0000E+00  0.0000E+00  0.0000E+00  0.0000E+00  0.0000E+00  0.0000E+00  0.0000E+00  0.0000E+00
     -5.935  0.1339E-02  0.1339E-02  0.2337E-04  0.2337E-04  0.2657E-04  0.2657E-04  0.2186E-04  0.2186E-04  0.0000E+00  0.0000E+00  0.0000E+00  0.0000E+00  0.0000E+00  0.0000E+00  0.0000E+00  0.0000E+00  0.0000E+00  0.0000E+00
     -5.864  0.2254E-02  0.2254E-02  0.3934E-04  0.3934E-04  0.4472E-04  0.4471E-04  0.3679E-04  0.3678E-04  0.0000E+00  0.0000E+00  0.0000E+00  0.0000E+00  0.0000E+00  0.0000E+00  0.0000E+00  0.0000E+00  0.0000E+00  0.0000E+00
     -5.793  0.3406E-02  0.3406E-02  0.5944E-04  0.5943E-04  0.6756E-04  0.6756E-04  0.5558E-04  0.5558E-04  0.0000E+00  0.0000E+00  0.0000E+00  0.0000E+00  0.0000E+00  0.0000E+00  0.0000E+00  0.0000E+00  0.0000E+00  0.0000E+00
     -5.722  0.4794E-02  0.4794E-02  0.8366E-04  0.8366E-04  0.9510E-04  0.9510E-04  0.7823E-04  0.7823E-04  0.0000E+00  0.0000E+00  0.0000E+00  0.0000E+00  0.0000E+00  0.0000E+00  0.0000E+00  0.0000E+00  0.0000E+00  0.0000E+00
     -5.651  0.6419E-02  0.6419E-02  0.1120E-03  0.1120E-03  0.1273E-03  0.1273E-03  0.1048E-03  0.1048E-03  0.0000E+00  0.0000E+00  0.0000E+00  0.0000E+00  0.0000E+00  0.0000E+00  0.0000E+00  0.0000E+00  0.0000E+00  0.0000E+00
     -5.580  0.8281E-02  0.8281E-02  0.1445E-03  0.1445E-03  0.1643E-03  0.1643E-03  0.1351E-03  0.1351E-03  0.0000E+00  0.0000E+00  0.0000E+00  0.0000E+00  0.0000E+00  0.0000E+00  0.0000E+00  0.0000E+00  0.0000E+00  0.0000E+00
     -5.509  0.1038E-01  0.1038E-01  0.1811E-03  0.1811E-03  0.2059E-03  0.2059E-03  0.1694E-03  0.1694E-03  0.0000E+00  0.0000E+00  0.0000E+00  0.0000E+00  0.0000E+00  0.0000E+00  0.0000E+00  0.0000E+00  0.0000E+00  0.0000E+00
     -5.438  0.1272E-01  0.1272E-01  0.2219E-03  0.2219E-03  0.2522E-03  0.2522E-03  0.2075E-03  0.2075E-03  0.0000E+00  0.0000E+00  0.0000E+00  0.0000E+00  0.0000E+00  0.0000E+00  0.0000E+00  0.0000E+00  0.0000E+00  0.0000E+00
     -5.367  0.1529E-01  0.1529E-01  0.2668E-03  0.2668E-03  0.3033E-03  0.3033E-03  0.2495E-03  0.2495E-03  0.0000E+00  0.0000E+00  0.0000E+00  0.0000E+00  0.0000E+00  0.0000E+00  0.0000E+00  0.0000E+00  0.0000E+00  0.0000E+00
     -5.296  0.1810E-01  0.1810E-01  0.3158E-03  0.3158E-03  0.3590E-03  0.3590E-03  0.2953E-03  0.2953E-03  0.0000E+00  0.0000E+00  0.0000E+00  0.0000E+00  0.0000E+00  0.0000E+00  0.0000E+00  0.0000E+00  0.0000E+00  0.0000E+00
     -5.225  0.2114E-01  0.2114E-01  0.3690E-03  0.3690E-03  0.4194E-03  0.4194E-03  0.3450E-03  0.3450E-03  0.0000E+00  0.0000E+00  0.0000E+00  0.0000E+00  0.0000E+00  0.0000E+00  0.0000E+00  0.0000E+00  0.0000E+00  0.0000E+00
     -5.154  0.2443E-01  0.2442E-01  0.4262E-03  0.4262E-03  0.4845E-03  0.4845E-03  0.3986E-03  0.3986E-03  0.0000E+00  0.0000E+00  0.0000E+00  0.0000E+00  0.0000E+00  0.0000E+00  0.0000E+00  0.0000E+00  0.0000E+00  0.0000E+00
     -5.083  0.2794E-01  0.2794E-01  0.4877E-03  0.4877E-03  0.5543E-03  0.5543E-03  0.4560E-03  0.4560E-03  0.0000E+00  0.0000E+00  0.0000E+00  0.0000E+00  0.0000E+00  0.0000E+00  0.0000E+00  0.0000E+00  0.0000E+00  0.0000E+00
     -5.012  0.3170E-01  0.3170E-01  0.5532E-03  0.5532E-03  0.6288E-03  0.6288E-03  0.5173E-03  0.5173E-03  0.0000E+00  0.0000E+00  0.0000E+00  0.0000E+00  0.0000E+00  0.0000E+00  0.0000E+00  0.0000E+00  0.0000E+00  0.0000E+00
     -4.940  0.3569E-01  0.3569E-01  0.6229E-03  0.6229E-03  0.7080E-03  0.7080E-03  0.5825E-03  0.5825E-03  0.0000E+00  0.0000E+00  0.0000E+00  0.0000E+00  0.0000E+00  0.0000E+00  0.0000E+00  0.0000E+00  0.0000E+00  0.0000E+00
     -4.869  0.3992E-01  0.3992E-01  0.6967E-03  0.6967E-03  0.7919E-03  0.7919E-03  0.6515E-03  0.6515E-03  0.0000E+00  0.0000E+00  0.0000E+00  0.0000E+00  0.0000E+00  0.0000E+00  0.0000E+00  0.0000E+00  0.0000E+00  0.0000E+00
     -4.798  0.6349E-01  0.6349E-01  0.1219E-02  0.1219E-02  0.1549E-02  0.1549E-02  0.1456E-02  0.1455E-02  0.0000E+00  0.0000E+00  0.0000E+00  0.0000E+00  0.0000E+00  0.0000E+00  0.0000E+00  0.0000E+00  0.0000E+00  0.0000E+00
     -4.727  0.6902E-01  0.6901E-01  0.1472E-02  0.1472E-02  0.1792E-02  0.1792E-02  0.1692E-02  0.1692E-02  0.0000E+00  0.0000E+00  0.0000E+00  0.0000E+00  0.0000E+00  0.0000E+00  0.0000E+00  0.0000E+00  0.0000E+00  0.0000E+00
     -4.656  0.7418E-01  0.7418E-01  0.1715E-02  0.1715E-02  0.2016E-02  0.2016E-02  0.1916E-02  0.1915E-02  0.0000E+00  0.0000E+00  0.0000E+00  0.0000E+00  0.0000E+00  0.0000E+00  0.0000E+00  0.0000E+00  0.0000E+00  0.0000E+00
     -4.585  0.7898E-01  0.7898E-01  0.1949E-02  0.1948E-02  0.2223E-02  0.2223E-02  0.2126E-02  0.2126E-02  0.0000E+00  0.0000E+00  0.0000E+00  0.0000E+00  0.0000E+00  0.0000E+00  0.0000E+00  0.0000E+00  0.0000E+00  0.0000E+00
     -4.514  0.8341E-01  0.8341E-01  0.2173E-02  0.2173E-02  0.2412E-02  0.2412E-02  0.2323E-02  0.2322E-02  0.0000E+00  0.0000E+00  0.0000E+00  0.0000E+00  0.0000E+00  0.0000E+00  0.0000E+00  0.0000E+00  0.0000E+00  0.0000E+00
     -4.443  0.8748E-01  0.8748E-01  0.2387E-02  0.2387E-02  0.2582E-02  0.2582E-02  0.2506E-02  0.2506E-02  0.0000E+00  0.0000E+00  0.0000E+00  0.0000E+00  0.0000E+00  0.0000E+00  0.0000E+00  0.0000E+00  0.0000E+00  0.0000E+00
     -4.372  0.9118E-01  0.9118E-01  0.2592E-02  0.2592E-02  0.2734E-02  0.2734E-02  0.2677E-02  0.2676E-02  0.0000E+00  0.0000E+00  0.0000E+00  0.0000E+00  0.0000E+00  0.0000E+00  0.0000E+00  0.0000E+00  0.0000E+00  0.0000E+00
     -4.301  0.9583E-01  0.9583E-01  0.2830E-02  0.2830E-02  0.2912E-02  0.2912E-02  0.2867E-02  0.2867E-02  0.0000E+00  0.0000E+00  0.0000E+00  0.0000E+00  0.0000E+00  0.0000E+00  0.0000E+00  0.0000E+00  0.0000E+00  0.0000E+00
     -4.230  0.1014E+00  0.1014E+00  0.3095E-02  0.3095E-02  0.3121E-02  0.3121E-02  0.3080E-02  0.3080E-02  0.0000E+00  0.0000E+00  0.0000E+00  0.0000E+00  0.0000E+00  0.0000E+00  0.0000E+00  0.0000E+00  0.0000E+00  0.0000E+00
     -4.159  0.1064E+00  0.1064E+00  0.3333E-02  0.3333E-02  0.3310E-02  0.3310E-02  0.3274E-02  0.3274E-02  0.0000E+00  0.0000E+00  0.0000E+00  0.0000E+00  0.0000E+00  0.0000E+00  0.0000E+00  0.0000E+00  0.0000E+00  0.0000E+00
     -4.088  0.1106E+00  0.1106E+00  0.3546E-02  0.3546E-02  0.3478E-02  0.3478E-02  0.3451E-02  0.3451E-02  0.0000E+00  0.0000E+00  0.0000E+00  0.0000E+00  0.0000E+00  0.0000E+00  0.0000E+00  0.0000E+00  0.0000E+00  0.0000E+00
     -4.017  0.1143E+00  0.1143E+00  0.3732E-02  0.3732E-02  0.3625E-02  0.3625E-02  0.3608E-02  0.3608E-02  0.0000E+00  0.0000E+00  0.0000E+00  0.0000E+00  0.0000E+00  0.0000E+00  0.0000E+00  0.0000E+00  0.0000E+00  0.0000E+00
     -3.946  0.1173E+00  0.1173E+00  0.3893E-02  0.3893E-02  0.3753E-02  0.3753E-02  0.3748E-02  0.3748E-02  0.0000E+00  0.0000E+00  0.0000E+00  0.0000E+00  0.0000E+00  0.0000E+00  0.0000E+00  0.0000E+00  0.0000E+00  0.0000E+00
     -3.875  0.1196E+00  0.1196E+00  0.4027E-02  0.4027E-02  0.3860E-02  0.3860E-02  0.3869E-02  0.3869E-02  0.0000E+00  0.0000E+00  0.0000E+00  0.0000E+00  0.0000E+00  0.0000E+00  0.0000E+00  0.0000E+00  0.0000E+00  0.0000E+00
     -3.803  0.1212E+00  0.1212E+00  0.4135E-02  0.4135E-02  0.3946E-02  0.3946E-02  0.3972E-02  0.3972E-02  0.0000E+00  0.0000E+00  0.0000E+00  0.0000E+00  0.0000E+00  0.0000E+00  0.0000E+00  0.0000E+00  0.0000E+00  0.0000E+00
     -3.732  0.1223E+00  0.1223E+00  0.4217E-02  0.4217E-02  0.4012E-02  0.4012E-02  0.4057E-02  0.4057E-02  0.0000E+00  0.0000E+00  0.0000E+00  0.0000E+00  0.0000E+00  0.0000E+00  0.0000E+00  0.0000E+00  0.0000E+00  0.0000E+00
     -3.661  0.1226E+00  0.1226E+00  0.4273E-02  0.4273E-02  0.4058E-02  0.4058E-02  0.4123E-02  0.4123E-02  0.0000E+00  0.0000E+00  0.0000E+00  0.0000E+00  0.0000E+00  0.0000E+00  0.0000E+00  0.0000E+00  0.0000E+00  0.0000E+00
     -3.590  0.1223E+00  0.1223E+00  0.4302E-02  0.4302E-02  0.4084E-02  0.4084E-02  0.4171E-02  0.4171E-02  0.0000E+00  0.0000E+00  0.0000E+00  0.0000E+00  0.0000E+00  0.0000E+00  0.0000E+00  0.0000E+00  0.0000E+00  0.0000E+00