    2    2    1    2
  0.2085634E+02  0.3892790E-09  0.3892791E-09  0.3892789E-09  0.5000000E-15
   1.0000000000000000E-004
  CAR 
 unknown system                          
      8     14      8

  0.1262379E-14  0.1262379E-14  0.1262379E-14  0.3703704E-01
    1       -6.174387     -6.174378   1.000000   1.000000
    2        5.525890      5.525908   1.000000   1.000000
    3        5.525895      5.525922   1.000000   1.000000
    4        5.525913      5.525927   1.000000   1.000000
    5        8.030772      8.030770   0.000000   0.000000
    6        8.030796      8.030782   0.000000   0.000000
    7        8.030811      8.030809   0.000000   0.000000
    8        8.443407      8.443399   0.000000   0.000000

  0.3333333E+00  0.1304512E-14  0.1262879E-14  0.7407407E-01
    1       -4.846713     -4.846705   1.000000   1.000000
    2        0.295341      0.295352   1.000000   1.000000
    3        4.549214      4.549233   1.000000   1.000000
    4        4.549226      4.549241   1.000000   1.000000
    5        7.132214      7.132206   0.000000   0.000000
    6        8.979422      8.979429   0.000000   0.000000
    7        8.979469      8.979463   0.000000   0.000000
    8       13.206514     13.206456   0.000000   0.000000

  0.1262379E-14 -0.3333333E+00  0.3333333E+00  0.7407407E-01
    1       -4.846716     -4.846703   1.000000   1.000000
    2        0.295350      0.295349   1.000000   1.000000
    3        4.549214      4.549232   1.000000   1.000000
    4        4.549219      4.549243   1.000000   1.000000
    5        7.132210      7.132205   0.000000   0.000000
    6        8.979443      8.979418   0.000000   0.000000
    7        8.979470      8.979444   0.000000   0.000000
    8       13.206495     13.206471   0.000000   0.000000

  0.1262379E-14  0.1262379E-14  0.3333333E+00  0.7407407E-01
    1       -4.846712     -4.846706   1.000000   1.000000
    2        0.295335      0.295355   1.000000   1.000000
    3        4.549221      4.549226   1.000000   1.000000
    4        4.549230      4.549237   1.000000   1.000000
    5        7.132217      7.132204   0.000000   0.000000
    6        8.979406      8.979449   0.000000   0.000000
    7        8.979444      8.979481   0.000000   0.000000
    8       13.206544     13.206424   0.000000   0.000000

  0.3333333E+00  0.3333333E+00  0.1276756E-14  0.7407407E-01
    1       -4.846715     -4.846704   1.000000   1.000000
    2        0.295345      0.295351   1.000000   1.000000
    3        4.549221      4.549227   1.000000   1.000000
    4        4.549228      4.549236   1.000000   1.000000
    5        7.132201      7.132218   0.000000   0.000000
    6        8.979419      8.979438   0.000000   0.000000
    7        8.979455      8.979465   0.000000   0.000000
    8       13.206508     13.206459   0.000000   0.000000

  0.1262379E-14  0.3333333E+00  0.1249001E-14  0.7407407E-01
    1       -4.333833     -4.333823   1.000000   1.000000
    2        0.545974      0.545986   1.000000   1.000000
    3        3.182792      3.182799   1.000000   1.000000
    4        3.182798      3.182810   1.000000   1.000000
    5        6.275877      6.275879   0.000000   0.000000
    6        7.531274      7.531268   0.000000   0.000000
    7       12.592338     12.592340   0.000000   0.000000
    8       12.592369     12.592365   0.000000   0.000000

 -0.3333333E+00  0.1249001E-14 -0.3333333E+00  0.7407407E-01
    1       -4.333831     -4.333821   1.000000   1.000000
    2        0.545978      0.545990   1.000000   1.000000
    3        3.182783      3.182795   1.000000   1.000000
    4        3.182796      3.182810   1.000000   1.000000
    5        6.275882      6.275865   0.000000   0.000000
    6        7.531271      7.531268   0.000000   0.000000
    7       12.592333     12.592339   0.000000   0.000000
    8       12.592366     12.592375   0.000000   0.000000

 -0.3333333E+00 -0.3333333E+00  0.3333333E+00  0.7407407E-01
    1       -4.333831     -4.333821   1.000000   1.000000
    2        0.545979      0.545989   1.000000   1.000000
    3        3.182783      3.182800   1.000000   1.000000
    4        3.182791      3.182810   1.000000   1.000000
    5        6.275885      6.275862   0.000000   0.000000
    6        7.531275      7.531264   0.000000   0.000000
    7       12.592341     12.592351   0.000000   0.000000
    8       12.592361     12.592361   0.000000   0.000000

 -0.3333333E+00  0.3333333E+00  0.1332268E-14  0.7407407E-01
    1       -3.033018     -3.033007   1.000000   1.000000
    2       -1.148943     -1.148933   1.000000   1.000000
    3        1.275899      1.275906   1.000000   1.000000
    4        3.476363      3.476371   1.000000   1.000000
    5        7.092732      7.092739   0.000000   0.000000
    6       11.260116     11.260115   0.000000   0.000000
    7       11.827900     11.827897   0.000000   0.000000
    8       12.383832     12.383823   0.000000   0.000000

  0.3333333E+00  0.1276756E-14 -0.3333333E+00  0.7407407E-01
    1       -3.033011     -3.033009   1.000000   1.000000
    2       -1.148948     -1.148930   1.000000   1.000000
    3        1.275896      1.275911   1.000000   1.000000
    4        3.476355      3.476372   1.000000   1.000000
    5        7.092754      7.092711   0.000000   0.000000
    6       11.260095     11.260118   0.000000   0.000000
    7       11.827884     11.827908   0.000000   0.000000
    8       12.383844     12.383817   0.000000   0.000000

  0.3333333E+00 -0.3333333E+00  0.3333333E+00  0.7407407E-01
    1       -3.033019     -3.033005   1.000000   1.000000
    2       -1.148940     -1.148931   1.000000   1.000000
    3        1.275905      1.275904   1.000000   1.000000
    4        3.476353      3.476370   1.000000   1.000000
    5        7.092726      7.092731   0.000000   0.000000
    6       11.260135     11.260084   0.000000   0.000000
    7       11.827903     11.827892   0.000000   0.000000
    8       12.383824     12.383840   0.000000   0.000000

 -0.3333333E+00  0.3333333E+00  0.3333333E+00  0.7407407E-01
    1       -3.033023     -3.033003   1.000000   1.000000
    2       -1.148935     -1.148932   1.000000   1.000000
    3        1.275907      1.275903   1.000000   1.000000
    4        3.476358      3.476363   1.000000   1.000000
    5        7.092710      7.092745   0.000000   0.000000
    6       11.260142     11.260079   0.000000   0.000000
    7       11.827915     11.827881   0.000000   0.000000
    8       12.383799     12.383867   0.000000   0.000000

  0.1262379E-14 -0.3333333E+00 -0.3333333E+00  0.7407407E-01
    1       -3.033016     -3.033005   1.000000   1.000000
    2       -1.148946     -1.148934   1.000000   1.000000
    3        1.275902      1.275902   1.000000   1.000000
    4        3.476359      3.476373   1.000000   1.000000
    5        7.092736      7.092734   0.000000   0.000000
    6       11.260109     11.260126   0.000000   0.000000
    7       11.827903     11.827891   0.000000   0.000000
    8       12.383842     12.383814   0.000000   0.000000

  0.3333333E+00  0.3333333E+00  0.3333333E+00  0.7407407E-01
    1       -3.033015     -3.033007   1.000000   1.000000
    2       -1.148943     -1.148932   1.000000   1.000000
    3        1.275897      1.275911   1.000000   1.000000
    4        3.476355      3.476371   1.000000   1.000000
    5        7.092746      7.092717   0.000000   0.000000
    6       11.260102     11.260113   0.000000   0.000000
    7       11.827892     11.827901   0.000000   0.000000
    8       12.383824     12.383838   0.000000   0.000000
