Automatically generated mesh
      14
Reciprocal lattice
    0.00000000000000    0.00000000000000    0.00000000000000             1
    0.33333333333334    0.00000000000000    0.00000000000000             2
    0.00000000000000   -0.33333333333333    0.33333333333334             2
    0.00000000000000    0.00000000000000    0.33333333333334             2
    0.33333333333334    0.33333333333334    0.00000000000000             2
    0.00000000000000    0.33333333333334    0.00000000000000             2
   -0.33333333333333    0.00000000000000   -0.33333333333333             2
   -0.33333333333333   -0.33333333333333    0.33333333333334             2
   -0.33333333333333    0.33333333333334    0.00000000000000             2
    0.33333333333333    0.00000000000000   -0.33333333333333             2
    0.33333333333333   -0.33333333333333    0.33333333333334             2
   -0.33333333333333    0.33333333333334    0.33333333333333             2
    0.00000000000000   -0.33333333333333   -0.33333333333333             2
    0.33333333333334    0.33333333333334    0.33333333333333             2
Tetrahedra
        78    0.00617283950617
         2         1         2         4         5
         2         1         4         5         6
         2         4         5         6        13
         2         2         4         5         7
         2         4         5         7        14
         2         4         5        13        14
         2         2         2         7         9
         2         2         5         7         9
         2         5         7         9        14
         2         2         7         9        10
         2         7         9        10        12
         2         7         9        12        14
         2         1         2         6        10
         2         2         6         9        10
         2         6         9        10        12
         2         1         4         6        10
         2         4         6        10        13
         2         6        10        12        13
         2         5         6         9        13
         2         6         6         9        13
         2         3         6         9        13
         2         5         9        13        14
         2         9        11        13        14
         2         3         9        11        13
         4         5         5         9        14
         2         5         9        11        14
         2         5         9        12        14
         2         5         8        12        14
         2         5         8        11        14
         2         6         6         9        12
         2         5         6         9        12
         2         5         6         8        12
         2         6         6        12        13
         2         3         6        12        13
         2         3         6         8        12
         2         2         3         6         9
         2         1         2         3         6
         2         1         2         3         4
         2         2         3         9        11
         2         2         3         7        11
         2         2         3         4         7
         2         2         5         9        11
         2         2         2         9        11
         2         2         2         7        11
         2         2         5         8        11
         2         2         8        10        11
         2         2         7        10        11
         2         1         5         6         8
         2         1         2         5         8
         2         1         2         8        10
         2         1         3         6         8
         2         1         3         4         8
         2         1         4         8        10
         2         4         4         7        14
         2         4         4        13        14
         2         3         4        13        14
         2         4         7        10        14
         2         4         8        10        14
         2         3         4         8        14
         4         7        10        10        12
         2         7        10        12        14
         2         8        10        12        14
         2         7        10        11        12
         2         8        10        11        12
         2         4         7        10        13
         2         7        10        12        13
         2         7        11        12        13
         2         4         4         7        13
         2         3         4         7        13
         2         3         7        11        13
         2         3        11        13        14
         4         3         3        11        13
         2         3         8        11        14
         2         3         8        11        12
         2         3        11        12        13
         2         8         8        12        14
         2         8         8        11        14
         2         8         8        11        12
