 vasp.6.2.1 16May21 (build Jul  8 2021 12:17:16) complex                         
 executed on             LinuxGNU date 2021.09.24  12:56:57
 running   16 mpi-ranks, with    1 threads/rank
 distrk:  each k-point on   16 cores,    1 groups
 distr:  one band on NCORE=   4 cores,    4 groups


--------------------------------------------------------------------------------------------------------


 INCAR:
   ALGO = Normal
   EDIFF = 1e-06
   ENCUT = 520
   IBRION = -1
   ICHARG = 0
   ISIF = 3
   ISMEAR = -5
   ISPIN = 2
   ISYM = 0
   LASPH = True
   LORBIT = 11
   LREAL = Auto
   LWAVE = True
   MAGMOM = 2*-0.0
   NBANDS = 8
   NELM = 100
   NPAR = 4
   NSW = 0
   PREC = Accurate
   SIGMA = 0.05

 POTCAR:    PAW_PBE Si 05Jan2001                  
 POTCAR:    PAW_PBE Si 05Jan2001                  
   VRHFIN =Si: s2p2                                                                                 
   LEXCH  = PE                                                                                      
   EATOM  =   103.0669 eV,    7.5752 Ry                                                             
                                                                                                    
   TITEL  = PAW_PBE Si 05Jan2001                                                                    
   LULTRA =        F    use ultrasoft PP ?                                                          
   IUNSCR =        1    unscreen: 0-lin 1-nonlin 2-no                                               
   RPACOR =    1.500    partial core radius                                                         
   POMASS =   28.085; ZVAL   =    4.000    mass and valenz                                          
   RCORE  =    1.900    outmost cutoff radius                                                       
   RWIGS  =    2.480; RWIGS  =    1.312    wigner-seitz radius (au A)                               
   ENMAX  =  245.345; ENMIN  =  184.009 eV                                                          
   ICORE  =        2    local potential                                                             
   LCOR   =        T    correct aug charges                                                         
   LPAW   =        T    paw PP                                                                      
   EAUG   =  322.069                                                                                
   DEXC   =    0.000                                                                                
   RMAX   =    1.950    core radius for proj-oper                                                   
   RAUG   =    1.300    factor for augmentation sphere                                              
   RDEP   =    1.993    radius for radial grids                                                     
   RDEPT  =    1.837    core radius for aug-charge                                                  
                                                                                                    
   Atomic configuration                                                                             
    6 entries                                                                                       
     n  l   j            E        occ.                                                              
     1  0  0.50     -1785.8828   2.0000                                                             
     2  0  0.50      -139.4969   2.0000                                                             
     2  1  1.50       -95.5546   6.0000                                                             
     3  0  0.50       -10.8127   2.0000                                                             
     3  1  0.50        -4.0811   2.0000                                                             
     3  2  1.50        -4.0817   0.0000                                                             
   Description                                                                                      
     l       E           TYP  RCUT    TYP  RCUT                                                     
     0    -10.8127223     23  1.900                                                                 
     0     -7.6451159     23  1.900                                                                 
     1     -4.0811372     23  1.900                                                                 
     1      2.4879257     23  1.900                                                                 
     2     -4.0817478      7  1.900                                                                 
  local pseudopotential read in
  partial core-charges read in
  partial kinetic energy density read in
  atomic valenz-charges read in
  non local Contribution for L=           0  read in
    real space projection operators read in
  non local Contribution for L=           0  read in
    real space projection operators read in
  non local Contribution for L=           1  read in
    real space projection operators read in
  non local Contribution for L=           1  read in
    real space projection operators read in
    PAW grid and wavefunctions read in

   number of l-projection  operators is LMAX  =           4
   number of lm-projection operators is LMMAX =           8

 -----------------------------------------------------------------------------
|                                                                             |
|               ----> ADVICE to this user running VASP <----                  |
|                                                                             |
|     You have a (more or less) 'small supercell' and for smaller cells       |
|     it is recommended to use the reciprocal-space projection scheme!        |
|     The real-space optimization is not efficient for small cells and it     |
|     is also less accurate ...                                               |
|     Therefore, set LREAL=.FALSE. in the INCAR file.                         |
|                                                                             |
 -----------------------------------------------------------------------------

 Optimization of the real space projectors (new method)

 maximal supplied QI-value         = 19.84
 optimisation between [QCUT,QGAM] = [ 11.51, 23.22] = [ 37.09,150.92] Ry 
 Optimized for a Real-space Cutoff    1.21 Angstroem

   l    n(q)    QCUT    max X(q) W(low)/X(q) W(high)/X(q)  e(spline) 
   0      8    11.508   159.560    0.71E-04    0.15E-03    0.51E-07
   0      8    11.508   115.863    0.70E-04    0.15E-03    0.51E-07
   1      8    11.508    88.339    0.16E-03    0.38E-04    0.82E-07
   1      8    11.508    48.592    0.15E-03    0.36E-04    0.79E-07
  PAW_PBE Si 05Jan2001                  :
 energy of atom  1       EATOM= -103.0669
 kinetic energy error for atom=    0.0005 (will be added to EATOM!!)


 POSCAR: Si2
  positions in direct lattice
  No initial velocities read in
 exchange correlation table for  LEXCH =        8
   RHO(1)=    0.500       N(1)  =     2000
   RHO(2)=  100.500       N(2)  =     4000



--------------------------------------------------------------------------------------------------------


 ion  position               nearest neighbor table
   1  0.000  0.000  0.000-   2 2.38   2 2.38   2 2.38   2 2.38
   2  0.750  0.500  0.750-   1 2.38   1 2.38   1 2.38   1 2.38


IMPORTANT INFORMATION: All symmetrisations will be switched off!
NOSYMM: (Re-)initialisation of all symmetry stuff for point group C_1.


----------------------------------------------------------------------------------------

                                     Primitive cell                                     

  volume of cell :      41.7127

  direct lattice vectors                    reciprocal lattice vectors
     3.892790000  0.000000000 -0.000000000     0.256885165 -0.148312676 -0.104872827
     1.946395000  3.371256000  0.000000000     0.000000000  0.296625353  0.209745654
    -0.000000000 -2.247502000  3.178450000     0.000000000 -0.000000000  0.314618761

  length of vectors
     3.892790000  3.892790839  3.892789442     0.314618734  0.363290296  0.314618761

  position of ions in fractional coordinates (direct lattice)
     0.000000000  0.000000000  0.000000000
     0.750000000  0.500000000  0.750000000

  ion indices of the primitive-cell ions
   primitive index   ion index
                 1           1
                 2           2

----------------------------------------------------------------------------------------



 KPOINTS: pymatgen v2020.11.11 with grid density =

Automatic generation of k-mesh.
 Grid dimensions read from file:
 generate k-points for:    3    3    3

 Generating k-lattice:

  Cartesian coordinates                     Fractional coordinates (reciprocal lattice)
     0.085628388 -0.049437559 -0.034957609     0.333333333  0.000000000  0.000000000
     0.000000000  0.098875118  0.069915218     0.000000000  0.333333333  0.000000000
     0.000000000 -0.000000000  0.104872920     0.000000000  0.000000000  0.333333333

  Length of vectors
     0.104872911  0.121096765  0.104872920

  Shift w.r.t. Gamma in fractional coordinates (k-lattice)
     0.000000000  0.000000000  0.000000000

 TETIRR: Found     78 inequivalent tetrahedra from      162
 
 Subroutine IBZKPT returns following result:
 ===========================================
 
 Found     14 irreducible k-points:
 
 Following reciprocal coordinates:
            Coordinates               Weight
  0.000000  0.000000  0.000000      1.000000
  0.333333  0.000000  0.000000      2.000000
  0.000000 -0.333333  0.333333      2.000000
  0.000000  0.000000  0.333333      2.000000
  0.333333  0.333333  0.000000      2.000000
  0.000000  0.333333  0.000000      2.000000
 -0.333333  0.000000 -0.333333      2.000000
 -0.333333 -0.333333  0.333333      2.000000
 -0.333333  0.333333  0.000000      2.000000
  0.333333  0.000000 -0.333333      2.000000
  0.333333 -0.333333  0.333333      2.000000
 -0.333333  0.333333  0.333333      2.000000
  0.000000 -0.333333 -0.333333      2.000000
  0.333333  0.333333  0.333333      2.000000
 
 Following cartesian coordinates:
            Coordinates               Weight
  0.000000  0.000000  0.000000      1.000000
  0.085628 -0.049438 -0.034958      2.000000
  0.000000 -0.098875  0.034958      2.000000
  0.000000  0.000000  0.104873      2.000000
  0.085628  0.049438  0.034958      2.000000
  0.000000  0.098875  0.069915      2.000000
 -0.085628  0.049438 -0.069915      2.000000
 -0.085628 -0.049438  0.069915      2.000000
 -0.085628  0.148313  0.104873      2.000000
  0.085628 -0.049438 -0.139831      2.000000
  0.085628 -0.148313  0.000000      2.000000
 -0.085628  0.148313  0.209746      2.000000
  0.000000 -0.098875 -0.174788      2.000000
  0.085628  0.049438  0.139831      2.000000
 


--------------------------------------------------------------------------------------------------------




 Dimension of arrays:
   k-points           NKPTS =     14   k-points in BZ     NKDIM =     14   number of bands    NBANDS=      8
   number of dos      NEDOS =    301   number of ions     NIONS =      2
   non local maximal  LDIM  =      4   non local SUM 2l+1 LMDIM =      8
   total plane-waves  NPLWV =  27000
   max r-space proj   IRMAX =   4862   max aug-charges    IRDMAX=  21839
   dimension x,y,z NGX =    30 NGY =   30 NGZ =   30
   dimension x,y,z NGXF=    60 NGYF=   60 NGZF=   60
   support grid    NGXF=    60 NGYF=   60 NGZF=   60
   ions per type =               2
   NGX,Y,Z   is equivalent  to a cutoff of  12.81, 12.81, 12.81 a.u.
   NGXF,Y,Z  is equivalent  to a cutoff of  25.62, 25.62, 25.62 a.u.

 SYSTEM =  unknown system                          
 POSCAR =  Si2                                     

 Startparameter for this run:
   NWRITE =      2    write-flag & timer
   PREC   = accura    normal or accurate (medium, high low for compatibility)
   ISTART =      0    job   : 0-new  1-cont  2-samecut
   ICHARG =      0    charge: 1-file 2-atom 10-const
   ISPIN  =      2    spin polarized calculation?
   LNONCOLLINEAR =      F non collinear calculations
   LSORBIT =      F    spin-orbit coupling
   INIWAV =      1    electr: 0-lowe 1-rand  2-diag
   LASPH  =      T    aspherical Exc in radial PAW
 Electronic Relaxation 1
   ENCUT  =  520.0 eV  38.22 Ry    6.18 a.u.   7.24  7.24  7.24*2*pi/ulx,y,z
   ENINI  =  520.0     initial cutoff
   ENAUG  =  322.1 eV  augmentation charge cutoff
   NELM   =    100;   NELMIN=  2; NELMDL= -5     # of ELM steps 
   EDIFF  = 0.1E-05   stopping-criterion for ELM
   LREAL  =      T    real-space projection
   NLSPLINE    = F    spline interpolate recip. space projectors
   LCOMPAT=      F    compatible to vasp.4.4
   GGA_COMPAT  = T    GGA compatible to vasp.4.4-vasp.4.6
   LMAXPAW     = -100 max onsite density
   LMAXMIX     =    2 max onsite mixed and CHGCAR
   VOSKOWN=      0    Vosko Wilk Nusair interpolation
   ROPT   =   -0.00025
 Ionic relaxation
   EDIFFG = 0.1E-04   stopping-criterion for IOM
   NSW    =      0    number of steps for IOM
   NBLOCK =      1;   KBLOCK =      1    inner block; outer block 
   IBRION =     -1    ionic relax: 0-MD 1-quasi-New 2-CG
   NFREE  =      0    steps in history (QN), initial steepest desc. (CG)
   ISIF   =      3    stress and relaxation
   IWAVPR =     10    prediction:  0-non 1-charg 2-wave 3-comb
   ISYM   =      0    0-nonsym 1-usesym 2-fastsym
   LCORR  =      T    Harris-Foulkes like correction to forces

   POTIM  = 0.5000    time-step for ionic-motion
   TEIN   =    0.0    initial temperature
   TEBEG  =    0.0;   TEEND  =   0.0 temperature during run
   SMASS  =  -3.00    Nose mass-parameter (am)
   estimated Nose-frequenzy (Omega)   =  0.10E-29 period in steps = 0.13E+47 mass=  -0.346E-27a.u.
   SCALEE = 1.0000    scale energy and forces
   NPACO  =    256;   APACO  = 16.0  distance and # of slots for P.C.
   PSTRESS=    0.0 pullay stress

  Mass of Ions in am
   POMASS =  28.09
  Ionic Valenz
   ZVAL   =   4.00
  Atomic Wigner-Seitz radii
   RWIGS  =  -1.00
  virtual crystal weights 
   VCA    =   1.00
   NELECT =       8.0000    total number of electrons
   NUPDOWN=      -1.0000    fix difference up-down

 DOS related values:
   EMIN   =  10.00;   EMAX   =-10.00  energy-range for DOS
   EFERMI =   0.00
   ISMEAR =    -5;   SIGMA  =   0.05  broadening in eV -4-tet -1-fermi 0-gaus

 Electronic relaxation 2 (details)
   IALGO  =     38    algorithm
   LDIAG  =      T    sub-space diagonalisation (order eigenvalues)
   LSUBROT=      F    optimize rotation matrix (better conditioning)
   TURBO    =      0    0=normal 1=particle mesh
   IRESTART =      0    0=no restart 2=restart with 2 vectors
   NREBOOT  =      0    no. of reboots
   NMIN     =      0    reboot dimension
   EREF     =   0.00    reference energy to select bands
   IMIX   =      4    mixing-type and parameters
     AMIX     =   0.40;   BMIX     =  1.00
     AMIX_MAG =   1.60;   BMIX_MAG =  1.00
     AMIN     =   0.10
     WC   =   100.;   INIMIX=   1;  MIXPRE=   1;  MAXMIX= -45

 Intra band minimization:
   WEIMIN = 0.0000     energy-eigenvalue tresh-hold
   EBREAK =  0.31E-07  absolut break condition
   DEPER  =   0.30     relativ break condition  

   TIME   =   0.40     timestep for ELM

  volume/ion in A,a.u.               =      20.86       140.75
  Fermi-wavevector in a.u.,A,eV,Ry     =   0.944094  1.784080 12.127069  0.891314
  Thomas-Fermi vector in A             =   2.071866

 Write flags
   LWAVE        =      T    write WAVECAR
   LDOWNSAMPLE  =      F    k-point downsampling of WAVECAR
   LCHARG       =      T    write CHGCAR
   LVTOT        =      F    write LOCPOT, total local potential
   LVHAR        =      F    write LOCPOT, Hartree potential only
   LELF         =      F    write electronic localiz. function (ELF)
   LORBIT       =     11    0 simple, 1 ext, 2 COOP (PROOUT), +10 PAW based schemes


 Dipole corrections
   LMONO  =      F    monopole corrections only (constant potential shift)
   LDIPOL =      F    correct potential (dipole corrections)
   IDIPOL =      0    1-x, 2-y, 3-z, 4-all directions 
   EPSILON=  1.0000000 bulk dielectric constant

 Exchange correlation treatment:
   GGA     =    --    GGA type
   LEXCH   =     8    internal setting for exchange type
   VOSKOWN=      0    Vosko Wilk Nusair interpolation
   LHFCALC =     F    Hartree Fock is set to
   LHFONE  =     F    Hartree Fock one center treatment
   AEXX    =    0.0000 exact exchange contribution

 Linear response parameters
   LEPSILON=     F    determine dielectric tensor
   LRPA    =     F    only Hartree local field effects (RPA)
   LNABLA  =     F    use nabla operator in PAW spheres
   LVEL    =     F    velocity operator in full k-point grid
   LINTERFAST=   F  fast interpolation
   KINTER  =     0    interpolate to denser k-point grid
   CSHIFT  =0.1000    complex shift for real part using Kramers Kronig
   OMEGAMAX=  -1.0    maximum frequency
   DEG_THRESHOLD= 0.2000000E-02 threshold for treating states as degnerate
   RTIME   =   -0.100 relaxation time in fs
  (WPLASMAI=    0.000 imaginary part of plasma frequency in eV, 0.658/RTIME)
   DFIELD  = 0.0000000 0.0000000 0.0000000 field for delta impulse in time

 Orbital magnetization related:
   ORBITALMAG=     F  switch on orbital magnetization
   LCHIMAG   =     F  perturbation theory with respect to B field
   DQ        =  0.001000  dq finite difference perturbation B field
   LLRAUG    =     F  two centre corrections for induced B field



--------------------------------------------------------------------------------------------------------


 Static calculation
 charge density and potential will be updated during run
 spin polarized calculation
 Variant of blocked Davidson
 Davidson routine will perform the subspace rotation
 perform sub-space diagonalisation
    after iterative eigenvector-optimisation
 modified Broyden-mixing scheme, WC =      100.0
 initial mixing is a Kerker type mixing with AMIX =  0.4000 and BMIX =      1.0000
 Hartree-type preconditioning will be used
 using additional bands            4
 real space projection scheme for non local part
 use partial core corrections
 calculate Harris-corrections to forces   (improved forces if not selfconsistent)
 use gradient corrections 
 use of overlap-Matrix (Vanderbilt PP)
 Fermi weights with tetrahedron method with Bloechl corrections


--------------------------------------------------------------------------------------------------------


  energy-cutoff  :      520.00
  volume of cell :       41.71
      direct lattice vectors                 reciprocal lattice vectors
     3.892790000  0.000000000 -0.000000000     0.256885165 -0.148312676 -0.104872827
     1.946395000  3.371256000  0.000000000     0.000000000  0.296625353  0.209745654
    -0.000000000 -2.247502000  3.178450000     0.000000000 -0.000000000  0.314618761

  length of vectors
     3.892790000  3.892790839  3.892789442     0.314618734  0.363290296  0.314618761



 k-points in units of 2pi/SCALE and weight: pymatgen v2020.11.11 with grid density =
   0.00000000  0.00000000  0.00000000       0.037
   0.08562839 -0.04943756 -0.03495761       0.074
   0.00000000 -0.09887512  0.03495770       0.074
   0.00000000  0.00000000  0.10487292       0.074
   0.08562839  0.04943756  0.03495761       0.074
   0.00000000  0.09887512  0.06991522       0.074
  -0.08562839  0.04943756 -0.06991531       0.074
  -0.08562839 -0.04943756  0.06991531       0.074
  -0.08562839  0.14831268  0.10487283       0.074
   0.08562839 -0.04943756 -0.13983053       0.074
   0.08562839 -0.14831268  0.00000009       0.074
  -0.08562839  0.14831268  0.20974575       0.074
   0.00000000 -0.09887512 -0.17478814       0.074
   0.08562839  0.04943756  0.13983053       0.074

 k-points in reciprocal lattice and weights: pymatgen v2020.11.11 with grid density =
   0.00000000  0.00000000  0.00000000       0.037
   0.33333333  0.00000000  0.00000000       0.074
   0.00000000 -0.33333333  0.33333333       0.074
   0.00000000  0.00000000  0.33333333       0.074
   0.33333333  0.33333333  0.00000000       0.074
   0.00000000  0.33333333  0.00000000       0.074
  -0.33333333  0.00000000 -0.33333333       0.074
  -0.33333333 -0.33333333  0.33333333       0.074
  -0.33333333  0.33333333  0.00000000       0.074
   0.33333333  0.00000000 -0.33333333       0.074
   0.33333333 -0.33333333  0.33333333       0.074
  -0.33333333  0.33333333  0.33333333       0.074
   0.00000000 -0.33333333 -0.33333333       0.074
   0.33333333  0.33333333  0.33333333       0.074

 position of ions in fractional coordinates (direct lattice) 
   0.00000000  0.00000000  0.00000000
   0.75000000  0.50000000  0.75000000

 position of ions in cartesian coordinates  (Angst):
   0.00000000  0.00000000  0.00000000
   3.89279000  0.00000150  2.38383750



--------------------------------------------------------------------------------------------------------


 k-point   1 :   0.0000 0.0000 0.0000  plane waves:    1139
 k-point   2 :   0.3333 0.0000 0.0000  plane waves:    1131
 k-point   3 :   0.0000-0.3333 0.3333  plane waves:    1131
 k-point   4 :   0.0000 0.0000 0.3333  plane waves:    1131
 k-point   5 :   0.3333 0.3333 0.0000  plane waves:    1131
 k-point   6 :   0.0000 0.3333 0.0000  plane waves:    1118
 k-point   7 :  -0.3333 0.0000-0.3333  plane waves:    1118
 k-point   8 :  -0.3333-0.3333 0.3333  plane waves:    1118
 k-point   9 :  -0.3333 0.3333 0.0000  plane waves:    1125
 k-point  10 :   0.3333 0.0000-0.3333  plane waves:    1125
 k-point  11 :   0.3333-0.3333 0.3333  plane waves:    1125
 k-point  12 :  -0.3333 0.3333 0.3333  plane waves:    1125
 k-point  13 :   0.0000-0.3333-0.3333  plane waves:    1125
 k-point  14 :   0.3333 0.3333 0.3333  plane waves:    1125

 maximum and minimum number of plane-waves per node :       301      268

 maximum number of plane-waves:      1139
 maximum index in each direction: 
   IXMAX=    7   IYMAX=    7   IZMAX=    7
   IXMIN=   -7   IYMIN=   -7   IZMIN=   -7


 real space projection operators:
  total allocation   :        582.19 KBytes
  max/ min on nodes  :        162.38        128.19


 parallel 3D FFT for wavefunctions:
    minimum data exchange during FFTs selected (reduces bandwidth)
 parallel 3D FFT for charge:
    minimum data exchange during FFTs selected (reduces bandwidth)


 total amount of memory used by VASP MPI-rank0    32995. kBytes
=======================================================================

   base      :      30000. kBytes
   nonlr-proj:        363. kBytes
   fftplans  :        700. kBytes
   grid      :       1647. kBytes
   one-center:          6. kBytes
   wavefun   :        279. kBytes

     INWAV:  cpu time    0.0000: real time    0.0000
 Broyden mixing: mesh for mixing (old mesh)
   NGX = 15   NGY = 15   NGZ = 15
  (NGX  = 60   NGY  = 60   NGZ  = 60)
  gives a total of   3375 points

 charge density for first step will be calculated from the start-wavefunctions


--------------------------------------------------------------------------------------------------------


 Maximum index for non-local projection operator         1343
 Maximum index for augmentation-charges         1571 (set IRDMAX)


--------------------------------------------------------------------------------------------------------


 initial charge from wavefunction
 First call to EWALD:  gamma=   0.511
 Maximum number of real-space cells 3x 3x 3
 Maximum number of reciprocal cells 3x 3x 3

    FEWALD:  cpu time    0.0014: real time    0.0014


--------------------------------------- Iteration      1(   1)  ---------------------------------------


    POTLOK:  cpu time    0.0338: real time    0.0339
    SETDIJ:  cpu time    0.5153: real time    0.5154
     EDDAV:  cpu time    0.1540: real time    0.1542
 BZINTS: Fermi energy:    8.627949;    8.000000 electrons
         Band energy: 0.673626E+01;  BLOECHL correction:   -0.104375
       DOS:  cpu time    0.0035: real time    0.0035
    --------------------------------------------
      LOOP:  cpu time    0.7067: real time    0.7070

 eigenvalue-minimisations  :   448
 total energy-change (2. order) :-0.9415309E+01  (-0.3603111E+03)
 number of electron       8.0000002 magnetization       0.0000000
 augmentation part       -1.1978071 magnetization      -0.0115132

 Free energy of the ion-electron system (eV)
  ---------------------------------------------------
  alpha Z        PSCENC =         3.22809572
  Ewald energy   TEWEN  =      -225.43987080
  -Hartree energ DENC   =       -20.11959436
  -exchange      EXHF   =         0.00000000
  -V(xc)+E(xc)   XCENC  =       -17.49904891
  PAW double counting   =  35800289.59955698-35800252.05340831
  entropy T*S    EENTRO =         0.00000000
  eigenvalues    EBANDS =         6.73625790
  atomic energy  EATOM  =       206.13270273
  Solvation  Ediel_sol  =         0.00000000
  ---------------------------------------------------
  free energy    TOTEN  =        -9.41530903 eV

  energy without entropy =       -9.41530903  energy(sigma->0) =       -9.41530903


--------------------------------------------------------------------------------------------------------




--------------------------------------- Iteration      1(   2)  ---------------------------------------


     EDDAV:  cpu time    0.2123: real time    0.2146
 BZINTS: Fermi energy:    2.200468;    8.000000 electrons
         Band energy:-0.162901E+02;  BLOECHL correction:    0.000000
       DOS:  cpu time    0.0018: real time    0.0018
    --------------------------------------------
      LOOP:  cpu time    0.2141: real time    0.2164

 eigenvalue-minimisations  :   648
 total energy-change (2. order) :-0.2302634E+02  (-0.2293896E+02)
 number of electron       8.0000002 magnetization       0.0000000
 augmentation part       -1.1978071 magnetization      -0.0115132

 Free energy of the ion-electron system (eV)
  ---------------------------------------------------
  alpha Z        PSCENC =         3.22809572
  Ewald energy   TEWEN  =      -225.43987080
  -Hartree energ DENC   =       -20.11959436
  -exchange      EXHF   =         0.00000000
  -V(xc)+E(xc)   XCENC  =       -17.49904891
  PAW double counting   =  35800289.59955698-35800252.05340831
  entropy T*S    EENTRO =         0.00000000
  eigenvalues    EBANDS =       -16.29007909
  atomic energy  EATOM  =       206.13270273
  Solvation  Ediel_sol  =         0.00000000
  ---------------------------------------------------
  free energy    TOTEN  =       -32.44164603 eV

  energy without entropy =      -32.44164603  energy(sigma->0) =      -32.44164603


--------------------------------------------------------------------------------------------------------




--------------------------------------- Iteration      1(   3)  ---------------------------------------


     EDDAV:  cpu time    0.2302: real time    0.2304
 BZINTS: Fermi energy:    2.132665;    8.000000 electrons
         Band energy:-0.167346E+02;  BLOECHL correction:    0.000000
       DOS:  cpu time    0.0018: real time    0.0018
    --------------------------------------------
      LOOP:  cpu time    0.2320: real time    0.2322

 eigenvalue-minimisations  :   632
 total energy-change (2. order) :-0.4444768E+00  (-0.4444768E+00)
 number of electron       8.0000002 magnetization       0.0000000
 augmentation part       -1.1978071 magnetization      -0.0115132

 Free energy of the ion-electron system (eV)
  ---------------------------------------------------
  alpha Z        PSCENC =         3.22809572
  Ewald energy   TEWEN  =      -225.43987080
  -Hartree energ DENC   =       -20.11959436
  -exchange      EXHF   =         0.00000000
  -V(xc)+E(xc)   XCENC  =       -17.49904891
  PAW double counting   =  35800289.59955698-35800252.05340831
  entropy T*S    EENTRO =         0.00000000
  eigenvalues    EBANDS =       -16.73455593
  atomic energy  EATOM  =       206.13270273
  Solvation  Ediel_sol  =         0.00000000
  ---------------------------------------------------
  free energy    TOTEN  =       -32.88612287 eV

  energy without entropy =      -32.88612287  energy(sigma->0) =      -32.88612287


--------------------------------------------------------------------------------------------------------




--------------------------------------- Iteration      1(   4)  ---------------------------------------


     EDDAV:  cpu time    0.2360: real time    0.2362
 BZINTS: Fermi energy:    2.131522;    8.000000 electrons
         Band energy:-0.167372E+02;  BLOECHL correction:   -0.000000
       DOS:  cpu time    0.0018: real time    0.0018
    --------------------------------------------
      LOOP:  cpu time    0.2378: real time    0.2380

 eigenvalue-minimisations  :   720
 total energy-change (2. order) :-0.2623193E-02  (-0.2623188E-02)
 number of electron       8.0000002 magnetization       0.0000000
 augmentation part       -1.1978071 magnetization      -0.0115132

 Free energy of the ion-electron system (eV)
  ---------------------------------------------------
  alpha Z        PSCENC =         3.22809572
  Ewald energy   TEWEN  =      -225.43987080
  -Hartree energ DENC   =       -20.11959436
  -exchange      EXHF   =         0.00000000
  -V(xc)+E(xc)   XCENC  =       -17.49904891
  PAW double counting   =  35800289.59955698-35800252.05340831
  entropy T*S    EENTRO =         0.00000000
  eigenvalues    EBANDS =       -16.73717913
  atomic energy  EATOM  =       206.13270273
  Solvation  Ediel_sol  =         0.00000000
  ---------------------------------------------------
  free energy    TOTEN  =       -32.88874606 eV

  energy without entropy =      -32.88874606  energy(sigma->0) =      -32.88874606


--------------------------------------------------------------------------------------------------------




--------------------------------------- Iteration      1(   5)  ---------------------------------------


     EDDAV:  cpu time    0.2107: real time    0.2109
 BZINTS: Fermi energy:    2.131802;    8.000000 electrons
         Band energy:-0.167372E+02;  BLOECHL correction:   -0.000000
       DOS:  cpu time    0.0018: real time    0.0018
    CHARGE:  cpu time    0.0093: real time    0.0093
    MIXING:  cpu time    0.0006: real time    0.0006
    --------------------------------------------
      LOOP:  cpu time    0.2223: real time    0.2225

 eigenvalue-minimisations  :   640
 total energy-change (2. order) :-0.1654029E-05  (-0.1660153E-05)
 number of electron       8.0000001 magnetization      -0.0000000
 augmentation part       -0.5283302 magnetization      -0.0006366

 Broyden mixing:
  rms(total) = 0.33578E+03    rms(broyden)= 0.33578E+03
  rms(prec ) = 0.33584E+03
  weight for this iteration     100.00

 Free energy of the ion-electron system (eV)
  ---------------------------------------------------
  alpha Z        PSCENC =         3.22809572
  Ewald energy   TEWEN  =      -225.43987080
  -Hartree energ DENC   =       -20.11959436
  -exchange      EXHF   =         0.00000000
  -V(xc)+E(xc)   XCENC  =       -17.49904891
  PAW double counting   =  35800289.59955698-35800252.05340831
  entropy T*S    EENTRO =         0.00000000
  eigenvalues    EBANDS =       -16.73718078
  atomic energy  EATOM  =       206.13270273
  Solvation  Ediel_sol  =         0.00000000
  ---------------------------------------------------
  free energy    TOTEN  =       -32.88874772 eV

  energy without entropy =      -32.88874772  energy(sigma->0) =      -32.88874772


--------------------------------------------------------------------------------------------------------




--------------------------------------- Iteration      1(   6)  ---------------------------------------


    POTLOK:  cpu time    0.0328: real time    0.0328
    SETDIJ:  cpu time    0.5119: real time    0.5120
     EDDAV:  cpu time    0.1524: real time    0.1525
 BZINTS: Fermi energy:    3.909796;    8.000000 electrons
         Band energy:-0.540675E+01;  BLOECHL correction:   -0.000000
       DOS:  cpu time    0.0019: real time    0.0019
    CHARGE:  cpu time    0.0096: real time    0.0096
    MIXING:  cpu time    0.0006: real time    0.0006
    --------------------------------------------
      LOOP:  cpu time    0.7092: real time    0.7094

 eigenvalue-minimisations  :   448
 total energy-change (2. order) : 0.1750028E+02  (-0.2502586E+01)
 number of electron       8.0000001 magnetization       0.0000000
 augmentation part       -0.4630788 magnetization       0.0001486

 Broyden mixing:
  rms(total) = 0.20185E+03    rms(broyden)= 0.20185E+03
  rms(prec ) = 0.20188E+03
  weight for this iteration     100.00

 eigenvalues of (default mixing * dielectric matrix)
  average eigenvalue GAMMA=   2.4957
  2.4957

 Free energy of the ion-electron system (eV)
  ---------------------------------------------------
  alpha Z        PSCENC =         3.22809572
  Ewald energy   TEWEN  =      -225.43987080
  -Hartree energ DENC   =       -11.15430343
  -exchange      EXHF   =         0.00000000
  -V(xc)+E(xc)   XCENC  =       -18.74097882
  PAW double counting   =  13004050.51850411-13004014.52586723
  entropy T*S    EENTRO =         0.00000000
  eigenvalues    EBANDS =        -5.40674979
  atomic energy  EATOM  =       206.13270273
  Solvation  Ediel_sol  =         0.00000000
  ---------------------------------------------------
  free energy    TOTEN  =       -15.38846751 eV

  energy without entropy =      -15.38846751  energy(sigma->0) =      -15.38846751


--------------------------------------------------------------------------------------------------------




--------------------------------------- Iteration      1(   7)  ---------------------------------------


    POTLOK:  cpu time    0.0331: real time    0.0334
    SETDIJ:  cpu time    0.5122: real time    0.5123
     EDDAV:  cpu time    0.1698: real time    0.1702
 BZINTS: Fermi energy:    5.531511;    8.000000 electrons
         Band energy: 0.536146E+01;  BLOECHL correction:   -0.000000
       DOS:  cpu time    0.0019: real time    0.0020
    CHARGE:  cpu time    0.0088: real time    0.0089
    MIXING:  cpu time    0.0005: real time    0.0005
    --------------------------------------------
      LOOP:  cpu time    0.7263: real time    0.7272

 eigenvalue-minimisations  :   512
 total energy-change (2. order) : 0.4889702E+01  (-0.1960192E+01)
 number of electron       8.0000001 magnetization       0.0000000
 augmentation part       -0.4370784 magnetization      -0.0002290

 Broyden mixing:
  rms(total) = 0.59534E+01    rms(broyden)= 0.59534E+01
  rms(prec ) = 0.60653E+01
  weight for this iteration     100.00

 eigenvalues of (default mixing * dielectric matrix)
  average eigenvalue GAMMA=   1.5661
  0.6250  2.5073

 Free energy of the ion-electron system (eV)
  ---------------------------------------------------
  alpha Z        PSCENC =         3.22809572
  Ewald energy   TEWEN  =      -225.43987080
  -Hartree energ DENC   =       -16.55742342
  -exchange      EXHF   =         0.00000000
  -V(xc)+E(xc)   XCENC  =       -18.07078348
  PAW double counting   =       463.38749243     -428.54043695
  entropy T*S    EENTRO =         0.00000000
  eigenvalues    EBANDS =         5.36145839
  atomic energy  EATOM  =       206.13270273
  Solvation  Ediel_sol  =         0.00000000
  ---------------------------------------------------
  free energy    TOTEN  =       -10.49876538 eV

  energy without entropy =      -10.49876538  energy(sigma->0) =      -10.49876538


--------------------------------------------------------------------------------------------------------




--------------------------------------- Iteration      1(   8)  ---------------------------------------


    POTLOK:  cpu time    0.0319: real time    0.0320
    SETDIJ:  cpu time    0.4970: real time    0.4971
     EDDAV:  cpu time    0.2953: real time    0.3180
 BZINTS: Fermi energy:    5.520580;    8.000000 electrons
         Band energy: 0.510872E+01;  BLOECHL correction:   -0.000000
       DOS:  cpu time    0.0020: real time    0.0020
    CHARGE:  cpu time    0.0092: real time    0.0092
    MIXING:  cpu time    0.0005: real time    0.0005
    --------------------------------------------
      LOOP:  cpu time    0.8359: real time    0.8587

 eigenvalue-minimisations  :   640
 total energy-change (2. order) : 0.1090191E+00  (-0.1257971E+00)
 number of electron       8.0000001 magnetization      -0.0000000
 augmentation part       -0.4422209 magnetization      -0.0001240

 Broyden mixing:
  rms(total) = 0.46755E+00    rms(broyden)= 0.46755E+00
  rms(prec ) = 0.80646E+00
  weight for this iteration     100.00

 eigenvalues of (default mixing * dielectric matrix)
  average eigenvalue GAMMA=   1.3922
  2.5081  1.0441  0.6243

 Free energy of the ion-electron system (eV)
  ---------------------------------------------------
  alpha Z        PSCENC =         3.22809572
  Ewald energy   TEWEN  =      -225.43987080
  -Hartree energ DENC   =       -16.19599058
  -exchange      EXHF   =         0.00000000
  -V(xc)+E(xc)   XCENC  =       -18.11806537
  PAW double counting   =       990.56996618     -955.67530549
  entropy T*S    EENTRO =         0.00000000
  eigenvalues    EBANDS =         5.10872131
  atomic energy  EATOM  =       206.13270273
  Solvation  Ediel_sol  =         0.00000000
  ---------------------------------------------------
  free energy    TOTEN  =       -10.38974630 eV

  energy without entropy =      -10.38974630  energy(sigma->0) =      -10.38974630


--------------------------------------------------------------------------------------------------------




--------------------------------------- Iteration      1(   9)  ---------------------------------------


    POTLOK:  cpu time    0.0374: real time    0.0376
    SETDIJ:  cpu time    0.4967: real time    0.4994
     EDDAV:  cpu time    0.1656: real time    0.1658
 BZINTS: Fermi energy:    5.521036;    8.000000 electrons
         Band energy: 0.504890E+01;  BLOECHL correction:   -0.000000
       DOS:  cpu time    0.0019: real time    0.0020
    CHARGE:  cpu time    0.0088: real time    0.0088
    MIXING:  cpu time    0.0005: real time    0.0005
    --------------------------------------------
      LOOP:  cpu time    0.7110: real time    0.7141

 eigenvalue-minimisations  :   496
 total energy-change (2. order) : 0.1572177E+00  (-0.9820696E-01)
 number of electron       8.0000001 magnetization       0.0000000
 augmentation part       -0.4436598 magnetization      -0.0000000

 Broyden mixing:
  rms(total) = 0.13297E+00    rms(broyden)= 0.13297E+00
  rms(prec ) = 0.15560E+00
  weight for this iteration     100.00

 eigenvalues of (default mixing * dielectric matrix)
  average eigenvalue GAMMA=   1.4570
  2.5062  0.6245  1.2800  1.4175

 Free energy of the ion-electron system (eV)
  ---------------------------------------------------
  alpha Z        PSCENC =         3.22809572
  Ewald energy   TEWEN  =      -225.43987080
  -Hartree energ DENC   =       -16.04125459
  -exchange      EXHF   =         0.00000000
  -V(xc)+E(xc)   XCENC  =       -18.10358188
  PAW double counting   =       857.66758986     -822.72510777
  entropy T*S    EENTRO =         0.00000000
  eigenvalues    EBANDS =         5.04889811
  atomic energy  EATOM  =       206.13270273
  Solvation  Ediel_sol  =         0.00000000
  ---------------------------------------------------
  free energy    TOTEN  =       -10.23252862 eV

  energy without entropy =      -10.23252862  energy(sigma->0) =      -10.23252862


--------------------------------------------------------------------------------------------------------




--------------------------------------- Iteration      1(  10)  ---------------------------------------


    POTLOK:  cpu time    0.0316: real time    0.0317
    SETDIJ:  cpu time    0.4917: real time    0.4918
     EDDAV:  cpu time    0.2307: real time    0.2310
 BZINTS: Fermi energy:    5.516046;    8.000000 electrons
         Band energy: 0.503349E+01;  BLOECHL correction:   -0.000000
       DOS:  cpu time    0.0020: real time    0.0020
    CHARGE:  cpu time    0.0088: real time    0.0088
    MIXING:  cpu time    0.0005: real time    0.0005
    --------------------------------------------
      LOOP:  cpu time    0.7653: real time    0.7657

 eigenvalue-minimisations  :   696
 total energy-change (2. order) :-0.9607167E-02  (-0.3315659E-02)
 number of electron       8.0000001 magnetization      -0.0000000
 augmentation part       -0.4440649 magnetization       0.0000027

 Broyden mixing:
  rms(total) = 0.41540E-01    rms(broyden)= 0.41540E-01
  rms(prec ) = 0.61676E-01
  weight for this iteration     100.00

 eigenvalues of (default mixing * dielectric matrix)
  average eigenvalue GAMMA=   1.3677
  2.5058  1.4903  1.3186  0.6245  0.8992

 Free energy of the ion-electron system (eV)
  ---------------------------------------------------
  alpha Z        PSCENC =         3.22809572
  Ewald energy   TEWEN  =      -225.43987080
  -Hartree energ DENC   =       -16.07116884
  -exchange      EXHF   =         0.00000000
  -V(xc)+E(xc)   XCENC  =       -18.08598980
  PAW double counting   =       863.13172921     -828.17112637
  entropy T*S    EENTRO =         0.00000000
  eigenvalues    EBANDS =         5.03349236
  atomic energy  EATOM  =       206.13270273
  Solvation  Ediel_sol  =         0.00000000
  ---------------------------------------------------
  free energy    TOTEN  =       -10.24213579 eV

  energy without entropy =      -10.24213579  energy(sigma->0) =      -10.24213579


--------------------------------------------------------------------------------------------------------




--------------------------------------- Iteration      1(  11)  ---------------------------------------


    POTLOK:  cpu time    0.0316: real time    0.0317
    SETDIJ:  cpu time    0.4941: real time    0.4941
     EDDAV:  cpu time    0.1763: real time    0.1764
 BZINTS: Fermi energy:    5.516488;    8.000000 electrons
         Band energy: 0.504612E+01;  BLOECHL correction:   -0.000000
       DOS:  cpu time    0.0020: real time    0.0020
    CHARGE:  cpu time    0.0096: real time    0.0096
    MIXING:  cpu time    0.0006: real time    0.0006
    --------------------------------------------
      LOOP:  cpu time    0.7141: real time    0.7144

 eigenvalue-minimisations  :   528
 total energy-change (2. order) :-0.3498833E-02  (-0.5145682E-03)
 number of electron       8.0000001 magnetization       0.0000000
 augmentation part       -0.4443791 magnetization      -0.0000042

 Broyden mixing:
  rms(total) = 0.18167E-01    rms(broyden)= 0.18167E-01
  rms(prec ) = 0.28822E-01
  weight for this iteration     100.00

 eigenvalues of (default mixing * dielectric matrix)
  average eigenvalue GAMMA=   1.4146
  2.5057  2.1358  1.2457  1.2457  0.6247  0.7301

 Free energy of the ion-electron system (eV)
  ---------------------------------------------------
  alpha Z        PSCENC =         3.22809572
  Ewald energy   TEWEN  =      -225.43987080
  -Hartree energ DENC   =       -16.11425811
  -exchange      EXHF   =         0.00000000
  -V(xc)+E(xc)   XCENC  =       -18.07098697
  PAW double counting   =       849.39667744     -814.42411649
  entropy T*S    EENTRO =         0.00000000
  eigenvalues    EBANDS =         5.04612186
  atomic energy  EATOM  =       206.13270273
  Solvation  Ediel_sol  =         0.00000000
  ---------------------------------------------------
  free energy    TOTEN  =       -10.24563462 eV

  energy without entropy =      -10.24563462  energy(sigma->0) =      -10.24563462


--------------------------------------------------------------------------------------------------------




--------------------------------------- Iteration      1(  12)  ---------------------------------------


    POTLOK:  cpu time    0.0323: real time    0.0325
    SETDIJ:  cpu time    0.4903: real time    0.4929
     EDDAV:  cpu time    0.2279: real time    0.2282
 BZINTS: Fermi energy:    5.520313;    8.000000 electrons
         Band energy: 0.507536E+01;  BLOECHL correction:   -0.000000
       DOS:  cpu time    0.0019: real time    0.0020
    CHARGE:  cpu time    0.0088: real time    0.0088
    MIXING:  cpu time    0.0005: real time    0.0005
    --------------------------------------------
      LOOP:  cpu time    0.7618: real time    0.7648

 eigenvalue-minimisations  :   696
 total energy-change (2. order) :-0.1477783E-02  (-0.3174494E-03)
 number of electron       8.0000001 magnetization       0.0000000
 augmentation part       -0.4445544 magnetization      -0.0000003

 Broyden mixing:
  rms(total) = 0.70713E-02    rms(broyden)= 0.70713E-02
  rms(prec ) = 0.10176E-01
  weight for this iteration     100.00

 eigenvalues of (default mixing * dielectric matrix)
  average eigenvalue GAMMA=   1.4256
  2.7256  2.5049  1.2771  1.2771  0.9128  0.6253  0.6562

 Free energy of the ion-electron system (eV)
  ---------------------------------------------------
  alpha Z        PSCENC =         3.22809572
  Ewald energy   TEWEN  =      -225.43987080
  -Hartree energ DENC   =       -16.16359651
  -exchange      EXHF   =         0.00000000
  -V(xc)+E(xc)   XCENC  =       -18.05896461
  PAW double counting   =       829.02699461     -794.04782873
  entropy T*S    EENTRO =         0.00000000
  eigenvalues    EBANDS =         5.07535520
  atomic energy  EATOM  =       206.13270273
  Solvation  Ediel_sol  =         0.00000000
  ---------------------------------------------------
  free energy    TOTEN  =       -10.24711240 eV

  energy without entropy =      -10.24711240  energy(sigma->0) =      -10.24711240


--------------------------------------------------------------------------------------------------------




--------------------------------------- Iteration      1(  13)  ---------------------------------------


    POTLOK:  cpu time    0.0310: real time    0.0311
    SETDIJ:  cpu time    0.4889: real time    0.4890
     EDDAV:  cpu time    0.1750: real time    0.1751
 BZINTS: Fermi energy:    5.522786;    8.000000 electrons
         Band energy: 0.509371E+01;  BLOECHL correction:    0.000000
       DOS:  cpu time    0.0019: real time    0.0020
    CHARGE:  cpu time    0.0089: real time    0.0089
    MIXING:  cpu time    0.0006: real time    0.0006
    --------------------------------------------
      LOOP:  cpu time    0.7063: real time    0.7066

 eigenvalue-minimisations  :   528
 total energy-change (2. order) :-0.5434689E-03  (-0.4633197E-04)
 number of electron       8.0000001 magnetization      -0.0000000
 augmentation part       -0.4445627 magnetization      -0.0000032

 Broyden mixing:
  rms(total) = 0.31789E-02    rms(broyden)= 0.31789E-02
  rms(prec ) = 0.47810E-02
  weight for this iteration     100.00

 eigenvalues of (default mixing * dielectric matrix)
  average eigenvalue GAMMA=   1.3778
  2.5047  2.7692  1.3497  1.3497  0.9720  0.8097  0.6255  0.6420

 Free energy of the ion-electron system (eV)
  ---------------------------------------------------
  alpha Z        PSCENC =         3.22809572
  Ewald energy   TEWEN  =      -225.43987080
  -Hartree energ DENC   =       -16.18694164
  -exchange      EXHF   =         0.00000000
  -V(xc)+E(xc)   XCENC  =       -18.05525375
  PAW double counting   =       823.73967147     -788.75977288
  entropy T*S    EENTRO =         0.00000000
  eigenvalues    EBANDS =         5.09371328
  atomic energy  EATOM  =       206.13270273
  Solvation  Ediel_sol  =         0.00000000
  ---------------------------------------------------
  free energy    TOTEN  =       -10.24765587 eV

  energy without entropy =      -10.24765587  energy(sigma->0) =      -10.24765587


--------------------------------------------------------------------------------------------------------




--------------------------------------- Iteration      1(  14)  ---------------------------------------


    POTLOK:  cpu time    0.0311: real time    0.0311
    SETDIJ:  cpu time    0.4883: real time    0.4884
     EDDAV:  cpu time    0.2280: real time    0.2282
 BZINTS: Fermi energy:    5.525480;    8.000000 electrons
         Band energy: 0.511453E+01;  BLOECHL correction:   -0.000000
       DOS:  cpu time    0.0019: real time    0.0020
    CHARGE:  cpu time    0.0089: real time    0.0089
    MIXING:  cpu time    0.0006: real time    0.0006
    --------------------------------------------
      LOOP:  cpu time    0.7589: real time    0.7593

 eigenvalue-minimisations  :   688
 total energy-change (2. order) :-0.2597936E-05  (-0.7818173E-05)
 number of electron       8.0000001 magnetization      -0.0000000
 augmentation part       -0.4444749 magnetization       0.0000014

 Broyden mixing:
  rms(total) = 0.12249E-02    rms(broyden)= 0.12249E-02
  rms(prec ) = 0.14026E-02
  weight for this iteration     100.00

 eigenvalues of (default mixing * dielectric matrix)
  average eigenvalue GAMMA=   1.4351
  2.6968  2.5051  2.3298  1.3004  1.1187  0.9663  0.7371  0.6251  0.6370

 Free energy of the ion-electron system (eV)
  ---------------------------------------------------
  alpha Z        PSCENC =         3.22809572
  Ewald energy   TEWEN  =      -225.43987080
  -Hartree energ DENC   =       -16.20795185
  -exchange      EXHF   =         0.00000000
  -V(xc)+E(xc)   XCENC  =       -18.05367396
  PAW double counting   =       824.01559867     -789.03709238
  entropy T*S    EENTRO =         0.00000000
  eigenvalues    EBANDS =         5.11453340
  atomic energy  EATOM  =       206.13270273
  Solvation  Ediel_sol  =         0.00000000
  ---------------------------------------------------
  free energy    TOTEN  =       -10.24765847 eV

  energy without entropy =      -10.24765847  energy(sigma->0) =      -10.24765847


--------------------------------------------------------------------------------------------------------




--------------------------------------- Iteration      1(  15)  ---------------------------------------


    POTLOK:  cpu time    0.0308: real time    0.0309
    SETDIJ:  cpu time    0.4876: real time    0.4876
     EDDAV:  cpu time    0.1779: real time    0.1781
 BZINTS: Fermi energy:    5.525972;    8.000000 electrons
         Band energy: 0.511811E+01;  BLOECHL correction:   -0.000000
       DOS:  cpu time    0.0019: real time    0.0019
    CHARGE:  cpu time    0.0091: real time    0.0091
    MIXING:  cpu time    0.0006: real time    0.0006
    --------------------------------------------
      LOOP:  cpu time    0.7080: real time    0.7083

 eigenvalue-minimisations  :   496
 total energy-change (2. order) :-0.1887980E-04  (-0.2917531E-05)
 number of electron       8.0000001 magnetization       0.0000000
 augmentation part       -0.4444569 magnetization      -0.0000003

 Broyden mixing:
  rms(total) = 0.40890E-03    rms(broyden)= 0.40890E-03
  rms(prec ) = 0.49472E-03
  weight for this iteration     100.00

 eigenvalues of (default mixing * dielectric matrix)
  average eigenvalue GAMMA=   1.4586
  2.5023  2.7983  2.7983  1.2792  1.2792  1.0596  0.8984  0.7090  0.6251  0.6365

 Free energy of the ion-electron system (eV)
  ---------------------------------------------------
  alpha Z        PSCENC =         3.22809572
  Ewald energy   TEWEN  =      -225.43987080
  -Hartree energ DENC   =       -16.21152514
  -exchange      EXHF   =         0.00000000
  -V(xc)+E(xc)   XCENC  =       -18.05349524
  PAW double counting   =       824.78082904     -789.80251970
  entropy T*S    EENTRO =         0.00000000
  eigenvalues    EBANDS =         5.11810604
  atomic energy  EATOM  =       206.13270273
  Solvation  Ediel_sol  =         0.00000000
  ---------------------------------------------------
  free energy    TOTEN  =       -10.24767735 eV

  energy without entropy =      -10.24767735  energy(sigma->0) =      -10.24767735


--------------------------------------------------------------------------------------------------------




--------------------------------------- Iteration      1(  16)  ---------------------------------------


    POTLOK:  cpu time    0.0334: real time    0.0335
    SETDIJ:  cpu time    0.4904: real time    0.4905
     EDDAV:  cpu time    0.2336: real time    0.2338
 BZINTS: Fermi energy:    5.526152;    8.000000 electrons
         Band energy: 0.511781E+01;  BLOECHL correction:    0.000000
       DOS:  cpu time    0.0019: real time    0.0019
    --------------------------------------------
      LOOP:  cpu time    0.7594: real time    0.7598

 eigenvalue-minimisations  :   712
 total energy-change (2. order) :-0.1996399E-06  (-0.1018383E-06)
 number of electron       8.0000001 magnetization       0.0000000
 augmentation part       -0.4444569 magnetization      -0.0000003

 Free energy of the ion-electron system (eV)
  ---------------------------------------------------
  alpha Z        PSCENC =         3.22809572
  Ewald energy   TEWEN  =      -225.43987080
  -Hartree energ DENC   =       -16.21133436
  -exchange      EXHF   =         0.00000000
  -V(xc)+E(xc)   XCENC  =       -18.05355522
  PAW double counting   =       825.38423745     -790.40576244
  entropy T*S    EENTRO =         0.00000000
  eigenvalues    EBANDS =         5.11780937
  atomic energy  EATOM  =       206.13270273
  Solvation  Ediel_sol  =         0.00000000
  ---------------------------------------------------
  free energy    TOTEN  =       -10.24767755 eV

  energy without entropy =      -10.24767755  energy(sigma->0) =      -10.24767755


--------------------------------------------------------------------------------------------------------




 average (electrostatic) potential at core
  the test charge radii are     0.9892
  (the norm of the test charge is              1.0000)
       1 -83.5373       2 -83.5370



 E-fermi :   5.5262     XC(G=0):  -9.1812     alpha+bet :-11.4999

 Fermi energy:         5.5261522454

 spin component 1

 k-point     1 :       0.0000    0.0000    0.0000
  band No.  band energies     occupation 
      1      -6.1744      1.00000
      2       5.5259      1.00000
      3       5.5259      1.00000
      4       5.5259      1.00000
      5       8.0308      0.00000
      6       8.0308      0.00000
      7       8.0308      0.00000
      8       8.4434      0.00000

 k-point     2 :       0.3333    0.0000    0.0000
  band No.  band energies     occupation 
      1      -4.8467      1.00000
      2       0.2953      1.00000
      3       4.5492      1.00000
      4       4.5492      1.00000
      5       7.1322      0.00000
      6       8.9794      0.00000
      7       8.9795      0.00000
      8      13.2065      0.00000

 k-point     3 :       0.0000   -0.3333    0.3333
  band No.  band energies     occupation 
      1      -4.8467      1.00000
      2       0.2954      1.00000
      3       4.5492      1.00000
      4       4.5492      1.00000
      5       7.1322      0.00000
      6       8.9794      0.00000
      7       8.9795      0.00000
      8      13.2065      0.00000

 k-point     4 :       0.0000    0.0000    0.3333
  band No.  band energies     occupation 
      1      -4.8467      1.00000
      2       0.2953      1.00000
      3       4.5492      1.00000
      4       4.5492      1.00000
      5       7.1322      0.00000
      6       8.9794      0.00000
      7       8.9794      0.00000
      8      13.2065      0.00000

 k-point     5 :       0.3333    0.3333    0.0000
  band No.  band energies     occupation 
      1      -4.8467      1.00000
      2       0.2953      1.00000
      3       4.5492      1.00000
      4       4.5492      1.00000
      5       7.1322      0.00000
      6       8.9794      0.00000
      7       8.9795      0.00000
      8      13.2065      0.00000

 k-point     6 :       0.0000    0.3333    0.0000
  band No.  band energies     occupation 
      1      -4.3338      1.00000
      2       0.5460      1.00000
      3       3.1828      1.00000
      4       3.1828      1.00000
      5       6.2759      0.00000
      6       7.5313      0.00000
      7      12.5923      0.00000
      8      12.5924      0.00000

 k-point     7 :      -0.3333    0.0000   -0.3333
  band No.  band energies     occupation 
      1      -4.3338      1.00000
      2       0.5460      1.00000
      3       3.1828      1.00000
      4       3.1828      1.00000
      5       6.2759      0.00000
      6       7.5313      0.00000
      7      12.5923      0.00000
      8      12.5924      0.00000

 k-point     8 :      -0.3333   -0.3333    0.3333
  band No.  band energies     occupation 
      1      -4.3338      1.00000
      2       0.5460      1.00000
      3       3.1828      1.00000
      4       3.1828      1.00000
      5       6.2759      0.00000
      6       7.5313      0.00000
      7      12.5923      0.00000
      8      12.5924      0.00000

 k-point     9 :      -0.3333    0.3333    0.0000
  band No.  band energies     occupation 
      1      -3.0330      1.00000
      2      -1.1489      1.00000
      3       1.2759      1.00000
      4       3.4764      1.00000
      5       7.0927      0.00000
      6      11.2601      0.00000
      7      11.8279      0.00000
      8      12.3838      0.00000

 k-point    10 :       0.3333    0.0000   -0.3333
  band No.  band energies     occupation 
      1      -3.0330      1.00000
      2      -1.1489      1.00000
      3       1.2759      1.00000
      4       3.4764      1.00000
      5       7.0928      0.00000
      6      11.2601      0.00000
      7      11.8279      0.00000
      8      12.3838      0.00000

 k-point    11 :       0.3333   -0.3333    0.3333
  band No.  band energies     occupation 
      1      -3.0330      1.00000
      2      -1.1489      1.00000
      3       1.2759      1.00000
      4       3.4764      1.00000
      5       7.0927      0.00000
      6      11.2601      0.00000
      7      11.8279      0.00000
      8      12.3838      0.00000

 k-point    12 :      -0.3333    0.3333    0.3333
  band No.  band energies     occupation 
      1      -3.0330      1.00000
      2      -1.1489      1.00000
      3       1.2759      1.00000
      4       3.4764      1.00000
      5       7.0927      0.00000
      6      11.2601      0.00000
      7      11.8279      0.00000
      8      12.3838      0.00000

 k-point    13 :       0.0000   -0.3333   -0.3333
  band No.  band energies     occupation 
      1      -3.0330      1.00000
      2      -1.1489      1.00000
      3       1.2759      1.00000
      4       3.4764      1.00000
      5       7.0927      0.00000
      6      11.2601      0.00000
      7      11.8279      0.00000
      8      12.3838      0.00000

 k-point    14 :       0.3333    0.3333    0.3333
  band No.  band energies     occupation 
      1      -3.0330      1.00000
      2      -1.1489      1.00000
      3       1.2759      1.00000
      4       3.4764      1.00000
      5       7.0927      0.00000
      6      11.2601      0.00000
      7      11.8279      0.00000
      8      12.3838      0.00000
 Fermi energy:         5.5261522454

 spin component 2

 k-point     1 :       0.0000    0.0000    0.0000
  band No.  band energies     occupation 
      1      -6.1744      1.00000
      2       5.5259      1.00000
      3       5.5259      1.00000
      4       5.5259      1.00000
      5       8.0308      0.00000
      6       8.0308      0.00000
      7       8.0308      0.00000
      8       8.4434      0.00000

 k-point     2 :       0.3333    0.0000    0.0000
  band No.  band energies     occupation 
      1      -4.8467      1.00000
      2       0.2954      1.00000
      3       4.5492      1.00000
      4       4.5492      1.00000
      5       7.1322      0.00000
      6       8.9794      0.00000
      7       8.9795      0.00000
      8      13.2065      0.00000

 k-point     3 :       0.0000   -0.3333    0.3333
  band No.  band energies     occupation 
      1      -4.8467      1.00000
      2       0.2953      1.00000
      3       4.5492      1.00000
      4       4.5492      1.00000
      5       7.1322      0.00000
      6       8.9794      0.00000
      7       8.9794      0.00000
      8      13.2065      0.00000

 k-point     4 :       0.0000    0.0000    0.3333
  band No.  band energies     occupation 
      1      -4.8467      1.00000
      2       0.2954      1.00000
      3       4.5492      1.00000
      4       4.5492      1.00000
      5       7.1322      0.00000
      6       8.9794      0.00000
      7       8.9795      0.00000
      8      13.2064      0.00000

 k-point     5 :       0.3333    0.3333    0.0000
  band No.  band energies     occupation 
      1      -4.8467      1.00000
      2       0.2954      1.00000
      3       4.5492      1.00000
      4       4.5492      1.00000
      5       7.1322      0.00000
      6       8.9794      0.00000
      7       8.9795      0.00000
      8      13.2065      0.00000

 k-point     6 :       0.0000    0.3333    0.0000
  band No.  band energies     occupation 
      1      -4.3338      1.00000
      2       0.5460      1.00000
      3       3.1828      1.00000
      4       3.1828      1.00000
      5       6.2759      0.00000
      6       7.5313      0.00000
      7      12.5923      0.00000
      8      12.5924      0.00000

 k-point     7 :      -0.3333    0.0000   -0.3333
  band No.  band energies     occupation 
      1      -4.3338      1.00000
      2       0.5460      1.00000
      3       3.1828      1.00000
      4       3.1828      1.00000
      5       6.2759      0.00000
      6       7.5313      0.00000
      7      12.5923      0.00000
      8      12.5924      0.00000

 k-point     8 :      -0.3333   -0.3333    0.3333
  band No.  band energies     occupation 
      1      -4.3338      1.00000
      2       0.5460      1.00000
      3       3.1828      1.00000
      4       3.1828      1.00000
      5       6.2759      0.00000
      6       7.5313      0.00000
      7      12.5924      0.00000
      8      12.5924      0.00000

 k-point     9 :      -0.3333    0.3333    0.0000
  band No.  band energies     occupation 
      1      -3.0330      1.00000
      2      -1.1489      1.00000
      3       1.2759      1.00000
      4       3.4764      1.00000
      5       7.0927      0.00000
      6      11.2601      0.00000
      7      11.8279      0.00000
      8      12.3838      0.00000

 k-point    10 :       0.3333    0.0000   -0.3333
  band No.  band energies     occupation 
      1      -3.0330      1.00000
      2      -1.1489      1.00000
      3       1.2759      1.00000
      4       3.4764      1.00000
      5       7.0927      0.00000
      6      11.2601      0.00000
      7      11.8279      0.00000
      8      12.3838      0.00000

 k-point    11 :       0.3333   -0.3333    0.3333
  band No.  band energies     occupation 
      1      -3.0330      1.00000
      2      -1.1489      1.00000
      3       1.2759      1.00000
      4       3.4764      1.00000
      5       7.0927      0.00000
      6      11.2601      0.00000
      7      11.8279      0.00000
      8      12.3838      0.00000

 k-point    12 :      -0.3333    0.3333    0.3333
  band No.  band energies     occupation 
      1      -3.0330      1.00000
      2      -1.1489      1.00000
      3       1.2759      1.00000
      4       3.4764      1.00000
      5       7.0927      0.00000
      6      11.2601      0.00000
      7      11.8279      0.00000
      8      12.3839      0.00000

 k-point    13 :       0.0000   -0.3333   -0.3333
  band No.  band energies     occupation 
      1      -3.0330      1.00000
      2      -1.1489      1.00000
      3       1.2759      1.00000
      4       3.4764      1.00000
      5       7.0927      0.00000
      6      11.2601      0.00000
      7      11.8279      0.00000
      8      12.3838      0.00000

 k-point    14 :       0.3333    0.3333    0.3333
  band No.  band energies     occupation 
      1      -3.0330      1.00000
      2      -1.1489      1.00000
      3       1.2759      1.00000
      4       3.4764      1.00000
      5       7.0927      0.00000
      6      11.2601      0.00000
      7      11.8279      0.00000
      8      12.3838      0.00000


--------------------------------------------------------------------------------------------------------


 soft charge-density along one line, spin component           1
         0         1         2         3         4         5         6         7         8         9
 total charge-density along one line

 soft charge-density along one line, spin component           2
         0         1         2         3         4         5         6         7         8         9
 total charge-density along one line

 pseudopotential strength for first ion, spin component:           1
 18.445  25.734   0.000  -0.000  -0.000   0.000  -0.000  -0.000
 25.734  35.908   0.000  -0.000  -0.000   0.000  -0.000  -0.000
  0.000   0.000   4.182   0.000  -0.000   7.793   0.000  -0.000
 -0.000  -0.000   0.000   4.182  -0.000   0.000   7.793  -0.000
 -0.000  -0.000  -0.000  -0.000   4.182  -0.000  -0.000   7.793
  0.000   0.000   7.793   0.000  -0.000  14.533   0.000  -0.000
 -0.000  -0.000   0.000   7.793  -0.000   0.000  14.533  -0.000
 -0.000  -0.000  -0.000  -0.000   7.793  -0.000  -0.000  14.533
 pseudopotential strength for first ion, spin component:           2
 18.445  25.734  -0.000   0.000   0.000  -0.000   0.000   0.000
 25.734  35.908  -0.000   0.000   0.000  -0.000   0.000   0.000
 -0.000  -0.000   4.182  -0.000   0.000   7.793  -0.000   0.000
  0.000   0.000  -0.000   4.182   0.000  -0.000   7.793   0.000
  0.000   0.000   0.000   0.000   4.182   0.000   0.000   7.793
 -0.000  -0.000   7.793  -0.000   0.000  14.533  -0.000   0.000
  0.000   0.000  -0.000   7.793   0.000  -0.000  14.533   0.000
  0.000   0.000   0.000   0.000   7.793   0.000   0.000  14.533
 total augmentation occupancy for first ion, spin component:           1
  5.464  -2.019  -0.000   0.000   0.000   0.000  -0.000  -0.000
 -2.019   0.817   0.000  -0.000  -0.000  -0.000   0.000   0.000
 -0.000   0.000   2.908  -0.000  -0.000  -0.636   0.000   0.000
  0.000  -0.000  -0.000   2.908   0.000   0.000  -0.636  -0.000
  0.000  -0.000  -0.000   0.000   2.908   0.000  -0.000  -0.636
  0.000  -0.000  -0.636   0.000   0.000   0.149  -0.000  -0.000
 -0.000   0.000   0.000  -0.636  -0.000  -0.000   0.149   0.000
 -0.000   0.000   0.000  -0.000  -0.636  -0.000   0.000   0.149
 total augmentation occupancy for first ion, spin component:           2
 -0.000   0.000  -0.000   0.000   0.000  -0.000  -0.000  -0.000
  0.000  -0.000   0.000  -0.000  -0.000   0.000   0.000   0.000
 -0.000   0.000  -0.000   0.000   0.000   0.000  -0.000  -0.000
  0.000  -0.000   0.000  -0.000  -0.000  -0.000   0.000   0.000
  0.000  -0.000   0.000  -0.000  -0.000  -0.000   0.000   0.000
 -0.000   0.000   0.000  -0.000  -0.000  -0.000   0.000   0.000
 -0.000   0.000  -0.000   0.000   0.000   0.000  -0.000  -0.000
 -0.000   0.000  -0.000   0.000   0.000   0.000  -0.000  -0.000


------------------------ aborting loop because EDIFF is reached ----------------------------------------





 total charge

# of ion       s       p       d       tot
------------------------------------------
    1        0.718   0.957   0.000   1.675
    2        0.718   0.957   0.000   1.675
--------------------------------------------------
tot          1.436   1.914   0.000   3.350



 magnetization (x)

# of ion       s       p       d       tot
------------------------------------------
    1        0.000   0.000   0.000   0.000
    2       -0.000  -0.000   0.000  -0.000
--------------------------------------------------
tot          0.000   0.000   0.000   0.000

    CHARGE:  cpu time    0.0096: real time    0.0096
    FORLOC:  cpu time    0.0004: real time    0.0004
    FORNL :  cpu time    0.0568: real time    0.0569
    STRESS:  cpu time    0.1705: real time    0.1705
    FORCOR:  cpu time    0.0301: real time    0.0301
    FORHAR:  cpu time    0.0032: real time    0.0032
    MIXING:  cpu time    0.0007: real time    0.0007
    OFIELD:  cpu time    0.0000: real time    0.0000

  FORCE on cell =-STRESS in cart. coord.  units (eV):
  Direction    XX          YY          ZZ          XY          YZ          ZX
  --------------------------------------------------------------------------------------
  Alpha Z     3.22810     3.22810     3.22810
  Ewald     -75.14669   -75.14663   -75.14665     0.00000     0.00002     0.00000
  Hartree     5.40386     5.40386     5.40388    -0.00000     0.00001    -0.00000
  E(xc)     -25.26297   -25.26297   -25.26297     0.00000    -0.00000     0.00000
  Local     -30.21761   -30.21765   -30.21769     0.00002    -0.00004     0.00001
  n-local    76.31426    76.31426    76.31428    -0.00000     0.00001    -0.00001
  augment   -11.30311   -11.30310   -11.30310    -0.00000     0.00001    -0.00000
  Kinetic    56.98805    56.98805    56.98803     0.00000    -0.00002     0.00000
  Fock        0.00000     0.00000     0.00000     0.00000     0.00000     0.00000
  -------------------------------------------------------------------------------------
  Total       0.00389     0.00391     0.00387     0.00001    -0.00002     0.00001
  in kB       0.14950     0.15020     0.14854     0.00039    -0.00074     0.00024
  external pressure =        0.15 kB  Pullay stress =        0.00 kB


 VOLUME and BASIS-vectors are now :
 -----------------------------------------------------------------------------
  energy-cutoff  :      520.00
  volume of cell :       41.71
      direct lattice vectors                 reciprocal lattice vectors
     3.892790000  0.000000000 -0.000000000     0.256885165 -0.148312676 -0.104872827
     1.946395000  3.371256000  0.000000000     0.000000000  0.296625353  0.209745654
    -0.000000000 -2.247502000  3.178450000     0.000000000 -0.000000000  0.314618761

  length of vectors
     3.892790000  3.892790839  3.892789442     0.314618734  0.363290296  0.314618761


 FORCES acting on ions
    electron-ion (+dipol)            ewald-force                    non-local-force                 convergence-correction
 -----------------------------------------------------------------------------------------------
   0.584E-04 -.696E-04 0.352E-04   0.997E-14 -.984E-05 -.505E-05   -.540E-04 0.710E-04 -.264E-04   -.749E-05 0.107E-04 -.106E-04
   0.133E-04 -.150E-05 -.135E-03   -.100E-13 0.984E-05 0.505E-05   -.194E-04 -.160E-05 0.122E-03   0.522E-05 -.718E-05 0.192E-04
 -----------------------------------------------------------------------------------------------
   0.718E-04 -.711E-04 -.997E-04   -.363E-16 -.257E-16 0.340E-16   -.734E-04 0.694E-04 0.951E-04   -.227E-05 0.352E-05 0.854E-05


 POSITION                                       TOTAL-FORCE (eV/Angst)
 -----------------------------------------------------------------------------------
      0.00000      0.00000      0.00000        -0.000001      0.000001     -0.000009
      3.89279      0.00000      2.38384         0.000001     -0.000001      0.000009
 -----------------------------------------------------------------------------------
    total drift:                               -0.000004      0.000002      0.000004


--------------------------------------------------------------------------------------------------------



  FREE ENERGIE OF THE ION-ELECTRON SYSTEM (eV)
  ---------------------------------------------------
  free  energy   TOTEN  =       -10.24767755 eV

  energy  without entropy=      -10.24767755  energy(sigma->0) =      -10.24767755



--------------------------------------------------------------------------------------------------------


    POTLOK:  cpu time    0.5218: real time    0.5219


--------------------------------------------------------------------------------------------------------


 writing wavefunctions
     LOOP+:  cpu time   11.5888: real time   11.6410
    4ORBIT:  cpu time    0.0000: real time    0.0000



 total charge

# of ion       s       p       d       tot
------------------------------------------
    1        0.718   0.957   0.000   1.675
    2        0.718   0.957   0.000   1.675
--------------------------------------------------
tot          1.436   1.914   0.000   3.350



 magnetization (x)

# of ion       s       p       d       tot
------------------------------------------
    1        0.000   0.000   0.000   0.000
    2       -0.000  -0.000   0.000  -0.000
--------------------------------------------------
tot          0.000   0.000   0.000   0.000

 BZINTS: Fermi energy:    5.526152;    8.000000 electrons
         Band energy: 0.511781E+01;  BLOECHL correction:    0.000000

 total amount of memory used by VASP MPI-rank0    32995. kBytes
=======================================================================

   base      :      30000. kBytes
   nonlr-proj:        363. kBytes
   fftplans  :        700. kBytes
   grid      :       1647. kBytes
   one-center:          6. kBytes
   wavefun   :        279. kBytes

  
  
 General timing and accounting informations for this job:
 ========================================================
  
                  Total CPU time used (sec):       13.049
                            User time (sec):       12.633
                          System time (sec):        0.417
                         Elapsed time (sec):       13.366
  
                   Maximum memory used (kb):      283504.
                   Average memory used (kb):          N/A
  
                          Minor page faults:        72177
                          Major page faults:            0
                 Voluntary context switches:         3012
