PROCAR lm decomposed
# of k-points:   14         # of bands:    8         # of ions:    2

 k-point     1 :    0.00000000 0.00000000 0.00000000     weight = 0.03703704

band     1 # energy   -6.17438654 # occ.  1.00000000

ion      s     py     pz     px    dxy    dyz    dz2    dxz  x2-y2    tot
    1  0.210  0.000  0.000  0.000  0.000  0.000  0.000  0.000  0.000  0.210
    2  0.210  0.000  0.000  0.000  0.000  0.000  0.000  0.000  0.000  0.210
tot    0.420  0.000  0.000  0.000  0.000  0.000  0.000  0.000  0.000  0.420

band     2 # energy    5.52589047 # occ.  1.00000000

ion      s     py     pz     px    dxy    dyz    dz2    dxz  x2-y2    tot
    1  0.000  0.002  0.209  0.000  0.000  0.000  0.000  0.000  0.000  0.211
    2  0.000  0.002  0.209  0.000  0.000  0.000  0.000  0.000  0.000  0.211
tot    0.000  0.005  0.417  0.001  0.000  0.000  0.000  0.000  0.000  0.422

band     3 # energy    5.52589456 # occ.  1.00000000

ion      s     py     pz     px    dxy    dyz    dz2    dxz  x2-y2    tot
    1  0.000  0.007  0.001  0.203  0.000  0.000  0.000  0.000  0.000  0.211
    2  0.000  0.007  0.001  0.203  0.000  0.000  0.000  0.000  0.000  0.211
tot    0.000  0.014  0.001  0.407  0.000  0.000  0.000  0.000  0.000  0.422

band     4 # energy    5.52591261 # occ.  1.00000000

ion      s     py     pz     px    dxy    dyz    dz2    dxz  x2-y2    tot
    1  0.000  0.202  0.002  0.007  0.000  0.000  0.000  0.000  0.000  0.211
    2  0.000  0.202  0.002  0.007  0.000  0.000  0.000  0.000  0.000  0.211
tot    0.000  0.404  0.004  0.015  0.000  0.000  0.000  0.000  0.000  0.422

band     5 # energy    8.03077186 # occ.  0.00000000

ion      s     py     pz     px    dxy    dyz    dz2    dxz  x2-y2    tot
    1  0.000  0.137  0.001  0.011  0.000  0.000  0.000  0.000  0.000  0.149
    2  0.000  0.137  0.001  0.011  0.000  0.000  0.000  0.000  0.000  0.149
tot    0.000  0.274  0.001  0.023  0.000  0.000  0.000  0.000  0.000  0.299

band     6 # energy    8.03079569 # occ.  0.00000000

ion      s     py     pz     px    dxy    dyz    dz2    dxz  x2-y2    tot
    1  0.000  0.011  0.032  0.106  0.000  0.000  0.000  0.000  0.000  0.149
    2  0.000  0.011  0.032  0.106  0.000  0.000  0.000  0.000  0.000  0.149
tot    0.000  0.023  0.064  0.212  0.000  0.000  0.000  0.000  0.000  0.299

band     7 # energy    8.03081135 # occ.  0.00000000

ion      s     py     pz     px    dxy    dyz    dz2    dxz  x2-y2    tot
    1  0.000  0.001  0.117  0.032  0.000  0.000  0.000  0.000  0.000  0.149
    2  0.000  0.001  0.117  0.032  0.000  0.000  0.000  0.000  0.000  0.149
tot    0.000  0.001  0.233  0.064  0.000  0.000  0.000  0.000  0.000  0.299

band     8 # energy    8.44340684 # occ.  0.00000000

ion      s     py     pz     px    dxy    dyz    dz2    dxz  x2-y2    tot
    1  0.358  0.000  0.000  0.000  0.000  0.000  0.000  0.000  0.000  0.358
    2  0.358  0.000  0.000  0.000  0.000  0.000  0.000  0.000  0.000  0.358
tot    0.716  0.000  0.000  0.000  0.000  0.000  0.000  0.000  0.000  0.716


 k-point     2 :    0.33333333 0.00000000 0.00000000     weight = 0.07407407

band     1 # energy   -4.84671348 # occ.  1.00000000

ion      s     py     pz     px    dxy    dyz    dz2    dxz  x2-y2    tot
    1  0.208  0.003  0.001  0.008  0.000  0.000  0.000  0.000  0.000  0.220
    2  0.208  0.003  0.001  0.008  0.000  0.000  0.000  0.000  0.000  0.220
tot    0.416  0.005  0.003  0.016  0.000  0.000  0.000  0.000  0.000  0.440

band     2 # energy    0.29534069 # occ.  1.00000000

ion      s     py     pz     px    dxy    dyz    dz2    dxz  x2-y2    tot
    1  0.107  0.022  0.011  0.066  0.000  0.000  0.000  0.000  0.000  0.206
    2  0.107  0.022  0.011  0.066  0.000  0.000  0.000  0.000  0.000  0.206
tot    0.215  0.044  0.022  0.132  0.000  0.000  0.000  0.000  0.000  0.412

band     3 # energy    4.54921383 # occ.  1.00000000

ion      s     py     pz     px    dxy    dyz    dz2    dxz  x2-y2    tot
    1  0.000  0.004  0.169  0.037  0.000  0.000  0.000  0.000  0.000  0.210
    2  0.000  0.004  0.169  0.037  0.000  0.000  0.000  0.000  0.000  0.210
tot    0.000  0.007  0.339  0.074  0.000  0.000  0.000  0.000  0.000  0.420

band     4 # energy    4.54922631 # occ.  1.00000000

ion      s     py     pz     px    dxy    dyz    dz2    dxz  x2-y2    tot
    1  0.000  0.160  0.017  0.033  0.000  0.000  0.000  0.000  0.000  0.210
    2  0.000  0.160  0.017  0.033  0.000  0.000  0.000  0.000  0.000  0.210
tot    0.000  0.319  0.035  0.066  0.000  0.000  0.000  0.000  0.000  0.420

band     5 # energy    7.13221414 # occ.  0.00000000

ion      s     py     pz     px    dxy    dyz    dz2    dxz  x2-y2    tot
    1  0.172  0.007  0.004  0.022  0.000  0.000  0.000  0.000  0.000  0.206
    2  0.172  0.007  0.004  0.022  0.000  0.000  0.000  0.000  0.000  0.206
tot    0.344  0.015  0.007  0.045  0.000  0.000  0.000  0.000  0.000  0.412

band     6 # energy    8.97942217 # occ.  0.00000000

ion      s     py     pz     px    dxy    dyz    dz2    dxz  x2-y2    tot
    1  0.000  0.078  0.004  0.034  0.000  0.000  0.000  0.000  0.000  0.115
    2  0.000  0.078  0.004  0.034  0.000  0.000  0.000  0.000  0.000  0.115
tot    0.000  0.155  0.007  0.068  0.000  0.000  0.000  0.000  0.000  0.230

band     7 # energy    8.97946850 # occ.  0.00000000

ion      s     py     pz     px    dxy    dyz    dz2    dxz  x2-y2    tot
    1  0.000  0.012  0.099  0.004  0.000  0.000  0.000  0.000  0.000  0.115
    2  0.000  0.012  0.099  0.004  0.000  0.000  0.000  0.000  0.000  0.115
tot    0.000  0.024  0.198  0.009  0.000  0.000  0.000  0.000  0.000  0.230

band     8 # energy   13.20651418 # occ.  0.00000000

ion      s     py     pz     px    dxy    dyz    dz2    dxz  x2-y2    tot
    1  0.024  0.031  0.016  0.093  0.000  0.000  0.000  0.000  0.000  0.164
    2  0.024  0.031  0.016  0.093  0.000  0.000  0.000  0.000  0.000  0.164
tot    0.048  0.062  0.031  0.186  0.000  0.000  0.000  0.000  0.000  0.328


 k-point     3 :    0.00000000-0.33333333 0.33333333     weight = 0.07407407

band     1 # energy   -4.84671617 # occ.  1.00000000

ion      s     py     pz     px    dxy    dyz    dz2    dxz  x2-y2    tot
    1  0.208  0.010  0.001  0.000  0.000  0.000  0.000  0.000  0.000  0.220
    2  0.208  0.010  0.001  0.000  0.000  0.000  0.000  0.000  0.000  0.220
tot    0.416  0.021  0.003  0.000  0.000  0.000  0.000  0.000  0.000  0.440

band     2 # energy    0.29535008 # occ.  1.00000000

ion      s     py     pz     px    dxy    dyz    dz2    dxz  x2-y2    tot
    1  0.107  0.088  0.011  0.000  0.000  0.000  0.000  0.000  0.000  0.206
    2  0.107  0.088  0.011  0.000  0.000  0.000  0.000  0.000  0.000  0.206
tot    0.215  0.176  0.022  0.000  0.000  0.000  0.000  0.000  0.000  0.412

band     3 # energy    4.54921397 # occ.  1.00000000

ion      s     py     pz     px    dxy    dyz    dz2    dxz  x2-y2    tot
    1  0.000  0.022  0.175  0.013  0.000  0.000  0.000  0.000  0.000  0.210
    2  0.000  0.022  0.175  0.013  0.000  0.000  0.000  0.000  0.000  0.210
tot    0.000  0.044  0.350  0.026  0.000  0.000  0.000  0.000  0.000  0.420

band     4 # energy    4.54921904 # occ.  1.00000000

ion      s     py     pz     px    dxy    dyz    dz2    dxz  x2-y2    tot
    1  0.000  0.001  0.011  0.197  0.000  0.000  0.000  0.000  0.000  0.210
    2  0.000  0.001  0.011  0.197  0.000  0.000  0.000  0.000  0.000  0.210
tot    0.000  0.003  0.023  0.394  0.000  0.000  0.000  0.000  0.000  0.420

band     5 # energy    7.13221039 # occ.  0.00000000

ion      s     py     pz     px    dxy    dyz    dz2    dxz  x2-y2    tot
    1  0.172  0.030  0.004  0.000  0.000  0.000  0.000  0.000  0.000  0.206
    2  0.172  0.030  0.004  0.000  0.000  0.000  0.000  0.000  0.000  0.206
tot    0.344  0.060  0.007  0.000  0.000  0.000  0.000  0.000  0.000  0.412

band     6 # energy    8.97944279 # occ.  0.00000000

ion      s     py     pz     px    dxy    dyz    dz2    dxz  x2-y2    tot
    1  0.000  0.006  0.048  0.061  0.000  0.000  0.000  0.000  0.000  0.115
    2  0.000  0.006  0.048  0.061  0.000  0.000  0.000  0.000  0.000  0.115
tot    0.000  0.012  0.096  0.122  0.000  0.000  0.000  0.000  0.000  0.230

band     7 # energy    8.97947042 # occ.  0.00000000

ion      s     py     pz     px    dxy    dyz    dz2    dxz  x2-y2    tot
    1  0.000  0.007  0.054  0.054  0.000  0.000  0.000  0.000  0.000  0.115
    2  0.000  0.007  0.054  0.054  0.000  0.000  0.000  0.000  0.000  0.115
tot    0.000  0.014  0.109  0.108  0.000  0.000  0.000  0.000  0.000  0.230

band     8 # energy   13.20649507 # occ.  0.00000000

ion      s     py     pz     px    dxy    dyz    dz2    dxz  x2-y2    tot
    1  0.024  0.124  0.015  0.000  0.000  0.000  0.000  0.000  0.000  0.164
    2  0.024  0.124  0.016  0.000  0.000  0.000  0.000  0.000  0.000  0.164
tot    0.048  0.248  0.031  0.000  0.000  0.000  0.000  0.000  0.000  0.328


 k-point     4 :    0.00000000 0.00000000 0.33333333     weight = 0.07407407

band     1 # energy   -4.84671174 # occ.  1.00000000

ion      s     py     pz     px    dxy    dyz    dz2    dxz  x2-y2    tot
    1  0.208  0.000  0.012  0.000  0.000  0.000  0.000  0.000  0.000  0.220
    2  0.208  0.000  0.012  0.000  0.000  0.000  0.000  0.000  0.000  0.220
tot    0.416  0.000  0.024  0.000  0.000  0.000  0.000  0.000  0.000  0.440

band     2 # energy    0.29533539 # occ.  1.00000000

ion      s     py     pz     px    dxy    dyz    dz2    dxz  x2-y2    tot
    1  0.107  0.000  0.099  0.000  0.000  0.000  0.000  0.000  0.000  0.206
    2  0.107  0.000  0.099  0.000  0.000  0.000  0.000  0.000  0.000  0.206
tot    0.215  0.000  0.198  0.000  0.000  0.000  0.000  0.000  0.000  0.412

band     3 # energy    4.54922097 # occ.  1.00000000

ion      s     py     pz     px    dxy    dyz    dz2    dxz  x2-y2    tot
    1  0.000  0.048  0.000  0.162  0.000  0.000  0.000  0.000  0.000  0.210
    2  0.000  0.048  0.000  0.162  0.000  0.000  0.000  0.000  0.000  0.210
tot    0.000  0.096  0.000  0.324  0.000  0.000  0.000  0.000  0.000  0.420

band     4 # energy    4.54923025 # occ.  1.00000000

ion      s     py     pz     px    dxy    dyz    dz2    dxz  x2-y2    tot
    1  0.000  0.162  0.000  0.048  0.000  0.000  0.000  0.000  0.000  0.210
    2  0.000  0.162  0.000  0.048  0.000  0.000  0.000  0.000  0.000  0.210
tot    0.000  0.324  0.000  0.096  0.000  0.000  0.000  0.000  0.000  0.420

band     5 # energy    7.13221657 # occ.  0.00000000

ion      s     py     pz     px    dxy    dyz    dz2    dxz  x2-y2    tot
    1  0.172  0.000  0.034  0.000  0.000  0.000  0.000  0.000  0.000  0.206
    2  0.172  0.000  0.034  0.000  0.000  0.000  0.000  0.000  0.000  0.206
tot    0.344  0.000  0.067  0.000  0.000  0.000  0.000  0.000  0.000  0.412

band     6 # energy    8.97940553 # occ.  0.00000000

ion      s     py     pz     px    dxy    dyz    dz2    dxz  x2-y2    tot
    1  0.000  0.100  0.000  0.015  0.000  0.000  0.000  0.000  0.000  0.115
    2  0.000  0.100  0.000  0.015  0.000  0.000  0.000  0.000  0.000  0.115
tot    0.000  0.201  0.000  0.030  0.000  0.000  0.000  0.000  0.000  0.230

band     7 # energy    8.97944431 # occ.  0.00000000

ion      s     py     pz     px    dxy    dyz    dz2    dxz  x2-y2    tot
    1  0.000  0.015  0.000  0.100  0.000  0.000  0.000  0.000  0.000  0.115
    2  0.000  0.015  0.000  0.100  0.000  0.000  0.000  0.000  0.000  0.115
tot    0.000  0.030  0.000  0.201  0.000  0.000  0.000  0.000  0.000  0.230

band     8 # energy   13.20654382 # occ.  0.00000000

ion      s     py     pz     px    dxy    dyz    dz2    dxz  x2-y2    tot
    1  0.024  0.000  0.140  0.000  0.000  0.000  0.000  0.000  0.000  0.164
    2  0.024  0.000  0.140  0.000  0.000  0.000  0.000  0.000  0.000  0.164
tot    0.048  0.000  0.279  0.000  0.000  0.000  0.000  0.000  0.000  0.328


 k-point     5 :    0.33333333 0.33333333 0.00000000     weight = 0.07407407

band     1 # energy   -4.84671517 # occ.  1.00000000

ion      s     py     pz     px    dxy    dyz    dz2    dxz  x2-y2    tot
    1  0.208  0.003  0.001  0.008  0.000  0.000  0.000  0.000  0.000  0.220
    2  0.208  0.003  0.001  0.008  0.000  0.000  0.000  0.000  0.000  0.220
tot    0.416  0.005  0.003  0.016  0.000  0.000  0.000  0.000  0.000  0.440

band     2 # energy    0.29534511 # occ.  1.00000000

ion      s     py     pz     px    dxy    dyz    dz2    dxz  x2-y2    tot
    1  0.107  0.022  0.011  0.066  0.000  0.000  0.000  0.000  0.000  0.206
    2  0.107  0.022  0.011  0.066  0.000  0.000  0.000  0.000  0.000  0.206
tot    0.215  0.044  0.022  0.132  0.000  0.000  0.000  0.000  0.000  0.412

band     3 # energy    4.54922130 # occ.  1.00000000

ion      s     py     pz     px    dxy    dyz    dz2    dxz  x2-y2    tot
    1  0.000  0.010  0.152  0.047  0.000  0.000  0.000  0.000  0.000  0.210
    2  0.000  0.010  0.152  0.047  0.000  0.000  0.000  0.000  0.000  0.210
tot    0.000  0.020  0.305  0.095  0.000  0.000  0.000  0.000  0.000  0.420

band     4 # energy    4.54922819 # occ.  1.00000000

ion      s     py     pz     px    dxy    dyz    dz2    dxz  x2-y2    tot
    1  0.000  0.153  0.034  0.023  0.000  0.000  0.000  0.000  0.000  0.210
    2  0.000  0.153  0.034  0.023  0.000  0.000  0.000  0.000  0.000  0.210
tot    0.000  0.306  0.068  0.045  0.000  0.000  0.000  0.000  0.000  0.420

band     5 # energy    7.13220142 # occ.  0.00000000

ion      s     py     pz     px    dxy    dyz    dz2    dxz  x2-y2    tot
    1  0.172  0.007  0.004  0.022  0.000  0.000  0.000  0.000  0.000  0.206
    2  0.172  0.007  0.004  0.022  0.000  0.000  0.000  0.000  0.000  0.206
tot    0.344  0.015  0.007  0.045  0.000  0.000  0.000  0.000  0.000  0.412

band     6 # energy    8.97941919 # occ.  0.00000000

ion      s     py     pz     px    dxy    dyz    dz2    dxz  x2-y2    tot
    1  0.000  0.087  0.000  0.028  0.000  0.000  0.000  0.000  0.000  0.115
    2  0.000  0.087  0.000  0.028  0.000  0.000  0.000  0.000  0.000  0.115
tot    0.000  0.175  0.000  0.055  0.000  0.000  0.000  0.000  0.000  0.230

band     7 # energy    8.97945518 # occ.  0.00000000

ion      s     py     pz     px    dxy    dyz    dz2    dxz  x2-y2    tot
    1  0.000  0.002  0.102  0.011  0.000  0.000  0.000  0.000  0.000  0.115
    2  0.000  0.002  0.102  0.011  0.000  0.000  0.000  0.000  0.000  0.115
tot    0.000  0.004  0.204  0.022  0.000  0.000  0.000  0.000  0.000  0.230

band     8 # energy   13.20650833 # occ.  0.00000000

ion      s     py     pz     px    dxy    dyz    dz2    dxz  x2-y2    tot
    1  0.024  0.031  0.015  0.093  0.000  0.000  0.000  0.000  0.000  0.164
    2  0.024  0.031  0.016  0.093  0.000  0.000  0.000  0.000  0.000  0.164
tot    0.048  0.062  0.031  0.186  0.000  0.000  0.000  0.000  0.000  0.327


 k-point     6 :    0.00000000 0.33333333 0.00000000     weight = 0.07407407

band     1 # energy   -4.33383250 # occ.  1.00000000

ion      s     py     pz     px    dxy    dyz    dz2    dxz  x2-y2    tot
    1  0.202  0.013  0.006  0.000  0.000  0.000  0.000  0.000  0.000  0.221
    2  0.202  0.013  0.006  0.000  0.000  0.000  0.000  0.000  0.000  0.221
tot    0.403  0.026  0.013  0.000  0.000  0.000  0.000  0.000  0.000  0.442

band     2 # energy    0.54597435 # occ.  1.00000000

ion      s     py     pz     px    dxy    dyz    dz2    dxz  x2-y2    tot
    1  0.175  0.049  0.025  0.000  0.000  0.000  0.000  0.000  0.000  0.249
    2  0.175  0.049  0.025  0.000  0.000  0.000  0.000  0.000  0.000  0.249
tot    0.351  0.098  0.049  0.000  0.000  0.000  0.000  0.000  0.000  0.499

band     3 # energy    3.18279183 # occ.  1.00000000

ion      s     py     pz     px    dxy    dyz    dz2    dxz  x2-y2    tot
    1  0.000  0.006  0.011  0.175  0.000  0.000  0.000  0.000  0.000  0.192
    2  0.000  0.006  0.011  0.175  0.000  0.000  0.000  0.000  0.000  0.192
tot    0.000  0.011  0.023  0.350  0.000  0.000  0.000  0.000  0.000  0.385

band     4 # energy    3.18279844 # occ.  1.00000000

ion      s     py     pz     px    dxy    dyz    dz2    dxz  x2-y2    tot
    1  0.000  0.058  0.117  0.017  0.000  0.000  0.000  0.000  0.000  0.192
    2  0.000  0.058  0.117  0.017  0.000  0.000  0.000  0.000  0.000  0.192
tot    0.000  0.117  0.233  0.034  0.000  0.000  0.000  0.000  0.000  0.385

band     5 # energy    6.27587724 # occ.  0.00000000

ion      s     py     pz     px    dxy    dyz    dz2    dxz  x2-y2    tot
    1  0.049  0.039  0.020  0.000  0.000  0.000  0.000  0.000  0.000  0.108
    2  0.049  0.039  0.020  0.000  0.000  0.000  0.000  0.000  0.000  0.108
tot    0.098  0.078  0.039  0.000  0.000  0.000  0.000  0.000  0.000  0.216

band     6 # energy    7.53127383 # occ.  0.00000000

ion      s     py     pz     px    dxy    dyz    dz2    dxz  x2-y2    tot
    1  0.045  0.023  0.011  0.000  0.000  0.000  0.000  0.000  0.000  0.079
    2  0.045  0.023  0.011  0.000  0.000  0.000  0.000  0.000  0.000  0.079
tot    0.090  0.045  0.023  0.000  0.000  0.000  0.000  0.000  0.000  0.158

band     7 # energy   12.59233809 # occ.  0.00000000

ion      s     py     pz     px    dxy    dyz    dz2    dxz  x2-y2    tot
    1  0.000  0.025  0.049  0.093  0.000  0.000  0.000  0.000  0.000  0.167
    2  0.000  0.025  0.049  0.093  0.000  0.000  0.000  0.000  0.000  0.167
tot    0.000  0.049  0.099  0.185  0.000  0.000  0.000  0.000  0.000  0.333

band     8 # energy   12.59236904 # occ.  0.00000000

ion      s     py     pz     px    dxy    dyz    dz2    dxz  x2-y2    tot
    1  0.000  0.031  0.062  0.074  0.000  0.000  0.000  0.000  0.000  0.167
    2  0.000  0.031  0.062  0.074  0.000  0.000  0.000  0.000  0.000  0.167
tot    0.000  0.062  0.123  0.148  0.000  0.000  0.000  0.000  0.000  0.333


 k-point     7 :   -0.33333333 0.00000000-0.33333333     weight = 0.07407407

band     1 # energy   -4.33383076 # occ.  1.00000000

ion      s     py     pz     px    dxy    dyz    dz2    dxz  x2-y2    tot
    1  0.202  0.003  0.006  0.010  0.000  0.000  0.000  0.000  0.000  0.221
    2  0.202  0.003  0.006  0.010  0.000  0.000  0.000  0.000  0.000  0.221
tot    0.403  0.006  0.013  0.019  0.000  0.000  0.000  0.000  0.000  0.442

band     2 # energy    0.54597822 # occ.  1.00000000

ion      s     py     pz     px    dxy    dyz    dz2    dxz  x2-y2    tot
    1  0.175  0.012  0.025  0.037  0.000  0.000  0.000  0.000  0.000  0.249
    2  0.175  0.012  0.025  0.037  0.000  0.000  0.000  0.000  0.000  0.249
tot    0.351  0.025  0.049  0.074  0.000  0.000  0.000  0.000  0.000  0.499

band     3 # energy    3.18278300 # occ.  1.00000000

ion      s     py     pz     px    dxy    dyz    dz2    dxz  x2-y2    tot
    1  0.000  0.079  0.026  0.087  0.000  0.000  0.000  0.000  0.000  0.192
    2  0.000  0.153  0.026  0.013  0.000  0.000  0.000  0.000  0.000  0.192
tot    0.000  0.232  0.052  0.100  0.000  0.000  0.000  0.000  0.000  0.385

band     4 # energy    3.18279596 # occ.  1.00000000

ion      s     py     pz     px    dxy    dyz    dz2    dxz  x2-y2    tot
    1  0.000  0.081  0.102  0.009  0.000  0.000  0.000  0.000  0.000  0.192
    2  0.000  0.007  0.102  0.083  0.000  0.000  0.000  0.000  0.000  0.192
tot    0.000  0.088  0.204  0.092  0.000  0.000  0.000  0.000  0.000  0.385

band     5 # energy    6.27588150 # occ.  0.00000000

ion      s     py     pz     px    dxy    dyz    dz2    dxz  x2-y2    tot
    1  0.049  0.010  0.020  0.029  0.000  0.000  0.000  0.000  0.000  0.108
    2  0.049  0.010  0.020  0.029  0.000  0.000  0.000  0.000  0.000  0.108
tot    0.098  0.020  0.039  0.059  0.000  0.000  0.000  0.000  0.000  0.216

band     6 # energy    7.53127085 # occ.  0.00000000

ion      s     py     pz     px    dxy    dyz    dz2    dxz  x2-y2    tot
    1  0.045  0.006  0.011  0.017  0.000  0.000  0.000  0.000  0.000  0.079
    2  0.045  0.006  0.011  0.017  0.000  0.000  0.000  0.000  0.000  0.079
tot    0.090  0.011  0.023  0.034  0.000  0.000  0.000  0.000  0.000  0.158

band     7 # energy   12.59233342 # occ.  0.00000000

ion      s     py     pz     px    dxy    dyz    dz2    dxz  x2-y2    tot
    1  0.000  0.137  0.016  0.013  0.000  0.000  0.000  0.000  0.000  0.167
    2  0.000  0.086  0.016  0.064  0.000  0.000  0.000  0.000  0.000  0.167
tot    0.000  0.224  0.032  0.078  0.000  0.000  0.000  0.000  0.000  0.333

band     8 # energy   12.59236605 # occ.  0.00000000

ion      s     py     pz     px    dxy    dyz    dz2    dxz  x2-y2    tot
    1  0.000  0.001  0.095  0.070  0.000  0.000  0.000  0.000  0.000  0.167
    2  0.000  0.053  0.095  0.019  0.000  0.000  0.000  0.000  0.000  0.167
tot    0.000  0.054  0.190  0.089  0.000  0.000  0.000  0.000  0.000  0.333


 k-point     8 :   -0.33333333-0.33333333 0.33333333     weight = 0.07407407

band     1 # energy   -4.33383062 # occ.  1.00000000

ion      s     py     pz     px    dxy    dyz    dz2    dxz  x2-y2    tot
    1  0.202  0.003  0.006  0.010  0.000  0.000  0.000  0.000  0.000  0.221
    2  0.202  0.003  0.006  0.010  0.000  0.000  0.000  0.000  0.000  0.221
tot    0.403  0.006  0.013  0.019  0.000  0.000  0.000  0.000  0.000  0.442

band     2 # energy    0.54597910 # occ.  1.00000000

ion      s     py     pz     px    dxy    dyz    dz2    dxz  x2-y2    tot
    1  0.175  0.012  0.025  0.037  0.000  0.000  0.000  0.000  0.000  0.249
    2  0.175  0.012  0.025  0.037  0.000  0.000  0.000  0.000  0.000  0.249
tot    0.351  0.025  0.049  0.074  0.000  0.000  0.000  0.000  0.000  0.499

band     3 # energy    3.18278325 # occ.  1.00000000

ion      s     py     pz     px    dxy    dyz    dz2    dxz  x2-y2    tot
    1  0.000  0.055  0.046  0.091  0.000  0.000  0.000  0.000  0.000  0.192
    2  0.000  0.133  0.046  0.013  0.000  0.000  0.000  0.000  0.000  0.192
tot    0.000  0.189  0.091  0.105  0.000  0.000  0.000  0.000  0.000  0.385

band     4 # energy    3.18279089 # occ.  1.00000000

ion      s     py     pz     px    dxy    dyz    dz2    dxz  x2-y2    tot
    1  0.000  0.105  0.082  0.005  0.000  0.000  0.000  0.000  0.000  0.192
    2  0.000  0.027  0.082  0.083  0.000  0.000  0.000  0.000  0.000  0.192
tot    0.000  0.132  0.165  0.088  0.000  0.000  0.000  0.000  0.000  0.385

band     5 # energy    6.27588457 # occ.  0.00000000

ion      s     py     pz     px    dxy    dyz    dz2    dxz  x2-y2    tot
    1  0.049  0.010  0.020  0.029  0.000  0.000  0.000  0.000  0.000  0.108
    2  0.049  0.010  0.020  0.029  0.000  0.000  0.000  0.000  0.000  0.108
tot    0.098  0.020  0.039  0.059  0.000  0.000  0.000  0.000  0.000  0.216

band     6 # energy    7.53127469 # occ.  0.00000000

ion      s     py     pz     px    dxy    dyz    dz2    dxz  x2-y2    tot
    1  0.045  0.006  0.011  0.017  0.000  0.000  0.000  0.000  0.000  0.079
    2  0.045  0.006  0.011  0.017  0.000  0.000  0.000  0.000  0.000  0.079
tot    0.090  0.011  0.023  0.034  0.000  0.000  0.000  0.000  0.000  0.158

band     7 # energy   12.59234138 # occ.  0.00000000

ion      s     py     pz     px    dxy    dyz    dz2    dxz  x2-y2    tot
    1  0.000  0.082  0.031  0.054  0.000  0.000  0.000  0.000  0.000  0.167
    2  0.000  0.120  0.031  0.016  0.000  0.000  0.000  0.000  0.000  0.167
tot    0.000  0.202  0.062  0.069  0.000  0.000  0.000  0.000  0.000  0.333

band     8 # energy   12.59236077 # occ.  0.00000000

ion      s     py     pz     px    dxy    dyz    dz2    dxz  x2-y2    tot
    1  0.000  0.057  0.080  0.030  0.000  0.000  0.000  0.000  0.000  0.167
    2  0.000  0.019  0.080  0.067  0.000  0.000  0.000  0.000  0.000  0.167
tot    0.000  0.076  0.160  0.097  0.000  0.000  0.000  0.000  0.000  0.333


 k-point     9 :   -0.33333333 0.33333333 0.00000000     weight = 0.07407407

band     1 # energy   -3.03301761 # occ.  1.00000000

ion      s     py     pz     px    dxy    dyz    dz2    dxz  x2-y2    tot
    1  0.212  0.008  0.004  0.015  0.000  0.000  0.000  0.000  0.000  0.238
    2  0.212  0.008  0.004  0.015  0.000  0.000  0.000  0.000  0.000  0.238
tot    0.424  0.015  0.008  0.029  0.000  0.000  0.000  0.000  0.000  0.476

band     2 # energy   -1.14894313 # occ.  1.00000000

ion      s     py     pz     px    dxy    dyz    dz2    dxz  x2-y2    tot
    1  0.176  0.027  0.013  0.019  0.000  0.000  0.000  0.000  0.000  0.235
    2  0.176  0.027  0.013  0.019  0.000  0.000  0.000  0.000  0.000  0.235
tot    0.352  0.053  0.027  0.038  0.000  0.000  0.000  0.000  0.000  0.470

band     3 # energy    1.27589898 # occ.  1.00000000

ion      s     py     pz     px    dxy    dyz    dz2    dxz  x2-y2    tot
    1  0.003  0.038  0.019  0.091  0.000  0.000  0.000  0.000  0.000  0.152
    2  0.003  0.038  0.019  0.091  0.000  0.000  0.000  0.000  0.000  0.152
tot    0.007  0.077  0.038  0.182  0.000  0.000  0.000  0.000  0.000  0.304

band     4 # energy    3.47636329 # occ.  1.00000000

ion      s     py     pz     px    dxy    dyz    dz2    dxz  x2-y2    tot
    1  0.000  0.066  0.132  0.000  0.000  0.000  0.000  0.000  0.000  0.198
    2  0.000  0.066  0.132  0.000  0.000  0.000  0.000  0.000  0.000  0.198
tot    0.000  0.132  0.264  0.000  0.000  0.000  0.000  0.000  0.000  0.395

band     5 # energy    7.09273189 # occ.  0.00000000

ion      s     py     pz     px    dxy    dyz    dz2    dxz  x2-y2    tot
    1  0.054  0.030  0.015  0.002  0.000  0.000  0.000  0.000  0.000  0.102
    2  0.054  0.030  0.015  0.002  0.000  0.000  0.000  0.000  0.000  0.102
tot    0.108  0.061  0.030  0.004  0.000  0.000  0.000  0.000  0.000  0.204

band     6 # energy   11.26011622 # occ.  0.00000000

ion      s     py     pz     px    dxy    dyz    dz2    dxz  x2-y2    tot
    1  0.008  0.002  0.001  0.076  0.000  0.000  0.000  0.000  0.000  0.087
    2  0.008  0.002  0.001  0.076  0.000  0.000  0.000  0.000  0.000  0.087
tot    0.017  0.003  0.002  0.153  0.000  0.000  0.000  0.000  0.000  0.175

band     7 # energy   11.82789979 # occ.  0.00000000

ion      s     py     pz     px    dxy    dyz    dz2    dxz  x2-y2    tot
    1  0.000  0.051  0.102  0.000  0.000  0.000  0.000  0.000  0.000  0.153
    2  0.000  0.051  0.102  0.000  0.000  0.000  0.000  0.000  0.000  0.153
tot    0.000  0.102  0.204  0.000  0.000  0.000  0.000  0.000  0.000  0.305

band     8 # energy   12.38383235 # occ.  0.00000000

ion      s     py     pz     px    dxy    dyz    dz2    dxz  x2-y2    tot
    1  0.043  0.082  0.041  0.006  0.000  0.000  0.000  0.000  0.000  0.172
    2  0.043  0.082  0.041  0.006  0.000  0.000  0.000  0.000  0.000  0.172
tot    0.085  0.164  0.082  0.012  0.000  0.000  0.000  0.000  0.000  0.344


 k-point    10 :    0.33333333 0.00000000-0.33333333     weight = 0.07407407

band     1 # energy   -3.03301113 # occ.  1.00000000

ion      s     py     pz     px    dxy    dyz    dz2    dxz  x2-y2    tot
    1  0.212  0.003  0.014  0.009  0.000  0.000  0.000  0.000  0.000  0.238
    2  0.212  0.003  0.014  0.009  0.000  0.000  0.000  0.000  0.000  0.238
tot    0.424  0.006  0.027  0.019  0.000  0.000  0.000  0.000  0.000  0.476

band     2 # energy   -1.14894816 # occ.  1.00000000

ion      s     py     pz     px    dxy    dyz    dz2    dxz  x2-y2    tot
    1  0.176  0.008  0.026  0.025  0.000  0.000  0.000  0.000  0.000  0.235
    2  0.176  0.008  0.026  0.025  0.000  0.000  0.000  0.000  0.000  0.235
tot    0.352  0.017  0.052  0.050  0.000  0.000  0.000  0.000  0.000  0.470

band     3 # energy    1.27589586 # occ.  1.00000000

ion      s     py     pz     px    dxy    dyz    dz2    dxz  x2-y2    tot
    1  0.003  0.017  0.080  0.052  0.000  0.000  0.000  0.000  0.000  0.152
    2  0.003  0.017  0.080  0.052  0.000  0.000  0.000  0.000  0.000  0.152
tot    0.007  0.034  0.160  0.103  0.000  0.000  0.000  0.000  0.000  0.304

band     4 # energy    3.47635518 # occ.  1.00000000

ion      s     py     pz     px    dxy    dyz    dz2    dxz  x2-y2    tot
    1  0.000  0.148  0.000  0.049  0.000  0.000  0.000  0.000  0.000  0.198
    2  0.000  0.148  0.000  0.049  0.000  0.000  0.000  0.000  0.000  0.198
tot    0.000  0.297  0.000  0.099  0.000  0.000  0.000  0.000  0.000  0.395

band     5 # energy    7.09275449 # occ.  0.00000000

ion      s     py     pz     px    dxy    dyz    dz2    dxz  x2-y2    tot
    1  0.054  0.008  0.017  0.023  0.000  0.000  0.000  0.000  0.000  0.102
    2  0.054  0.008  0.017  0.023  0.000  0.000  0.000  0.000  0.000  0.102
tot    0.108  0.016  0.033  0.047  0.000  0.000  0.000  0.000  0.000  0.204

band     6 # energy   11.26009543 # occ.  0.00000000

ion      s     py     pz     px    dxy    dyz    dz2    dxz  x2-y2    tot
    1  0.008  0.007  0.052  0.020  0.000  0.000  0.000  0.000  0.000  0.087
    2  0.008  0.007  0.052  0.020  0.000  0.000  0.000  0.000  0.000  0.087
tot    0.017  0.014  0.104  0.041  0.000  0.000  0.000  0.000  0.000  0.175

band     7 # energy   11.82788409 # occ.  0.00000000

ion      s     py     pz     px    dxy    dyz    dz2    dxz  x2-y2    tot
    1  0.000  0.115  0.000  0.038  0.000  0.000  0.000  0.000  0.000  0.153
    2  0.000  0.115  0.000  0.038  0.000  0.000  0.000  0.000  0.000  0.153
tot    0.000  0.229  0.000  0.076  0.000  0.000  0.000  0.000  0.000  0.305

band     8 # energy   12.38384367 # occ.  0.00000000

ion      s     py     pz     px    dxy    dyz    dz2    dxz  x2-y2    tot
    1  0.043  0.021  0.045  0.063  0.000  0.000  0.000  0.000  0.000  0.172
    2  0.043  0.021  0.045  0.063  0.000  0.000  0.000  0.000  0.000  0.172
tot    0.085  0.042  0.090  0.126  0.000  0.000  0.000  0.000  0.000  0.344


 k-point    11 :    0.33333333-0.33333333 0.33333333     weight = 0.07407407

band     1 # energy   -3.03301904 # occ.  1.00000000

ion      s     py     pz     px    dxy    dyz    dz2    dxz  x2-y2    tot
    1  0.212  0.013  0.004  0.009  0.000  0.000  0.000  0.000  0.000  0.238
    2  0.212  0.013  0.004  0.009  0.000  0.000  0.000  0.000  0.000  0.238
tot    0.424  0.026  0.008  0.019  0.000  0.000  0.000  0.000  0.000  0.476

band     2 # energy   -1.14893975 # occ.  1.00000000
