 ----------------------------------------------------
    OOO  PPPP  EEEEE N   N M   M PPPP
   O   O P   P E     NN  N MM MM P   P
   O   O PPPP  EEEEE N N N M M M PPPP   -- VERSION
   O   O P     E     N  NN M   M P
    OOO  P     EEEEE N   N M   M P
 ----------------------------------------------------
 running   16 mpi-ranks, with    1 threads/rank
 distrk:  each k-point on   16 cores,    1 groups
 distr:  one band on    4 cores,    4 groups
 vasp.6.2.1 16May21 (build Jul  8 2021 12:17:16) complex                         
 POSCAR found type information on POSCAR Si
 POSCAR found :  1 types and       2 ions
 scaLAPACK will be used
 -----------------------------------------------------------------------------
|                                                                             |
|               ----> ADVICE to this user running VASP <----                  |
|                                                                             |
|     You have a (more or less) 'small supercell' and for smaller cells       |
|     it is recommended to use the reciprocal-space projection scheme!        |
|     The real-space optimization is not efficient for small cells and it     |
|     is also less accurate ...                                               |
|     Therefore, set LREAL=.FALSE. in the INCAR file.                         |
|                                                                             |
 -----------------------------------------------------------------------------

 LDA part: xc-table for Pade appr. of Perdew
 POSCAR, INCAR and KPOINTS ok, starting setup
 FFT: planning ...
 WAVECAR not read
 initial charge from wavefunction
 entering main loop
       N       E                     dE             d eps       ncg     rms          rms(c)
DAV:   1    -0.941530903087E+01   -0.94153E+01   -0.36031E+03   448   0.795E+02
DAV:   2    -0.324416460286E+02   -0.23026E+02   -0.22939E+02   648   0.970E+01
DAV:   3    -0.328861228715E+02   -0.44448E+00   -0.44448E+00   632   0.168E+01
DAV:   4    -0.328887460645E+02   -0.26232E-02   -0.26232E-02   720   0.136E+00
DAV:   5    -0.328887477185E+02   -0.16540E-05   -0.16602E-05   640   0.384E-02    0.336E+03
DAV:   6    -0.153884675133E+02    0.17500E+02   -0.25026E+01   448   0.246E+01    0.202E+03
DAV:   7    -0.104987653815E+02    0.48897E+01   -0.19602E+01   512   0.233E+01    0.595E+01
DAV:   8    -0.103897463010E+02    0.10902E+00   -0.12580E+00   640   0.105E+01    0.468E+00
DAV:   9    -0.102325286183E+02    0.15722E+00   -0.98207E-01   496   0.468E+00    0.133E+00
DAV:  10    -0.102421357853E+02   -0.96072E-02   -0.33157E-02   696   0.197E+00    0.415E-01
DAV:  11    -0.102456346183E+02   -0.34988E-02   -0.51457E-03   528   0.102E+00    0.182E-01
DAV:  12    -0.102471124011E+02   -0.14778E-02   -0.31745E-03   696   0.841E-01    0.707E-02
DAV:  13    -0.102476558700E+02   -0.54347E-03   -0.46332E-04   528   0.358E-01    0.318E-02
DAV:  14    -0.102476584679E+02   -0.25979E-05   -0.78182E-05   688   0.116E-01    0.122E-02
DAV:  15    -0.102476773477E+02   -0.18880E-04   -0.29175E-05   496   0.872E-02    0.409E-03
DAV:  16    -0.102476775474E+02   -0.19964E-06   -0.10184E-06   712   0.161E-02
   1 F= -.10247678E+02 E0= -.10247678E+02  d E =0.000000E+00  mag=    -0.0000
 writing wavefunctions
