
Running Job 1 of 1 mol.qin
qchem mol.qin_442517.0 /tmp/scratch/scratch/ 0
/nopt/nrel/apps/q-chem/5.2/exe/qcprog.exe_s mol.qin_442517.0 /tmp/scratch/scratch/
                  Welcome to Q-Chem
     A Quantum Leap Into The Future Of Chemistry


 Q-Chem 5.2, Q-Chem, Inc., Pleasanton, CA (2019)

 Yihan Shao,  Zhengting Gan,  E. Epifanovsky,  A. T. B. Gilbert,  M. Wormit,  
 J. Kussmann,  A. W. Lange,  A. Behn,  Jia Deng,  Xintian Feng,  D. Ghosh,  
 M. Goldey,  P. R. Horn,  L. D. Jacobson,  I. Kaliman,  T. Kus,  A. Landau,  
 Jie Liu,  E. I. Proynov,  R. M. Richard,  R. P. Steele,  E. J. Sundstrom,  
 H. L. Woodcock III,  P. M. Zimmerman,  D. Zuev,  B. Alam,  B. Albrecht,  
 E. Alguire,  S. A. Baeppler,  D. Barton,  Z. Benda,  Y. A. Bernard,  
 E. J. Berquist,  K. B. Bravaya,  H. Burton,  K. Carter-Fenk,  D. Casanova,  
 Chun-Min Chang,  Yunqing Chen,  A. Chien,  K. D. Closser,  M. P. Coons,  
 S. Coriani,  S. Dasgupta,  A. L. Dempwolff,  M. Diedenhofen,  Hainam Do,  
 R. G. Edgar,  Po-Tung Fang,  S. Faraji,  S. Fatehi,  Qingguo Feng,  
 J. Fosso-Tande,  J. Gayvert,  Qinghui Ge,  A. Ghysels,  G. Gidofalvi,  
 J. Gomes,  J. Gonthier,  A. Gunina,  D. Hait,  M. W. D. Hanson-Heine,  
 P. H. P. Harbach,  A. W. Hauser,  M. F. Herbst,  J. E. Herr,  
 E. G. Hohenstein,  Z. C. Holden,  Kerwin Hui,  B. C. Huynh,  T.-C. Jagau,  
 Hyunjun Ji,  B. Kaduk,  K. Khistyaev,  Jaehoon Kim,  P. Klunzinger,  K. Koh,  
 D. Kosenkov,  L. Koulias,  T. Kowalczyk,  C. M. Krauter,  A. Kunitsa,  
 Ka Un Lao,  A. Laurent,  K. V. Lawler,  Joonho Lee,  D. Lefrancois,  
 S. Lehtola,  D. S. Levine,  Yi-Pei Li,  You-Sheng Lin,  Fenglai Liu,  
 Kuan-Yu Liu,  E. Livshits,  M. Loipersberger,  A. Luenser,  P. Manohar,  
 E. Mansoor,  S. F. Manzer,  Shan-Ping Mao,  Yuezhi Mao,  N. Mardirossian,  
 A. V. Marenich,  T. Markovich,  L. A. Martinez-Martinez,  S. A. Maurer,  
 N. J. Mayhall,  S. C. McKenzie,  J.-M. Mewes,  P. Morgante,  A. F. Morrison,  
 J. W. Mullinax,  K. Nanda,  T. S. Nguyen-Beck,  R. Olivares-Amaya,  
 J. A. Parkhill,  S. K. Paul,  Zheng Pei,  T. M. Perrine,  F. Plasser,  
 P. Pokhilko,  S. Prager,  A. Prociuk,  E. Ramos,  B. Rana,  D. R. Rehn,  
 F. Rob,  M. Scheurer,  M. Schneider,  N. Sergueev,  S. M. Sharada,  
 S. Sharma,  D. W. Small,  T. Stauch,  C. J. Stein,  T. Stein,  Yu-Chuan Su,  
 S. P. Veccham,  A. J. W. Thom,  A. Tkatchenko,  T. Tsuchimochi,  
 N. M. Tubman,  L. Vogt,  M. L. Vidal,  O. Vydrov,  M. A. Watson,  J. Wenzel,  
 M. de Wergifosse,  T. A. Wesolowski,  A. White,  J. Witte,  A. Yamada,  
 Jun Yang,  K. Yao,  S. Yeganeh,  S. R. Yost,  Zhi-Qiang You,  A. Zech,  
 Igor Ying Zhang,  Xing Zhang,  Yan Zhao,  Ying Zhu,  B. R. Brooks,  
 G. K. L. Chan,  C. J. Cramer,  M. S. Gordon,  W. J. Hehre,  A. Klamt,  
 M. W. Schmidt,  C. D. Sherrill,  D. G. Truhlar,  A. Aspuru-Guzik,  R. Baer,  
 A. T. Bell,  N. A. Besley,  Jeng-Da Chai,  A. E. DePrince, III,  
 R. A. DiStasio Jr.,  A. Dreuw,  B. D. Dunietz,  T. R. Furlani,  
 Chao-Ping Hsu,  Yousung Jung,  Jing Kong,  D. S. Lambrecht,  WanZhen Liang,  
 C. Ochsenfeld,  V. A. Rassolov,  L. V. Slipchenko,  J. E. Subotnik,  
 T. Van Voorhis,  J. M. Herbert,  A. I. Krylov,  P. M. W. Gill,  M. Head-Gordon

 Contributors to earlier versions of Q-Chem not listed above: 
 R. D. Adamson,  B. Austin,  J. Baker,  G. J. O. Beran,  K. Brandhorst,  
 S. T. Brown,  E. F. C. Byrd,  A. K. Chakraborty,  C.-L. Cheng,  
 Siu Hung Chien,  D. M. Chipman,  D. L. Crittenden,  H. Dachsel,  
 R. J. Doerksen,  A. D. Dutoi,  L. Fusti-Molnar,  W. A. Goddard III,  
 A. Golubeva-Zadorozhnaya,  S. R. Gwaltney,  G. Hawkins,  A. Heyden,  
 S. Hirata,  G. Kedziora,  F. J. Keil,  C. Kelley,  Jihan Kim,  R. A. King,  
 R. Z. Khaliullin,  P. P. Korambath,  W. Kurlancheek,  A. M. Lee,  M. S. Lee,  
 S. V. Levchenko,  Ching Yeh Lin,  D. Liotard,  R. C. Lochan,  I. Lotan,  
 P. E. Maslen,  N. Nair,  D. P. O'Neill,  D. Neuhauser,  E. Neuscamman,  
 C. M. Oana,  R. Olson,  B. Peters,  R. Peverati,  P. A. Pieniazek,  
 Y. M. Rhee,  J. Ritchie,  M. A. Rohrdanz,  E. Rosta,  N. J. Russ,  
 H. F. Schaefer III,  N. E. Schultz,  N. Shenvi,  A. C. Simmonett,  A. Sodt,  
 D. Stuck,  K. S. Thanthiriwatte,  V. Vanovschi,  Tao Wang,  A. Warshel,  
 C. F. Williams,  Q. Wu,  X. Xu,  W. Zhang

 Please cite Q-Chem as follows:
 Y. Shao et al., Mol. Phys. 113, 184-215 (2015)
 DOI: 10.1080/00268976.2014.952696

 Q-Chem 5.2.2 for Intel X86 EM64T Linux

 Parts of Q-Chem use Armadillo 8.300.2 (Tropical Shenanigans).
 http://arma.sourceforge.net/

 Q-Chem begins on Mon Dec 30 06:48:30 2019  

Host: 
0

     Scratch files written to /tmp/scratch/scratch//
 Nov2519 |scratch|qcdevops|jenkins|workspace|build_RNUM -1
Processing $rem in /nopt/nrel/apps/q-chem/5.2/config/preferences:
	 MEM_TOTAL  24000 
NAlpha2: 46
NElect   46
Mult     1
Symmetry turned off for PCM/SM12/SMD calculation

Checking the input file for inconsistencies... 	...done.

--------------------------------------------------------------
User input:
--------------------------------------------------------------
$molecule
0 1
O     -0.5741620000      1.2402830000     -0.0725710000
C     -0.0348010000     -0.0161700000     -0.0190530000
C      1.4924970000     -0.0670660000     -0.0948500000
O      2.0100290000     -1.2753940000     -0.1296980000
Li     -1.0556250000      2.8018570000      0.0009580000
H     -0.3783470000     -0.6527700000     -0.8593740000
H     -0.3088140000     -0.5625060000      0.9070080000
F      1.9761310000      0.6348910000      1.1205810000
H      1.8592770000      0.6091610000     -0.8894920000
Li      2.6138150000     -2.8122960000      0.0364910000
$end

$rem
job_type = sp
basis = def2-tzvppd
max_scf_cycles = 200
gen_scfman = true
xc_grid = 3
scf_algorithm = diis
resp_charges = true
symmetry = false
sym_ignore = true
method = wb97xv
solvent_method = smd
ideriv = 1
plots = true
make_cube_files = true
thresh = 14
scf_guess_always = true
$end

$smx
solvent other
$end

$plots
grid_spacing 0.05
total_density 0
$end
--------------------------------------------------------------
 ----------------------------------------------------------------
             Standard Nuclear Orientation (Angstroms)
    I     Atom           X                Y                Z
 ----------------------------------------------------------------
    1      O      -0.5741620000     1.2402830000    -0.0725710000
    2      C      -0.0348010000    -0.0161700000    -0.0190530000
    3      C       1.4924970000    -0.0670660000    -0.0948500000
    4      O       2.0100290000    -1.2753940000    -0.1296980000
    5      Li     -1.0556250000     2.8018570000     0.0009580000
    6      H      -0.3783470000    -0.6527700000    -0.8593740000
    7      H      -0.3088140000    -0.5625060000     0.9070080000
    8      F       1.9761310000     0.6348910000     1.1205810000
    9      H       1.8592770000     0.6091610000    -0.8894920000
   10      Li      2.6138150000    -2.8122960000     0.0364910000
 ----------------------------------------------------------------
 Nuclear Repulsion Energy =         214.70693046 hartrees
 There are       23 alpha and       23 beta electrons
 Requested basis set is def2-TZVPPD
 There are 109 shells and 289 basis functions

 Total QAlloc Memory Limit  24000 MB
 Mega-Array Size       188 MB
 MEM_STATIC part       192 MB
 
 Citation of the SMD model:
 Marenich, A.V.; Cramer, C.J.; Truhlar, D.G.
 J. Phys. Chem. B 2009, 113, 6378-6396.
 iSolventCode=           0
 Solvent: other                                                           
 
 vradii
            1           2           3           4           5           6
    1   2.2940000   1.8500000   1.8500000   2.2940000   2.1476001   1.2000000
            7           8           9          10
    1   1.2000000   1.7300000   1.2000000   2.1476001
 Changing PCM_VDW_RADII to SMD_RADIUS
 Discretize the solute cavity surface with Lebedev spheres
	Using 110 Lebedev grid points for each H atom
	Using 194 Lebedev grid points for other atoms
	Atomic van der Waals radii will be scaled by 1.20
 Remove points where switching function is < 1.0e-08
 Keep 846 surface tesserae and discard 842 interior tesserae
 Molecular Surface Area = 167.934 Angst**2

                       Distance Matrix (Angstroms)
             O (  1)   C (  2)   C (  3)   O (  4)   Li(  5)   H (  6)
   C (  2)  1.368374
   C (  3)  2.445555  1.530024
   O (  4)  3.606929  2.404000  1.314956
   Li(  5)  1.635765  2.997292  3.838336  5.102870
   H (  6)  2.059381  1.108793  2.104187  2.573796  3.623993
   H (  7)  2.068824  1.109574  2.119882  2.638181  3.563368  1.770053
   F (  8)  2.879949  2.401352  1.484560  2.283317  3.891123  3.334945
   H (  9)  2.643350  2.176289  1.106014  2.037538  3.754660  2.569112
   Li( 10)  5.157372  3.851827  2.968315  1.659592  6.707068  3.797257
             H (  7)   F (  8)   H (  9)
   F (  8)  2.588503
   H (  9)  3.049727  2.013631
   Li( 10)  3.789606  3.669467  3.623967
 
 A cutoff of  1.0D-14 yielded   5702 shell pairs
 There are     40932 function pairs (     51615 Cartesian)
 Smallest overlap matrix eigenvalue = 1.55E-05

 Scale SEOQF with 1.000000e-01/1.000000e-01/1.000000e-01

 Standard Electronic Orientation quadrupole field applied
 Nucleus-field energy     =     0.0000000080 hartrees
 Guess from superposition of atomic densities
 Warning:  Energy on first SCF cycle will be non-variational
 SAD guess density has 46.000000 electrons

 -----------------------------------------------------------------------
  General SCF calculation program by
  Eric Jon Sundstrom, Paul Horn, Yuezhi Mao, Dmitri Zuev, Alec White,
  David Stuck, Shaama M.S., Shane Yost, Joonho Lee, David Small,
  Daniel Levine, Susi Lehtola, Hugh Burton, Evgeny Epifanovsky,
  Bang C. Huynh
 -----------------------------------------------------------------------
 Exchange:     0.1670 Hartree-Fock + 1.0000 wB97X-V + LR-HF
 Correlation:  1.0000 wB97X-V
 Using SG-3 standard quadrature grid
 Nonlocal Correlation:  VV10 with C = 0.0100 and b = 6.00 and scale = 1.00000
 Grid used for NLC:  SG-1 standard quadrature
 
 Citation of the SMD model:
 Marenich, A.V.; Cramer, C.J.; Truhlar, D.G.
 J. Phys. Chem. B 2009, 113, 6378-6396.
 iSolventCode=           0
 Solvent: other                                                           
 
 vradii
            1           2           3           4           5           6
    1   2.2940000   1.8500000   1.8500000   2.2940000   2.1476001   1.2000000
            7           8           9          10
    1   1.2000000   1.7300000   1.2000000   2.1476001
 using 32 threads for integral computing
 -------------------------------------------------------
 OpenMP Integral computing Module                
 Release: version 1.0, May 2013, Q-Chem Inc. Pittsburgh 
 -------------------------------------------------------
 using 32 threads for integral computing
 -------------------------------------------------------
 OpenMP Integral computing Module                
 Release: version 1.0, May 2013, Q-Chem Inc. Pittsburgh 
 -------------------------------------------------------
 -------------------------------------------------------
 OpenMP BLAS3 based DFT computing Module                
 Release: version 1.0, May 2013, Q-Chem Inc. Pittsburgh 
 -------------------------------------------------------
 -------------------------------------------------------
 OpenMP BLAS3 based DFT computing Module                
 Release: version 1.0, May 2013, Q-Chem Inc. Pittsburgh 
 -------------------------------------------------------
 -------------------------------------------------------
 OpenMP BLAS3 based DFT computing Module                
 Release: version 1.0, May 2013, Q-Chem Inc. Pittsburgh 
 -------------------------------------------------------
 A restricted SCF calculation will be
 performed using DIIS
 SCF converges when DIIS error is below 1.0e-05
 ---------------------------------------
  Cycle       Energy         DIIS error
 ---------------------------------------
    1    -343.7022673913      2.27e-02  
    2    -343.1905439742      6.03e-03  
    3    -343.1471364817      6.96e-03  
    4    -343.4799339383      3.85e-04  
    5    -343.4805699706      2.63e-04  
    6    -343.4810052595      5.55e-05  
    7    -343.4810304824      1.04e-05  
    8    -343.4810317724      4.79e-06  Convergence criterion met
 ---------------------------------------
 SCF time:   CPU 439.08s  wall 15.00s 
(3)  G-ENP(liq) elect-nuc-pol free energy of system     -343.481031772 a.u.
(4)  G-CDS(liq) cavity-dispersion-solvent structure 
     free energy                                               -0.6334 kcal/mol
(6)  G-S(liq) free energy of system                     -343.482041160 a.u.
 SCF   energy in the final basis set =     -343.4810317724
 Total energy in the final basis set =     -343.4820411597
 
 --------------------------------------------------------------
 
                    Orbital Energies (a.u.)
 --------------------------------------------------------------
 
 Alpha MOs
 -- Occupied --
-24.6882 -19.1325 -19.1093 -10.3373 -10.2667  -2.0954  -2.0775  -1.2554
 -1.0769  -1.0371  -0.7810  -0.6785  -0.5804  -0.5448  -0.5366  -0.4908
 -0.4811  -0.4445  -0.4402  -0.3655  -0.3434  -0.3073  -0.2957
 -- Virtual --
  0.0275   0.0289   0.0438   0.0453   0.0523   0.0542   0.0547   0.0702
  0.1161   0.1267   0.1276   0.1294   0.1406   0.1504   0.1528   0.1549
  0.1567   0.1612   0.1641   0.1849   0.1913   0.1994   0.2051   0.2167
  0.2202   0.2226   0.2324   0.2638   0.2709   0.3016   0.3193   0.3244
  0.3312   0.3409   0.3456   0.3540   0.3605   0.3727   0.3800   0.3850
  0.3908   0.3990   0.4061   0.4145   0.4212   0.4249   0.4328   0.4348
  0.4379   0.4420   0.4450   0.4539   0.4596   0.4648   0.4754   0.4790
  0.4919   0.5024   0.5044   0.5168   0.5250   0.5373   0.5445   0.5469
  0.5692   0.5800   0.5948   0.6095   0.6240   0.6258   0.6425   0.6540
  0.6758   0.6925   0.7068   0.7237   0.7289   0.7481   0.7561   0.7776
  0.7860   0.7895   0.7996   0.8287   0.8337   0.8652   0.8808   0.8968
  0.9028   0.9149   0.9197   0.9501   0.9686   0.9735   0.9953   1.0259
  1.0629   1.0760   1.0906   1.0944   1.1016   1.1170   1.1493   1.1682
  1.1928   1.2231   1.2422   1.2633   1.2684   1.2873   1.3160   1.3237
  1.3543   1.3598   1.3826   1.3902   1.4107   1.4322   1.4743   1.4899
  1.5074   1.5257   1.5772   1.6156   1.6767   1.7502   1.7572   1.7805
  1.8103   1.9289   1.9821   1.9982   2.0537   2.0783   2.0818   2.1019
  2.1482   2.1579   2.1861   2.2059   2.3065   2.3291   2.4134   2.4396
  2.4684   2.5185   2.5475   2.5783   2.6117   2.6437   2.6712   2.8015
  2.8181   2.8710   2.9039   2.9611   2.9832   3.0390   3.0790   3.1057
  3.1324   3.1775   3.2000   3.2658   3.2975   3.3023   3.3140   3.3575
  3.3834   3.4185   3.4240   3.4680   3.4904   3.5256   3.5530   3.5679
  3.6148   3.6266   3.6911   3.7321   3.7956   3.8160   3.8238   3.8536
  3.8783   3.9803   4.0161   4.0554   4.0884   4.1157   4.1627   4.2146
  4.2219   4.3100   4.3392   4.3816   4.4043   4.4685   4.4857   4.5324
  4.6599   4.7654   4.7934   4.8269   4.9357   4.9836   5.0142   5.0368
  5.1511   5.1639   5.2138   5.2667   5.3381   5.3577   5.3838   5.4529
  5.5159   5.5370   5.5899   5.6422   5.6675   5.7361   5.7534   5.7963
  5.9180   6.1277   6.1363   6.1607   6.1696   6.1937   6.2107   6.2280
  6.2421   6.2871   6.3655   6.6405   6.6542   6.7169   6.7513   6.7706
  6.8060   6.9979   7.0505   7.0662   7.1144   7.1336   7.1668   7.2172
  7.2651   7.3880   7.3973   7.4443   7.4855   7.5373   8.7145   8.7607
  8.9892   9.0020   9.4660  15.1983  15.2399  23.3863  23.6612  44.2362
 44.3903  57.6046
 --------------------------------------------------------------
 
          Ground-State Mulliken Net Atomic Charges

     Atom                 Charge (a.u.)
  ----------------------------------------
      1 O                    -0.917854
      2 C                    -0.004690
      3 C                     0.432813
      4 O                    -0.913190
      5 Li                    0.877457
      6 H                     0.021940
      7 H                     0.004123
      8 F                    -0.389103
      9 H                    -0.004743
     10 Li                    0.893249
  ----------------------------------------
  Sum of atomic charges =     0.000000

  Building new vdw surfaces
         Merz-Kollman RESP Net Atomic Charges

     Atom                 Charge (a.u.)
  ----------------------------------------
      1 O                    -0.991187
      2 C                    -0.012341
      3 C                     0.714864
      4 O                    -1.115649
      5 Li                    0.855361
      6 H                     0.054751
      7 H                     0.054751
      8 F                    -0.459532
      9 H                    -0.018841
     10 Li                    0.917821
  ----------------------------------------
  Sum of atomic charges =     0.000000

  Related Dipole Moment =     2.5079 (X -0.4356 Y -1.9624 Z -1.4996)

 -----------------------------------------------------------------
                    Cartesian Multipole Moments
 -----------------------------------------------------------------
    Charge (ESU x 10^10)
                 0.0000
    Dipole Moment (Debye)
         X      -0.4025      Y      -1.9061      Z      -1.4447
       Tot       2.4253
    Quadrupole Moments (Debye-Ang)
        XX     -23.9063     XY     -31.6886     YY      16.4448
        XZ      -3.6862     YZ      -2.2840     ZZ     -37.2441
    Octopole Moments (Debye-Ang^2)
       XXX     -63.8099    XXY     -56.7291    XYY      11.5787
       YYY     -11.3117    XXZ      -9.9813    XYZ      -6.5851
       YYZ      -1.4195    XZZ     -35.8887    YZZ      -4.8543
       ZZZ     -14.0256
    Hexadecapole Moments (Debye-Ang^3)
      XXXX    -368.4667   XXXY    -126.2073   XXYY     120.4444
      XYYY    -277.6398   YYYY     278.9746   XXXZ     -39.0121
      XXYZ     -17.3486   XYYZ      -5.4760   YYYZ     -16.3597
      XXZZ    -106.0610   XYZZ      21.0078   YYZZ     -62.1335
      XZZZ     -33.2663   YZZZ     -13.4165   ZZZZ     -96.7645
 -----------------------------------------------------------------
Grid information in Angstroms:
 x:        194  min =  -4.055625 max =   5.613815
 y:        233  min =  -5.812296 max =   5.801857
 z:        161  min =  -3.889492 max =   4.120581
 Plotting total densities:  0
 Created directory /tmp/scratch/scratch/plots
Archival summary:
1\1\r3i5n5\SP\ProcedureUnspecified\BasisUnspecified\122i23\sblau\MonDec3006:49:192019MonDec3006:49:192019\0\\#,ProcedureUnspecified,BasisUnspecified,\\0,1\F\C,1,1.48456\H,2,1.10601,1,101.017\O,2,1.31496,1,109.146,3,120.81,0\C,2,1.53002,1,105.599,3,-114.875,0\H,5,1.10879,2,104.634,1,-172.99,0\H,5,1.10957,2,105.752,1,-61.4495,0\O,5,1.36837,2,114.965,1,63.674,0\Li,8,1.63576,5,172.231,2,-42.4712,0\Li,4,1.65959,2,172.53,1,44.3548,0\\\@

 Total job time:  49.54s(wall), 1550.03s(cpu) 
 Mon Dec 30 06:49:19 2019

        *************************************************************
        *                                                           *
        *  Thank you very much for using Q-Chem.  Have a nice day.  *
        *                                                           *
        *************************************************************


