<?xml version="1.0" encoding="ISO-8859-1"?>
<modeling>
 <generator>
  <i name="program" type="string">vasp </i>
  <i name="version" type="string">5.3.5  </i>
  <i name="subversion" type="string">31Mar14 (build Oct 24 2014 12:38:34) complex                          parallel </i>
  <i name="platform" type="string">LinuxIFC </i>
  <i name="date" type="string">2016 10 20 </i>
  <i name="time" type="string">19:08:47 </i>
 </generator>
 <incar>
  <i type="int" name="ISTART">     1</i>
  <i type="string" name="PREC">accurate</i>
  <i type="string" name="ALGO"> Normal</i>
  <i type="int" name="ISPIN">     2</i>
  <i type="int" name="ICHARG">     0</i>
  <i type="int" name="NELM">   100</i>
  <i type="int" name="IBRION">    -1</i>
  <i name="EDIFF">      0.00025000</i>
  <i type="int" name="NSW">     0</i>
  <i type="int" name="ISIF">     3</i>
  <i name="ENCUT">    520.00000000</i>
  <v name="MAGMOM">      0.00000000      0.00000000      0.00000000      0.00000000      0.00000000</v>
  <i type="string" name="LREAL"> Auto</i>
  <i type="int" name="ISMEAR">    -5</i>
  <i name="SIGMA">      0.05000000</i>
  <i type="logical" name="LWAVE"> T  </i>
  <i type="logical" name="LCHARG"> T  </i>
  <i type="logical" name="LVHAR"> T  </i>
  <i type="logical" name="LORBIT"> F  </i>
  <i type="logical" name="LAECHG"> T  </i>
  <i type="int" name="NELM">   100</i>
 </incar>
 <kpoints>
  <generation param="Gamma">
   <v type="int" name="divisions">       8        8        8 </v>
   <v name="usershift">      0.00000000       0.00000000       0.00000000 </v>
   <v name="genvec1">      0.12500000       0.00000000       0.00000000 </v>
   <v name="genvec2">      0.00000000       0.12500000       0.00000000 </v>
   <v name="genvec3">      0.00000000       0.00000000       0.12500000 </v>
   <v name="shift">      0.00000000       0.00000000       0.00000000 </v>
  </generation>
  <varray name="kpointlist" >
   <v>       0.00000000       0.00000000       0.00000000 </v>
   <v>       0.12500000       0.00000000       0.00000000 </v>
   <v>       0.25000000       0.00000000       0.00000000 </v>
   <v>       0.37500000       0.00000000       0.00000000 </v>
   <v>       0.50000000       0.00000000       0.00000000 </v>
   <v>       0.12500000       0.12500000       0.00000000 </v>
   <v>       0.25000000       0.12500000       0.00000000 </v>
   <v>       0.37500000       0.12500000       0.00000000 </v>
   <v>       0.50000000       0.12500000       0.00000000 </v>
   <v>       0.25000000       0.25000000       0.00000000 </v>
   <v>       0.37500000       0.25000000       0.00000000 </v>
   <v>       0.50000000       0.25000000       0.00000000 </v>
   <v>       0.37500000       0.37500000       0.00000000 </v>
   <v>       0.50000000       0.37500000       0.00000000 </v>
   <v>       0.50000000       0.50000000       0.00000000 </v>
   <v>       0.00000000       0.00000000       0.12500000 </v>
   <v>       0.12500000       0.00000000       0.12500000 </v>
   <v>       0.25000000       0.00000000       0.12500000 </v>
   <v>       0.37500000       0.00000000       0.12500000 </v>
   <v>       0.50000000       0.00000000       0.12500000 </v>
   <v>       0.12500000       0.12500000       0.12500000 </v>
   <v>       0.25000000       0.12500000       0.12500000 </v>
   <v>       0.37500000       0.12500000       0.12500000 </v>
   <v>       0.50000000       0.12500000       0.12500000 </v>
   <v>       0.25000000       0.25000000       0.12500000 </v>
   <v>       0.37500000       0.25000000       0.12500000 </v>
   <v>       0.50000000       0.25000000       0.12500000 </v>
   <v>       0.37500000       0.37500000       0.12500000 </v>
   <v>       0.50000000       0.37500000       0.12500000 </v>
   <v>       0.50000000       0.50000000       0.12500000 </v>
   <v>       0.00000000       0.00000000       0.25000000 </v>
   <v>       0.12500000       0.00000000       0.25000000 </v>
   <v>       0.25000000       0.00000000       0.25000000 </v>
   <v>       0.37500000       0.00000000       0.25000000 </v>
   <v>       0.50000000       0.00000000       0.25000000 </v>
   <v>       0.12500000       0.12500000       0.25000000 </v>
   <v>       0.25000000       0.12500000       0.25000000 </v>
   <v>       0.37500000       0.12500000       0.25000000 </v>
   <v>       0.50000000       0.12500000       0.25000000 </v>
   <v>       0.25000000       0.25000000       0.25000000 </v>
   <v>       0.37500000       0.25000000       0.25000000 </v>
   <v>       0.50000000       0.25000000       0.25000000 </v>
   <v>       0.37500000       0.37500000       0.25000000 </v>
   <v>       0.50000000       0.37500000       0.25000000 </v>
   <v>       0.50000000       0.50000000       0.25000000 </v>
   <v>       0.00000000       0.00000000       0.37500000 </v>
   <v>       0.12500000       0.00000000       0.37500000 </v>
   <v>       0.25000000       0.00000000       0.37500000 </v>
   <v>       0.37500000       0.00000000       0.37500000 </v>
   <v>       0.50000000       0.00000000       0.37500000 </v>
   <v>       0.12500000       0.12500000       0.37500000 </v>
   <v>       0.25000000       0.12500000       0.37500000 </v>
   <v>       0.37500000       0.12500000       0.37500000 </v>
   <v>       0.50000000       0.12500000       0.37500000 </v>
   <v>       0.25000000       0.25000000       0.37500000 </v>
   <v>       0.37500000       0.25000000       0.37500000 </v>
   <v>       0.50000000       0.25000000       0.37500000 </v>
   <v>       0.37500000       0.37500000       0.37500000 </v>
   <v>       0.50000000       0.37500000       0.37500000 </v>
   <v>       0.50000000       0.50000000       0.37500000 </v>
   <v>       0.00000000       0.00000000       0.50000000 </v>
   <v>       0.12500000       0.00000000       0.50000000 </v>
   <v>       0.25000000       0.00000000       0.50000000 </v>
   <v>       0.37500000       0.00000000       0.50000000 </v>
   <v>       0.50000000       0.00000000       0.50000000 </v>
   <v>       0.12500000       0.12500000       0.50000000 </v>
   <v>       0.25000000       0.12500000       0.50000000 </v>
   <v>       0.37500000       0.12500000       0.50000000 </v>
   <v>       0.50000000       0.12500000       0.50000000 </v>
   <v>       0.25000000       0.25000000       0.50000000 </v>
   <v>       0.37500000       0.25000000       0.50000000 </v>
   <v>       0.50000000       0.25000000       0.50000000 </v>
   <v>       0.37500000       0.37500000       0.50000000 </v>
   <v>       0.50000000       0.37500000       0.50000000 </v>
   <v>       0.50000000       0.50000000       0.50000000 </v>
  </varray>
  <varray name="weights" >
   <v>       0.00195312 </v>
   <v>       0.00781250 </v>
   <v>       0.00781250 </v>
   <v>       0.00781250 </v>
   <v>       0.00390625 </v>
   <v>       0.00781250 </v>
   <v>       0.01562500 </v>
   <v>       0.01562500 </v>
   <v>       0.00781250 </v>
   <v>       0.00781250 </v>
   <v>       0.01562500 </v>
   <v>       0.00781250 </v>
   <v>       0.00781250 </v>
   <v>       0.00781250 </v>
   <v>       0.00195312 </v>
   <v>       0.00390625 </v>
   <v>       0.01562500 </v>
   <v>       0.01562500 </v>
   <v>       0.01562500 </v>
   <v>       0.00781250 </v>
   <v>       0.01562500 </v>
   <v>       0.03125000 </v>
   <v>       0.03125000 </v>
   <v>       0.01562500 </v>
   <v>       0.01562500 </v>
   <v>       0.03125000 </v>
   <v>       0.01562500 </v>
   <v>       0.01562500 </v>
   <v>       0.01562500 </v>
   <v>       0.00390625 </v>
   <v>       0.00390625 </v>
   <v>       0.01562500 </v>
   <v>       0.01562500 </v>
   <v>       0.01562500 </v>
   <v>       0.00781250 </v>
   <v>       0.01562500 </v>
   <v>       0.03125000 </v>
   <v>       0.03125000 </v>
   <v>       0.01562500 </v>
   <v>       0.01562500 </v>
   <v>       0.03125000 </v>
   <v>       0.01562500 </v>
   <v>       0.01562500 </v>
   <v>       0.01562500 </v>
   <v>       0.00390625 </v>
   <v>       0.00390625 </v>
   <v>       0.01562500 </v>
   <v>       0.01562500 </v>
   <v>       0.01562500 </v>
   <v>       0.00781250 </v>
   <v>       0.01562500 </v>
   <v>       0.03125000 </v>
   <v>       0.03125000 </v>
   <v>       0.01562500 </v>
   <v>       0.01562500 </v>
   <v>       0.03125000 </v>
   <v>       0.01562500 </v>
   <v>       0.01562500 </v>
   <v>       0.01562500 </v>
   <v>       0.00390625 </v>
   <v>       0.00195312 </v>
   <v>       0.00781250 </v>
   <v>       0.00781250 </v>
   <v>       0.00781250 </v>
   <v>       0.00390625 </v>
   <v>       0.00781250 </v>
   <v>       0.01562500 </v>
   <v>       0.01562500 </v>
   <v>       0.00781250 </v>
   <v>       0.00781250 </v>
   <v>       0.01562500 </v>
   <v>       0.00781250 </v>
   <v>       0.00781250 </v>
   <v>       0.00781250 </v>
   <v>       0.00195312 </v>
  </varray>
  <varray name="tetrahedronlist"  type="int" >
   <v type="int" >        4        1        2        6       16 </v>
   <v type="int" >        4        2        6       16       17 </v>
   <v type="int" >        4        6       16       17       21 </v>
   <v type="int" >        4        2        3        7       17 </v>
   <v type="int" >        4        2        6        7       17 </v>
   <v type="int" >        4        6        7       17       21 </v>
   <v type="int" >        4        3        7       17       18 </v>
   <v type="int" >        4        7       17       18       22 </v>
   <v type="int" >        4        7       17       21       22 </v>
   <v type="int" >        4        3        4        8       18 </v>
   <v type="int" >        4        3        7        8       18 </v>
   <v type="int" >        4        7        8       18       22 </v>
   <v type="int" >        4        4        8       18       19 </v>
   <v type="int" >        4        8       18       19       23 </v>
   <v type="int" >        4        8       18       22       23 </v>
   <v type="int" >        4        4        5        9       19 </v>
   <v type="int" >        4        4        8        9       19 </v>
   <v type="int" >        4        8        9       19       23 </v>
   <v type="int" >        4        5        9       19       20 </v>
   <v type="int" >        4        9       19       20       24 </v>
   <v type="int" >        4        9       19       23       24 </v>
   <v type="int" >        4        4        5        8       20 </v>
   <v type="int" >        4        5        8        9       20 </v>
   <v type="int" >        4        8        9       20       24 </v>
   <v type="int" >        4        4        8       19       20 </v>
   <v type="int" >        4        8       19       20       23 </v>
   <v type="int" >        4        8       20       23       24 </v>
   <v type="int" >        4        3        4        7       19 </v>
   <v type="int" >        4        4        7        8       19 </v>
   <v type="int" >        4        7        8       19       23 </v>
   <v type="int" >        4        3        7       18       19 </v>
   <v type="int" >        4        7       18       19       22 </v>
   <v type="int" >        4        7       19       22       23 </v>
   <v type="int" >        4        2        3        6       18 </v>
   <v type="int" >        4        3        6        7       18 </v>
   <v type="int" >        4        6        7       18       22 </v>
   <v type="int" >        4        2        6       17       18 </v>
   <v type="int" >        4        6       17       18       21 </v>
   <v type="int" >        4        6       18       21       22 </v>
   <v type="int" >        4        1        2        2       17 </v>
   <v type="int" >        4        2        2        6       17 </v>
   <v type="int" >        4        2        6       17       21 </v>
   <v type="int" >        4        1        2       16       17 </v>
   <v type="int" >        4        2       16       17       17 </v>
   <v type="int" >        4        2       17       17       21 </v>
   <v type="int" >        4        6        7       10       21 </v>
   <v type="int" >        4        7       10       21       22 </v>
   <v type="int" >        4       10       21       22       25 </v>
   <v type="int" >        4        7        8       11       22 </v>
   <v type="int" >        4        7       10       11       22 </v>
   <v type="int" >        4       10       11       22       25 </v>
   <v type="int" >        4        8       11       22       23 </v>
   <v type="int" >        4       11       22       23       26 </v>
   <v type="int" >        4       11       22       25       26 </v>
   <v type="int" >        4        8        9       12       23 </v>
   <v type="int" >        4        8       11       12       23 </v>
   <v type="int" >        4       11       12       23       26 </v>
   <v type="int" >        4        9       12       23       24 </v>
   <v type="int" >        4       12       23       24       27 </v>
   <v type="int" >        4       12       23       26       27 </v>
   <v type="int" >        4        8        9       11       24 </v>
   <v type="int" >        4        9       11       12       24 </v>
   <v type="int" >        4       11       12       24       27 </v>
   <v type="int" >        4        8       11       23       24 </v>
   <v type="int" >        4       11       23       24       26 </v>
   <v type="int" >        4       11       24       26       27 </v>
   <v type="int" >        4        7        8       10       23 </v>
   <v type="int" >        4        8       10       11       23 </v>
   <v type="int" >        4       10       11       23       26 </v>
   <v type="int" >        4        7       10       22       23 </v>
   <v type="int" >        4       10       22       23       25 </v>
   <v type="int" >        4       10       23       25       26 </v>
   <v type="int" >        4        6        7        7       22 </v>
   <v type="int" >        4        7        7       10       22 </v>
   <v type="int" >        4        7       10       22       25 </v>
   <v type="int" >        4        6        7       21       22 </v>
   <v type="int" >        4        7       21       22       22 </v>
   <v type="int" >        4        7       22       22       25 </v>
   <v type="int" >        4        2        3        6       21 </v>
   <v type="int" >        4        3        6        7       21 </v>
   <v type="int" >        4        3        7       21       22 </v>
   <v type="int" >        4        2        3       17       21 </v>
   <v type="int" >        4        3       17       18       21 </v>
   <v type="int" >        4        3       18       21       22 </v>
   <v type="int" >        4       10       11       13       25 </v>
   <v type="int" >        4       11       13       25       26 </v>
   <v type="int" >        4       13       25       26       28 </v>
   <v type="int" >        4       11       12       14       26 </v>
   <v type="int" >        4       11       13       14       26 </v>
   <v type="int" >        4       13       14       26       28 </v>
   <v type="int" >        4       12       14       26       27 </v>
   <v type="int" >        4       14       26       27       29 </v>
   <v type="int" >        4       14       26       28       29 </v>
   <v type="int" >        4       11       12       13       27 </v>
   <v type="int" >        4       12       13       14       27 </v>
   <v type="int" >        4       13       14       27       29 </v>
   <v type="int" >        4       11       13       26       27 </v>
   <v type="int" >        4       13       26       27       28 </v>
   <v type="int" >        4       13       27       28       29 </v>
   <v type="int" >        4       10       11       11       26 </v>
   <v type="int" >        4       11       11       13       26 </v>
   <v type="int" >        4       11       13       26       28 </v>
   <v type="int" >        4       10       11       25       26 </v>
   <v type="int" >        4       11       25       26       26 </v>
   <v type="int" >        4       11       26       26       28 </v>
   <v type="int" >        4        7        8       10       25 </v>
   <v type="int" >        4        8       10       11       25 </v>
   <v type="int" >        4        8       11       25       26 </v>
   <v type="int" >        4        7        8       22       25 </v>
   <v type="int" >        4        8       22       23       25 </v>
   <v type="int" >        4        8       23       25       26 </v>
   <v type="int" >        4        3        4        7       22 </v>
   <v type="int" >        4        4        7        8       22 </v>
   <v type="int" >        4        4        8       22       23 </v>
   <v type="int" >        4        3        4       18       22 </v>
   <v type="int" >        4        4       18       19       22 </v>
   <v type="int" >        4        4       19       22       23 </v>
   <v type="int" >        4       13       14       15       28 </v>
   <v type="int" >        4       14       15       28       29 </v>
   <v type="int" >        4       15       28       29       30 </v>
   <v type="int" >        4       13       14       14       29 </v>
   <v type="int" >        4       14       14       15       29 </v>
   <v type="int" >        4       14       15       29       30 </v>
   <v type="int" >        4       13       14       28       29 </v>
   <v type="int" >        4       14       28       29       29 </v>
   <v type="int" >        4       14       29       29       30 </v>
   <v type="int" >        4       11       12       13       28 </v>
   <v type="int" >        4       12       13       14       28 </v>
   <v type="int" >        4       12       14       28       29 </v>
   <v type="int" >        4       11       12       26       28 </v>
   <v type="int" >        4       12       26       27       28 </v>
   <v type="int" >        4       12       27       28       29 </v>
   <v type="int" >        4        8        9       11       26 </v>
   <v type="int" >        4        9       11       12       26 </v>
   <v type="int" >        4        9       12       26       27 </v>
   <v type="int" >        4        8        9       23       26 </v>
   <v type="int" >        4        9       23       24       26 </v>
   <v type="int" >        4        9       24       26       27 </v>
   <v type="int" >        4        4        5        8       23 </v>
   <v type="int" >        4        5        8        9       23 </v>
   <v type="int" >        4        5        9       23       24 </v>
   <v type="int" >        4        4        5       19       23 </v>
   <v type="int" >        4        5       19       20       23 </v>
   <v type="int" >        4        5       20       23       24 </v>
   <v type="int" >        4       13       14       15       30 </v>
   <v type="int" >        4       13       14       29       30 </v>
   <v type="int" >        4       13       28       29       30 </v>
   <v type="int" >        4       11       12       14       29 </v>
   <v type="int" >        4       11       13       14       29 </v>
   <v type="int" >        4       11       13       28       29 </v>
   <v type="int" >        4       11       12       27       29 </v>
   <v type="int" >        4       11       26       27       29 </v>
   <v type="int" >        4       11       26       28       29 </v>
   <v type="int" >        4        8        9       12       27 </v>
   <v type="int" >        4        8       11       12       27 </v>
   <v type="int" >        4        8       11       26       27 </v>
   <v type="int" >        4        8        9       24       27 </v>
   <v type="int" >        4        8       23       24       27 </v>
   <v type="int" >        4        8       23       26       27 </v>
   <v type="int" >        4        4        5        9       24 </v>
   <v type="int" >        4        4        8        9       24 </v>
   <v type="int" >        4        4        8       23       24 </v>
   <v type="int" >        4        4        5       20       24 </v>
   <v type="int" >        4        4       19       20       24 </v>
   <v type="int" >        4        4       19       23       24 </v>
   <v type="int" >        4       10       11       13       28 </v>
   <v type="int" >        4       10       11       26       28 </v>
   <v type="int" >        4       10       25       26       28 </v>
   <v type="int" >        4        7        8       11       26 </v>
   <v type="int" >        4        7       10       11       26 </v>
   <v type="int" >        4        7       10       25       26 </v>
   <v type="int" >        4        7        8       23       26 </v>
   <v type="int" >        4        7       22       23       26 </v>
   <v type="int" >        4        7       22       25       26 </v>
   <v type="int" >        4        3        4        8       23 </v>
   <v type="int" >        4        3        7        8       23 </v>
   <v type="int" >        4        3        7       22       23 </v>
   <v type="int" >        4        3        4       19       23 </v>
   <v type="int" >        4        3       18       19       23 </v>
   <v type="int" >        4        3       18       22       23 </v>
   <v type="int" >        4        6        7       10       25 </v>
   <v type="int" >        4        6        7       22       25 </v>
   <v type="int" >        4        6       21       22       25 </v>
   <v type="int" >        4        2        3        7       22 </v>
   <v type="int" >        4        2        6        7       22 </v>
   <v type="int" >        4        2        6       21       22 </v>
   <v type="int" >        4        2        3       18       22 </v>
   <v type="int" >        4        2       17       18       22 </v>
   <v type="int" >        4        2       17       21       22 </v>
   <v type="int" >        4        1        2        6       21 </v>
   <v type="int" >        4        1        2       17       21 </v>
   <v type="int" >        4        1       16       17       21 </v>
   <v type="int" >        4       16       17       21       31 </v>
   <v type="int" >        4       17       21       31       32 </v>
   <v type="int" >        4       21       31       32       36 </v>
   <v type="int" >        4       17       18       22       32 </v>
   <v type="int" >        4       17       21       22       32 </v>
   <v type="int" >        4       21       22       32       36 </v>
   <v type="int" >        4       18       22       32       33 </v>
   <v type="int" >        4       22       32       33       37 </v>
   <v type="int" >        4       22       32       36       37 </v>
   <v type="int" >        4       18       19       23       33 </v>
   <v type="int" >        4       18       22       23       33 </v>
   <v type="int" >        4       22       23       33       37 </v>
   <v type="int" >        4       19       23       33       34 </v>
   <v type="int" >        4       23       33       34       38 </v>
   <v type="int" >        4       23       33       37       38 </v>
   <v type="int" >        4       19       20       24       34 </v>
   <v type="int" >        4       19       23       24       34 </v>
   <v type="int" >        4       23       24       34       38 </v>
   <v type="int" >        4       20       24       34       35 </v>
   <v type="int" >        4       24       34       35       39 </v>
   <v type="int" >        4       24       34       38       39 </v>
   <v type="int" >        4       19       20       23       35 </v>
   <v type="int" >        4       20       23       24       35 </v>
   <v type="int" >        4       23       24       35       39 </v>
   <v type="int" >        4       19       23       34       35 </v>
   <v type="int" >        4       23       34       35       38 </v>
   <v type="int" >        4       23       35       38       39 </v>
   <v type="int" >        4       18       19       22       34 </v>
   <v type="int" >        4       19       22       23       34 </v>
   <v type="int" >        4       22       23       34       38 </v>
   <v type="int" >        4       18       22       33       34 </v>
   <v type="int" >        4       22       33       34       37 </v>
   <v type="int" >        4       22       34       37       38 </v>
   <v type="int" >        4       17       18       21       33 </v>
   <v type="int" >        4       18       21       22       33 </v>
   <v type="int" >        4       21       22       33       37 </v>
   <v type="int" >        4       17       21       32       33 </v>
   <v type="int" >        4       21       32       33       36 </v>
   <v type="int" >        4       21       33       36       37 </v>
   <v type="int" >        4       16       17       17       32 </v>
   <v type="int" >        4       17       17       21       32 </v>
   <v type="int" >        4       17       21       32       36 </v>
   <v type="int" >        4       16       17       31       32 </v>
   <v type="int" >        4       17       31       32       32 </v>
   <v type="int" >        4       17       32       32       36 </v>
   <v type="int" >        4       21       22       25       36 </v>
   <v type="int" >        4       22       25       36       37 </v>
   <v type="int" >        4       25       36       37       40 </v>
   <v type="int" >        4       22       23       26       37 </v>
   <v type="int" >        4       22       25       26       37 </v>
   <v type="int" >        4       25       26       37       40 </v>
   <v type="int" >        4       23       26       37       38 </v>
   <v type="int" >        4       26       37       38       41 </v>
   <v type="int" >        4       26       37       40       41 </v>
   <v type="int" >        4       23       24       27       38 </v>
   <v type="int" >        4       23       26       27       38 </v>
   <v type="int" >        4       26       27       38       41 </v>
   <v type="int" >        4       24       27       38       39 </v>
   <v type="int" >        4       27       38       39       42 </v>
   <v type="int" >        4       27       38       41       42 </v>
   <v type="int" >        4       23       24       26       39 </v>
   <v type="int" >        4       24       26       27       39 </v>
   <v type="int" >        4       26       27       39       42 </v>
   <v type="int" >        4       23       26       38       39 </v>
   <v type="int" >        4       26       38       39       41 </v>
   <v type="int" >        4       26       39       41       42 </v>
   <v type="int" >        4       22       23       25       38 </v>
   <v type="int" >        4       23       25       26       38 </v>
   <v type="int" >        4       25       26       38       41 </v>
   <v type="int" >        4       22       25       37       38 </v>
   <v type="int" >        4       25       37       38       40 </v>
   <v type="int" >        4       25       38       40       41 </v>
   <v type="int" >        4       21       22       22       37 </v>
   <v type="int" >        4       22       22       25       37 </v>
   <v type="int" >        4       22       25       37       40 </v>
   <v type="int" >        4       21       22       36       37 </v>
   <v type="int" >        4       22       36       37       37 </v>
   <v type="int" >        4       22       37       37       40 </v>
   <v type="int" >        4       17       18       21       36 </v>
   <v type="int" >        4       18       21       22       36 </v>
   <v type="int" >        4       18       22       36       37 </v>
   <v type="int" >        4       17       18       32       36 </v>
   <v type="int" >        4       18       32       33       36 </v>
   <v type="int" >        4       18       33       36       37 </v>
   <v type="int" >        4       25       26       28       40 </v>
   <v type="int" >        4       26       28       40       41 </v>
   <v type="int" >        4       28       40       41       43 </v>
   <v type="int" >        4       26       27       29       41 </v>
   <v type="int" >        4       26       28       29       41 </v>
   <v type="int" >        4       28       29       41       43 </v>
   <v type="int" >        4       27       29       41       42 </v>
   <v type="int" >        4       29       41       42       44 </v>
   <v type="int" >        4       29       41       43       44 </v>
   <v type="int" >        4       26       27       28       42 </v>
   <v type="int" >        4       27       28       29       42 </v>
   <v type="int" >        4       28       29       42       44 </v>
   <v type="int" >        4       26       28       41       42 </v>
   <v type="int" >        4       28       41       42       43 </v>
   <v type="int" >        4       28       42       43       44 </v>
   <v type="int" >        4       25       26       26       41 </v>
   <v type="int" >        4       26       26       28       41 </v>
   <v type="int" >        4       26       28       41       43 </v>
   <v type="int" >        4       25       26       40       41 </v>
   <v type="int" >        4       26       40       41       41 </v>
   <v type="int" >        4       26       41       41       43 </v>
   <v type="int" >        4       22       23       25       40 </v>
   <v type="int" >        4       23       25       26       40 </v>
   <v type="int" >        4       23       26       40       41 </v>
   <v type="int" >        4       22       23       37       40 </v>
   <v type="int" >        4       23       37       38       40 </v>
   <v type="int" >        4       23       38       40       41 </v>
   <v type="int" >        4       18       19       22       37 </v>
   <v type="int" >        4       19       22       23       37 </v>
   <v type="int" >        4       19       23       37       38 </v>
   <v type="int" >        4       18       19       33       37 </v>
   <v type="int" >        4       19       33       34       37 </v>
   <v type="int" >        4       19       34       37       38 </v>
   <v type="int" >        4       28       29       30       43 </v>
   <v type="int" >        4       29       30       43       44 </v>
   <v type="int" >        4       30       43       44       45 </v>
   <v type="int" >        4       28       29       29       44 </v>
   <v type="int" >        4       29       29       30       44 </v>
   <v type="int" >        4       29       30       44       45 </v>
   <v type="int" >        4       28       29       43       44 </v>
   <v type="int" >        4       29       43       44       44 </v>
   <v type="int" >        4       29       44       44       45 </v>
   <v type="int" >        4       26       27       28       43 </v>
   <v type="int" >        4       27       28       29       43 </v>
   <v type="int" >        4       27       29       43       44 </v>
   <v type="int" >        4       26       27       41       43 </v>
   <v type="int" >        4       27       41       42       43 </v>
   <v type="int" >        4       27       42       43       44 </v>
   <v type="int" >        4       23       24       26       41 </v>
   <v type="int" >        4       24       26       27       41 </v>
   <v type="int" >        4       24       27       41       42 </v>
   <v type="int" >        4       23       24       38       41 </v>
   <v type="int" >        4       24       38       39       41 </v>
   <v type="int" >        4       24       39       41       42 </v>
   <v type="int" >        4       19       20       23       38 </v>
   <v type="int" >        4       20       23       24       38 </v>
   <v type="int" >        4       20       24       38       39 </v>
   <v type="int" >        4       19       20       34       38 </v>
   <v type="int" >        4       20       34       35       38 </v>
   <v type="int" >        4       20       35       38       39 </v>
   <v type="int" >        4       28       29       30       45 </v>
   <v type="int" >        4       28       29       44       45 </v>
   <v type="int" >        4       28       43       44       45 </v>
   <v type="int" >        4       26       27       29       44 </v>
   <v type="int" >        4       26       28       29       44 </v>
   <v type="int" >        4       26       28       43       44 </v>
   <v type="int" >        4       26       27       42       44 </v>
   <v type="int" >        4       26       41       42       44 </v>
   <v type="int" >        4       26       41       43       44 </v>
   <v type="int" >        4       23       24       27       42 </v>
   <v type="int" >        4       23       26       27       42 </v>
   <v type="int" >        4       23       26       41       42 </v>
   <v type="int" >        4       23       24       39       42 </v>
   <v type="int" >        4       23       38       39       42 </v>
   <v type="int" >        4       23       38       41       42 </v>
   <v type="int" >        4       19       20       24       39 </v>
   <v type="int" >        4       19       23       24       39 </v>
   <v type="int" >        4       19       23       38       39 </v>
   <v type="int" >        4       19       20       35       39 </v>
   <v type="int" >        4       19       34       35       39 </v>
   <v type="int" >        4       19       34       38       39 </v>
   <v type="int" >        4       25       26       28       43 </v>
   <v type="int" >        4       25       26       41       43 </v>
   <v type="int" >        4       25       40       41       43 </v>
   <v type="int" >        4       22       23       26       41 </v>
   <v type="int" >        4       22       25       26       41 </v>
   <v type="int" >        4       22       25       40       41 </v>
   <v type="int" >        4       22       23       38       41 </v>
   <v type="int" >        4       22       37       38       41 </v>
   <v type="int" >        4       22       37       40       41 </v>
   <v type="int" >        4       18       19       23       38 </v>
   <v type="int" >        4       18       22       23       38 </v>
   <v type="int" >        4       18       22       37       38 </v>
   <v type="int" >        4       18       19       34       38 </v>
   <v type="int" >        4       18       33       34       38 </v>
   <v type="int" >        4       18       33       37       38 </v>
   <v type="int" >        4       21       22       25       40 </v>
   <v type="int" >        4       21       22       37       40 </v>
   <v type="int" >        4       21       36       37       40 </v>
   <v type="int" >        4       17       18       22       37 </v>
   <v type="int" >        4       17       21       22       37 </v>
   <v type="int" >        4       17       21       36       37 </v>
   <v type="int" >        4       17       18       33       37 </v>
   <v type="int" >        4       17       32       33       37 </v>
   <v type="int" >        4       17       32       36       37 </v>
   <v type="int" >        4       16       17       21       36 </v>
   <v type="int" >        4       16       17       32       36 </v>
   <v type="int" >        4       16       31       32       36 </v>
   <v type="int" >        4       31       32       36       46 </v>
   <v type="int" >        4       32       36       46       47 </v>
   <v type="int" >        4       36       46       47       51 </v>
   <v type="int" >        4       32       33       37       47 </v>
   <v type="int" >        4       32       36       37       47 </v>
   <v type="int" >        4       36       37       47       51 </v>
   <v type="int" >        4       33       37       47       48 </v>
   <v type="int" >        4       37       47       48       52 </v>
   <v type="int" >        4       37       47       51       52 </v>
   <v type="int" >        4       33       34       38       48 </v>
   <v type="int" >        4       33       37       38       48 </v>
   <v type="int" >        4       37       38       48       52 </v>
   <v type="int" >        4       34       38       48       49 </v>
   <v type="int" >        4       38       48       49       53 </v>
   <v type="int" >        4       38       48       52       53 </v>
   <v type="int" >        4       34       35       39       49 </v>
   <v type="int" >        4       34       38       39       49 </v>
   <v type="int" >        4       38       39       49       53 </v>
   <v type="int" >        4       35       39       49       50 </v>
   <v type="int" >        4       39       49       50       54 </v>
   <v type="int" >        4       39       49       53       54 </v>
   <v type="int" >        4       34       35       38       50 </v>
   <v type="int" >        4       35       38       39       50 </v>
   <v type="int" >        4       38       39       50       54 </v>
   <v type="int" >        4       34       38       49       50 </v>
   <v type="int" >        4       38       49       50       53 </v>
   <v type="int" >        4       38       50       53       54 </v>
   <v type="int" >        4       33       34       37       49 </v>
   <v type="int" >        4       34       37       38       49 </v>
   <v type="int" >        4       37       38       49       53 </v>
   <v type="int" >        4       33       37       48       49 </v>
   <v type="int" >        4       37       48       49       52 </v>
   <v type="int" >        4       37       49       52       53 </v>
   <v type="int" >        4       32       33       36       48 </v>
   <v type="int" >        4       33       36       37       48 </v>
   <v type="int" >        4       36       37       48       52 </v>
   <v type="int" >        4       32       36       47       48 </v>
   <v type="int" >        4       36       47       48       51 </v>
   <v type="int" >        4       36       48       51       52 </v>
   <v type="int" >        4       31       32       32       47 </v>
   <v type="int" >        4       32       32       36       47 </v>
   <v type="int" >        4       32       36       47       51 </v>
   <v type="int" >        4       31       32       46       47 </v>
   <v type="int" >        4       32       46       47       47 </v>
   <v type="int" >        4       32       47       47       51 </v>
   <v type="int" >        4       36       37       40       51 </v>
   <v type="int" >        4       37       40       51       52 </v>
   <v type="int" >        4       40       51       52       55 </v>
   <v type="int" >        4       37       38       41       52 </v>
   <v type="int" >        4       37       40       41       52 </v>
   <v type="int" >        4       40       41       52       55 </v>
   <v type="int" >        4       38       41       52       53 </v>
   <v type="int" >        4       41       52       53       56 </v>
   <v type="int" >        4       41       52       55       56 </v>
   <v type="int" >        4       38       39       42       53 </v>
   <v type="int" >        4       38       41       42       53 </v>
   <v type="int" >        4       41       42       53       56 </v>
   <v type="int" >        4       39       42       53       54 </v>
   <v type="int" >        4       42       53       54       57 </v>
   <v type="int" >        4       42       53       56       57 </v>
   <v type="int" >        4       38       39       41       54 </v>
   <v type="int" >        4       39       41       42       54 </v>
   <v type="int" >        4       41       42       54       57 </v>
   <v type="int" >        4       38       41       53       54 </v>
   <v type="int" >        4       41       53       54       56 </v>
   <v type="int" >        4       41       54       56       57 </v>
   <v type="int" >        4       37       38       40       53 </v>
   <v type="int" >        4       38       40       41       53 </v>
   <v type="int" >        4       40       41       53       56 </v>
   <v type="int" >        4       37       40       52       53 </v>
   <v type="int" >        4       40       52       53       55 </v>
   <v type="int" >        4       40       53       55       56 </v>
   <v type="int" >        4       36       37       37       52 </v>
   <v type="int" >        4       37       37       40       52 </v>
   <v type="int" >        4       37       40       52       55 </v>
   <v type="int" >        4       36       37       51       52 </v>
   <v type="int" >        4       37       51       52       52 </v>
   <v type="int" >        4       37       52       52       55 </v>
   <v type="int" >        4       32       33       36       51 </v>
   <v type="int" >        4       33       36       37       51 </v>
   <v type="int" >        4       33       37       51       52 </v>
   <v type="int" >        4       32       33       47       51 </v>
   <v type="int" >        4       33       47       48       51 </v>
   <v type="int" >        4       33       48       51       52 </v>
   <v type="int" >        4       40       41       43       55 </v>
   <v type="int" >        4       41       43       55       56 </v>
   <v type="int" >        4       43       55       56       58 </v>
   <v type="int" >        4       41       42       44       56 </v>
   <v type="int" >        4       41       43       44       56 </v>
   <v type="int" >        4       43       44       56       58 </v>
   <v type="int" >        4       42       44       56       57 </v>
   <v type="int" >        4       44       56       57       59 </v>
   <v type="int" >        4       44       56       58       59 </v>
   <v type="int" >        4       41       42       43       57 </v>
   <v type="int" >        4       42       43       44       57 </v>
   <v type="int" >        4       43       44       57       59 </v>
   <v type="int" >        4       41       43       56       57 </v>
   <v type="int" >        4       43       56       57       58 </v>
   <v type="int" >        4       43       57       58       59 </v>
   <v type="int" >        4       40       41       41       56 </v>
   <v type="int" >        4       41       41       43       56 </v>
   <v type="int" >        4       41       43       56       58 </v>
   <v type="int" >        4       40       41       55       56 </v>
   <v type="int" >        4       41       55       56       56 </v>
   <v type="int" >        4       41       56       56       58 </v>
   <v type="int" >        4       37       38       40       55 </v>
   <v type="int" >        4       38       40       41       55 </v>
   <v type="int" >        4       38       41       55       56 </v>
   <v type="int" >        4       37       38       52       55 </v>
   <v type="int" >        4       38       52       53       55 </v>
   <v type="int" >        4       38       53       55       56 </v>
   <v type="int" >        4       33       34       37       52 </v>
   <v type="int" >        4       34       37       38       52 </v>
   <v type="int" >        4       34       38       52       53 </v>
   <v type="int" >        4       33       34       48       52 </v>
   <v type="int" >        4       34       48       49       52 </v>
   <v type="int" >        4       34       49       52       53 </v>
   <v type="int" >        4       43       44       45       58 </v>
   <v type="int" >        4       44       45       58       59 </v>
   <v type="int" >        4       45       58       59       60 </v>
   <v type="int" >        4       43       44       44       59 </v>
   <v type="int" >        4       44       44       45       59 </v>
   <v type="int" >        4       44       45       59       60 </v>
   <v type="int" >        4       43       44       58       59 </v>
   <v type="int" >        4       44       58       59       59 </v>
   <v type="int" >        4       44       59       59       60 </v>
   <v type="int" >        4       41       42       43       58 </v>
   <v type="int" >        4       42       43       44       58 </v>
   <v type="int" >        4       42       44       58       59 </v>
   <v type="int" >        4       41       42       56       58 </v>
   <v type="int" >        4       42       56       57       58 </v>
   <v type="int" >        4       42       57       58       59 </v>
   <v type="int" >        4       38       39       41       56 </v>
   <v type="int" >        4       39       41       42       56 </v>
   <v type="int" >        4       39       42       56       57 </v>
   <v type="int" >        4       38       39       53       56 </v>
   <v type="int" >        4       39       53       54       56 </v>
   <v type="int" >        4       39       54       56       57 </v>
   <v type="int" >        4       34       35       38       53 </v>
   <v type="int" >        4       35       38       39       53 </v>
   <v type="int" >        4       35       39       53       54 </v>
   <v type="int" >        4       34       35       49       53 </v>
   <v type="int" >        4       35       49       50       53 </v>
   <v type="int" >        4       35       50       53       54 </v>
   <v type="int" >        4       43       44       45       60 </v>
   <v type="int" >        4       43       44       59       60 </v>
   <v type="int" >        4       43       58       59       60 </v>
   <v type="int" >        4       41       42       44       59 </v>
   <v type="int" >        4       41       43       44       59 </v>
   <v type="int" >        4       41       43       58       59 </v>
   <v type="int" >        4       41       42       57       59 </v>
   <v type="int" >        4       41       56       57       59 </v>
   <v type="int" >        4       41       56       58       59 </v>
   <v type="int" >        4       38       39       42       57 </v>
   <v type="int" >        4       38       41       42       57 </v>
   <v type="int" >        4       38       41       56       57 </v>
   <v type="int" >        4       38       39       54       57 </v>
   <v type="int" >        4       38       53       54       57 </v>
   <v type="int" >        4       38       53       56       57 </v>
   <v type="int" >        4       34       35       39       54 </v>
   <v type="int" >        4       34       38       39       54 </v>
   <v type="int" >        4       34       38       53       54 </v>
   <v type="int" >        4       34       35       50       54 </v>
   <v type="int" >        4       34       49       50       54 </v>
   <v type="int" >        4       34       49       53       54 </v>
   <v type="int" >        4       40       41       43       58 </v>
   <v type="int" >        4       40       41       56       58 </v>
   <v type="int" >        4       40       55       56       58 </v>
   <v type="int" >        4       37       38       41       56 </v>
   <v type="int" >        4       37       40       41       56 </v>
   <v type="int" >        4       37       40       55       56 </v>
   <v type="int" >        4       37       38       53       56 </v>
   <v type="int" >        4       37       52       53       56 </v>
   <v type="int" >        4       37       52       55       56 </v>
   <v type="int" >        4       33       34       38       53 </v>
   <v type="int" >        4       33       37       38       53 </v>
   <v type="int" >        4       33       37       52       53 </v>
   <v type="int" >        4       33       34       49       53 </v>
   <v type="int" >        4       33       48       49       53 </v>
   <v type="int" >        4       33       48       52       53 </v>
   <v type="int" >        4       36       37       40       55 </v>
   <v type="int" >        4       36       37       52       55 </v>
   <v type="int" >        4       36       51       52       55 </v>
   <v type="int" >        4       32       33       37       52 </v>
   <v type="int" >        4       32       36       37       52 </v>
   <v type="int" >        4       32       36       51       52 </v>
   <v type="int" >        4       32       33       48       52 </v>
   <v type="int" >        4       32       47       48       52 </v>
   <v type="int" >        4       32       47       51       52 </v>
   <v type="int" >        4       31       32       36       51 </v>
   <v type="int" >        4       31       32       47       51 </v>
   <v type="int" >        4       31       46       47       51 </v>
   <v type="int" >        4       46       47       51       61 </v>
   <v type="int" >        4       47       51       61       62 </v>
   <v type="int" >        4       51       61       62       66 </v>
   <v type="int" >        4       47       48       52       62 </v>
   <v type="int" >        4       47       51       52       62 </v>
   <v type="int" >        4       51       52       62       66 </v>
   <v type="int" >        4       48       52       62       63 </v>
   <v type="int" >        4       52       62       63       67 </v>
   <v type="int" >        4       52       62       66       67 </v>
   <v type="int" >        4       48       49       53       63 </v>
   <v type="int" >        4       48       52       53       63 </v>
   <v type="int" >        4       52       53       63       67 </v>
   <v type="int" >        4       49       53       63       64 </v>
   <v type="int" >        4       53       63       64       68 </v>
   <v type="int" >        4       53       63       67       68 </v>
   <v type="int" >        4       49       50       54       64 </v>
   <v type="int" >        4       49       53       54       64 </v>
   <v type="int" >        4       53       54       64       68 </v>
   <v type="int" >        4       50       54       64       65 </v>
   <v type="int" >        4       54       64       65       69 </v>
   <v type="int" >        4       54       64       68       69 </v>
   <v type="int" >        4       49       50       53       65 </v>
   <v type="int" >        4       50       53       54       65 </v>
   <v type="int" >        4       53       54       65       69 </v>
   <v type="int" >        4       49       53       64       65 </v>
   <v type="int" >        4       53       64       65       68 </v>
   <v type="int" >        4       53       65       68       69 </v>
   <v type="int" >        4       48       49       52       64 </v>
   <v type="int" >        4       49       52       53       64 </v>
   <v type="int" >        4       52       53       64       68 </v>
   <v type="int" >        4       48       52       63       64 </v>
   <v type="int" >        4       52       63       64       67 </v>
   <v type="int" >        4       52       64       67       68 </v>
   <v type="int" >        4       47       48       51       63 </v>
   <v type="int" >        4       48       51       52       63 </v>
   <v type="int" >        4       51       52       63       67 </v>
   <v type="int" >        4       47       51       62       63 </v>
   <v type="int" >        4       51       62       63       66 </v>
   <v type="int" >        4       51       63       66       67 </v>
   <v type="int" >        4       46       47       47       62 </v>
   <v type="int" >        4       47       47       51       62 </v>
   <v type="int" >        4       47       51       62       66 </v>
   <v type="int" >        4       46       47       61       62 </v>
   <v type="int" >        4       47       61       62       62 </v>
   <v type="int" >        4       47       62       62       66 </v>
   <v type="int" >        4       51       52       55       66 </v>
   <v type="int" >        4       52       55       66       67 </v>
   <v type="int" >        4       55       66       67       70 </v>
   <v type="int" >        4       52       53       56       67 </v>
   <v type="int" >        4       52       55       56       67 </v>
   <v type="int" >        4       55       56       67       70 </v>
   <v type="int" >        4       53       56       67       68 </v>
   <v type="int" >        4       56       67       68       71 </v>
   <v type="int" >        4       56       67       70       71 </v>
   <v type="int" >        4       53       54       57       68 </v>
   <v type="int" >        4       53       56       57       68 </v>
   <v type="int" >        4       56       57       68       71 </v>
   <v type="int" >        4       54       57       68       69 </v>
   <v type="int" >        4       57       68       69       72 </v>
   <v type="int" >        4       57       68       71       72 </v>
   <v type="int" >        4       53       54       56       69 </v>
   <v type="int" >        4       54       56       57       69 </v>
   <v type="int" >        4       56       57       69       72 </v>
   <v type="int" >        4       53       56       68       69 </v>
   <v type="int" >        4       56       68       69       71 </v>
   <v type="int" >        4       56       69       71       72 </v>
   <v type="int" >        4       52       53       55       68 </v>
   <v type="int" >        4       53       55       56       68 </v>
   <v type="int" >        4       55       56       68       71 </v>
   <v type="int" >        4       52       55       67       68 </v>
   <v type="int" >        4       55       67       68       70 </v>
   <v type="int" >        4       55       68       70       71 </v>
   <v type="int" >        4       51       52       52       67 </v>
   <v type="int" >        4       52       52       55       67 </v>
   <v type="int" >        4       52       55       67       70 </v>
   <v type="int" >        4       51       52       66       67 </v>
   <v type="int" >        4       52       66       67       67 </v>
   <v type="int" >        4       52       67       67       70 </v>
   <v type="int" >        4       47       48       51       66 </v>
   <v type="int" >        4       48       51       52       66 </v>
   <v type="int" >        4       48       52       66       67 </v>
   <v type="int" >        4       47       48       62       66 </v>
   <v type="int" >        4       48       62       63       66 </v>
   <v type="int" >        4       48       63       66       67 </v>
   <v type="int" >        4       55       56       58       70 </v>
   <v type="int" >        4       56       58       70       71 </v>
   <v type="int" >        4       58       70       71       73 </v>
   <v type="int" >        4       56       57       59       71 </v>
   <v type="int" >        4       56       58       59       71 </v>
   <v type="int" >        4       58       59       71       73 </v>
   <v type="int" >        4       57       59       71       72 </v>
   <v type="int" >        4       59       71       72       74 </v>
   <v type="int" >        4       59       71       73       74 </v>
   <v type="int" >        4       56       57       58       72 </v>
   <v type="int" >        4       57       58       59       72 </v>
   <v type="int" >        4       58       59       72       74 </v>
   <v type="int" >        4       56       58       71       72 </v>
   <v type="int" >        4       58       71       72       73 </v>
   <v type="int" >        4       58       72       73       74 </v>
   <v type="int" >        4       55       56       56       71 </v>
   <v type="int" >        4       56       56       58       71 </v>
   <v type="int" >        4       56       58       71       73 </v>
   <v type="int" >        4       55       56       70       71 </v>
   <v type="int" >        4       56       70       71       71 </v>
   <v type="int" >        4       56       71       71       73 </v>
   <v type="int" >        4       52       53       55       70 </v>
   <v type="int" >        4       53       55       56       70 </v>
   <v type="int" >        4       53       56       70       71 </v>
   <v type="int" >        4       52       53       67       70 </v>
   <v type="int" >        4       53       67       68       70 </v>
   <v type="int" >        4       53       68       70       71 </v>
   <v type="int" >        4       48       49       52       67 </v>
   <v type="int" >        4       49       52       53       67 </v>
   <v type="int" >        4       49       53       67       68 </v>
   <v type="int" >        4       48       49       63       67 </v>
   <v type="int" >        4       49       63       64       67 </v>
   <v type="int" >        4       49       64       67       68 </v>
   <v type="int" >        4       58       59       60       73 </v>
   <v type="int" >        4       59       60       73       74 </v>
   <v type="int" >        4       60       73       74       75 </v>
   <v type="int" >        4       58       59       59       74 </v>
   <v type="int" >        4       59       59       60       74 </v>
   <v type="int" >        4       59       60       74       75 </v>
   <v type="int" >        4       58       59       73       74 </v>
   <v type="int" >        4       59       73       74       74 </v>
   <v type="int" >        4       59       74       74       75 </v>
   <v type="int" >        4       56       57       58       73 </v>
   <v type="int" >        4       57       58       59       73 </v>
   <v type="int" >        4       57       59       73       74 </v>
   <v type="int" >        4       56       57       71       73 </v>
   <v type="int" >        4       57       71       72       73 </v>
   <v type="int" >        4       57       72       73       74 </v>
   <v type="int" >        4       53       54       56       71 </v>
   <v type="int" >        4       54       56       57       71 </v>
   <v type="int" >        4       54       57       71       72 </v>
   <v type="int" >        4       53       54       68       71 </v>
   <v type="int" >        4       54       68       69       71 </v>
   <v type="int" >        4       54       69       71       72 </v>
   <v type="int" >        4       49       50       53       68 </v>
   <v type="int" >        4       50       53       54       68 </v>
   <v type="int" >        4       50       54       68       69 </v>
   <v type="int" >        4       49       50       64       68 </v>
   <v type="int" >        4       50       64       65       68 </v>
   <v type="int" >        4       50       65       68       69 </v>
   <v type="int" >        4       58       59       60       75 </v>
   <v type="int" >        4       58       59       74       75 </v>
   <v type="int" >        4       58       73       74       75 </v>
   <v type="int" >        4       56       57       59       74 </v>
   <v type="int" >        4       56       58       59       74 </v>
   <v type="int" >        4       56       58       73       74 </v>
   <v type="int" >        4       56       57       72       74 </v>
   <v type="int" >        4       56       71       72       74 </v>
   <v type="int" >        4       56       71       73       74 </v>
   <v type="int" >        4       53       54       57       72 </v>
   <v type="int" >        4       53       56       57       72 </v>
   <v type="int" >        4       53       56       71       72 </v>
   <v type="int" >        4       53       54       69       72 </v>
   <v type="int" >        4       53       68       69       72 </v>
   <v type="int" >        4       53       68       71       72 </v>
   <v type="int" >        4       49       50       54       69 </v>
   <v type="int" >        4       49       53       54       69 </v>
   <v type="int" >        4       49       53       68       69 </v>
   <v type="int" >        4       49       50       65       69 </v>
   <v type="int" >        4       49       64       65       69 </v>
   <v type="int" >        4       49       64       68       69 </v>
   <v type="int" >        4       55       56       58       73 </v>
   <v type="int" >        4       55       56       71       73 </v>
   <v type="int" >        4       55       70       71       73 </v>
   <v type="int" >        4       52       53       56       71 </v>
   <v type="int" >        4       52       55       56       71 </v>
   <v type="int" >        4       52       55       70       71 </v>
   <v type="int" >        4       52       53       68       71 </v>
   <v type="int" >        4       52       67       68       71 </v>
   <v type="int" >        4       52       67       70       71 </v>
   <v type="int" >        4       48       49       53       68 </v>
   <v type="int" >        4       48       52       53       68 </v>
   <v type="int" >        4       48       52       67       68 </v>
   <v type="int" >        4       48       49       64       68 </v>
   <v type="int" >        4       48       63       64       68 </v>
   <v type="int" >        4       48       63       67       68 </v>
   <v type="int" >        4       51       52       55       70 </v>
   <v type="int" >        4       51       52       67       70 </v>
   <v type="int" >        4       51       66       67       70 </v>
   <v type="int" >        4       47       48       52       67 </v>
   <v type="int" >        4       47       51       52       67 </v>
   <v type="int" >        4       47       51       66       67 </v>
   <v type="int" >        4       47       48       63       67 </v>
   <v type="int" >        4       47       62       63       67 </v>
   <v type="int" >        4       47       62       66       67 </v>
   <v type="int" >        4       46       47       51       66 </v>
   <v type="int" >        4       46       47       62       66 </v>
   <v type="int" >        4       46       61       62       66 </v>
  </varray>
  <i name="volumeweight">      0.00032552 </i>
 </kpoints>
 <parameters>
  <separator name="general" >
   <i type="string" name="SYSTEM">unknown system</i>
   <i type="logical" name="LCOMPAT"> F  </i>
  </separator>
  <separator name="electronic" >
   <i type="string" name="PREC">accura</i>
   <i name="ENMAX">    520.00000000</i>
   <i name="ENAUG">    605.39200000</i>
   <i name="EDIFF">      0.00025000</i>
   <i type="int" name="IALGO">    38</i>
   <i type="int" name="IWAVPR">    10</i>
   <i type="int" name="NBANDS">    24</i>
   <i name="NELECT">     38.00000000</i>
   <i type="int" name="TURBO">     0</i>
   <i type="int" name="IRESTART">     0</i>
   <i type="int" name="NREBOOT">     0</i>
   <i type="int" name="NMIN">     0</i>
   <i name="EREF">      0.00000000</i>
   <separator name="electronic smearing" >
    <i type="int" name="ISMEAR">    -5</i>
    <i name="SIGMA">      0.05000000</i>
    <i name="KSPACING">      0.50000000</i>
    <i type="logical" name="KGAMMA"> T  </i>
   </separator>
   <separator name="electronic projectors" >
    <i type="logical" name="LREAL"> T  </i>
    <v name="ROPT">     -0.00025000     -0.00025000     -0.00025000</v>
    <i type="int" name="LMAXPAW">  -100</i>
    <i type="int" name="LMAXMIX">     2</i>
    <i type="logical" name="NLSPLINE"> F  </i>
   </separator>
   <separator name="electronic startup" >
    <i type="int" name="ISTART">     0</i>
    <i type="int" name="ICHARG">     2</i>
    <i type="int" name="INIWAV">     1</i>
   </separator>
   <separator name="electronic spin" >
    <i type="int" name="ISPIN">     2</i>
    <i type="logical" name="LNONCOLLINEAR"> F  </i>
    <v name="MAGMOM">      0.00000000      0.00000000      0.00000000      0.00000000      0.00000000</v>
    <i name="NUPDOWN">     -1.00000000</i>
    <i type="logical" name="LSORBIT"> F  </i>
    <v name="SAXIS">      0.00000000      0.00000000      1.00000000</v>
    <i type="logical" name="LSPIRAL"> F  </i>
    <v name="QSPIRAL">      0.00000000      0.00000000      0.00000000</v>
    <i type="logical" name="LZEROZ"> F  </i>
   </separator>
   <separator name="electronic exchange-correlation" >
    <i type="logical" name="LASPH"> F  </i>
    <i type="logical" name="LMETAGGA"> F  </i>
   </separator>
   <separator name="electronic convergence" >
    <i type="int" name="NELM">   100</i>
    <i type="int" name="NELMDL">     0</i>
    <i type="int" name="NELMIN">     2</i>
    <i name="ENINI">    520.00000000</i>
    <separator name="electronic convergence detail" >
     <i type="logical" name="LDIAG"> T  </i>
     <i type="logical" name="LSUBROT"> F  </i>
     <i name="WEIMIN">      0.00000000</i>
     <i name="EBREAK">      0.00000260</i>
     <i name="DEPER">      0.30000000</i>
     <i type="int" name="NRMM">     4</i>
     <i name="TIME">      0.40000000</i>
    </separator>
   </separator>
   <separator name="electronic mixer" >
    <i name="AMIX">      0.40000000</i>
    <i name="BMIX">      1.00000000</i>
    <i name="AMIN">      0.10000000</i>
    <i name="AMIX_MAG">      1.60000000</i>
    <i name="BMIX_MAG">      1.00000000</i>
    <separator name="electronic mixer details" >
     <i type="int" name="IMIX">     4</i>
     <i type="int" name="MAXMIX">   -45</i>
     <i name="WC">    100.00000000</i>
     <i type="int" name="INIMIX">     1</i>
     <i type="int" name="MIXPRE">     1</i>
     <i type="int" name="MREMOVE">     5</i>
    </separator>
   </separator>
   <separator name="electronic dipolcorrection" >
    <i type="logical" name="LDIPOL"> F  </i>
    <i type="logical" name="LMONO"> F  </i>
    <i type="int" name="IDIPOL">     0</i>
    <i name="EPSILON">      1.00000000</i>
    <v name="DIPOL">   -100.00000000   -100.00000000   -100.00000000</v>
    <i name="EFIELD">      0.00000000</i>
   </separator>
  </separator>
  <separator name="grids" >
   <i type="int" name="NGX">    30</i>
   <i type="int" name="NGY">    30</i>
   <i type="int" name="NGZ">    32</i>
   <i type="int" name="NGXF">    60</i>
   <i type="int" name="NGYF">    60</i>
   <i type="int" name="NGZF">    64</i>
   <i type="logical" name="ADDGRID"> F  </i>
  </separator>
  <separator name="ionic" >
   <i type="int" name="NSW">     0</i>
   <i type="int" name="IBRION">    -1</i>
   <i type="int" name="ISIF">     3</i>
   <i name="PSTRESS">      0.00000000</i>
   <i name="EDIFFG">      0.00250000</i>
   <i type="int" name="NFREE">     0</i>
   <i name="POTIM">      0.50000000</i>
   <i name="SMASS">     -3.00000000</i>
   <i name="SCALEE">      1.00000000</i>
  </separator>
  <separator name="ionic md" >
   <i name="TEBEG">      0.00010000</i>
   <i name="TEEND">      0.00010000</i>
   <i type="int" name="NBLOCK">     1</i>
   <i type="int" name="KBLOCK">     1</i>
   <i type="int" name="NPACO">   256</i>
   <i name="APACO">     16.00000000</i>
  </separator>
  <separator name="symmetry" >
   <i type="int" name="ISYM">     2</i>
   <i name="SYMPREC">      0.00001000</i>
  </separator>
  <separator name="dos" >
   <i type="logical" name="LORBIT"> F  </i>
   <v name="RWIGS">     -1.00000000     -1.00000000     -1.00000000</v>
   <i type="int" name="NEDOS">   301</i>
   <i name="EMIN">     10.00000000</i>
   <i name="EMAX">    -10.00000000</i>
   <i name="EFERMI">      0.00000000</i>
  </separator>
  <separator name="writing" >
   <i type="int" name="NWRITE">     2</i>
   <i type="logical" name="LWAVE"> T  </i>
   <i type="logical" name="LCHARG"> T  </i>
   <i type="logical" name="LPARD"> F  </i>
   <i type="logical" name="LVTOT"> F  </i>
   <i type="logical" name="LVHAR"> T  </i>
   <i type="logical" name="LELF"> F  </i>
   <i type="logical" name="LOPTICS"> F  </i>
   <v name="STM">      0.00000000      0.00000000      0.00000000      0.00000000      0.00000000      0.00000000      0.00000000</v>
  </separator>
  <separator name="performance" >
   <i type="int" name="NPAR">     8</i>
   <i type="int" name="NSIM">     4</i>
   <i type="int" name="NBLK">    -1</i>
   <i type="logical" name="LPLANE"> T  </i>
   <i type="logical" name="LSCALAPACK"> T  </i>
   <i type="logical" name="LSCAAWARE"> F  </i>
   <i type="logical" name="LSCALU"> F  </i>
   <i type="logical" name="LASYNC"> F  </i>
   <i type="logical" name="LORBITALREAL"> F  </i>
  </separator>
  <separator name="miscellaneous" >
   <i type="int" name="IDIOT">     3</i>
   <i type="logical" name="LMUSIC"> F  </i>
   <v name="POMASS">    137.32700000     47.88000000     16.00000000</v>
   <v name="DARWINR">      0.00000000      0.00000000      0.00000000</v>
   <v name="DARWINV">      1.00000000      1.00000000      1.00000000</v>
   <i type="logical" name="LCORR"> T  </i>
  </separator>
  <i type="logical" name="GGA_COMPAT"> T  </i>
  <i type="logical" name="LBERRY"> F  </i>
  <i type="int" name="ICORELEVEL">     0</i>
  <i type="logical" name="LDAU"> F  </i>
  <i type="int" name="I_CONSTRAINED_M">     0</i>
  <separator name="electronic exchange-correlation" >
   <i type="string" name="GGA">--</i>
   <i type="int" name="VOSKOWN">     0</i>
   <i type="logical" name="LHFCALC"> F  </i>
   <i type="string" name="PRECFOCK"></i>
   <i type="logical" name="LSYMGRAD"> F  </i>
   <i type="logical" name="LHFONE"> F  </i>
   <i type="logical" name="LRHFCALC"> F  </i>
   <i type="logical" name="LTHOMAS"> F  </i>
   <i type="logical" name="LMODELHF"> F  </i>
   <i name="ENCUT4O">     -1.00000000</i>
   <i type="int" name="EXXOEP">     0</i>
   <i type="int" name="FOURORBIT">     0</i>
   <i name="AEXX">      0.00000000</i>
   <i name="HFALPHA">      0.00000000</i>
   <i name="MCALPHA">      0.00000000</i>
   <i name="ALDAX">      1.00000000</i>
   <i name="AGGAX">      1.00000000</i>
   <i name="ALDAC">      1.00000000</i>
   <i name="AGGAC">      1.00000000</i>
   <i type="int" name="NKREDX">     1</i>
   <i type="int" name="NKREDY">     1</i>
   <i type="int" name="NKREDZ">     1</i>
   <i type="logical" name="SHIFTRED"> F  </i>
   <i type="logical" name="ODDONLY"> F  </i>
   <i type="logical" name="EVENONLY"> F  </i>
   <i type="int" name="LMAXFOCK">     0</i>
   <i type="int" name="NMAXFOCKAE">     0</i>
   <i type="logical" name="LFOCKAEDFT"> F  </i>
   <i name="HFSCREEN">      0.00000000</i>
   <i name="HFSCREENC">      0.00000000</i>
   <i type="int" name="NBANDSGWLOW">     0</i>
  </separator>
  <separator name="vdW DFT" >
   <i type="logical" name="LUSE_VDW"> F  </i>
   <i name="Zab_VDW">     -0.84910000</i>
   <i name="PARAM1">      0.12340000</i>
   <i name="PARAM2">      1.00000000</i>
   <i name="PARAM3">      0.00000000</i>
  </separator>
  <separator name="model GW" >
   <i type="int" name="MODEL_GW">     0</i>
   <i name="MODEL_EPS0">      8.09976588</i>
   <i name="MODEL_ALPHA">      1.00000000</i>
  </separator>
  <separator name="linear response parameters" >
   <i type="logical" name="LEPSILON"> F  </i>
   <i type="logical" name="LRPA"> F  </i>
   <i type="logical" name="LNABLA"> F  </i>
   <i type="logical" name="LVEL"> F  </i>
   <i type="int" name="KINTER">     0</i>
   <i name="CSHIFT">      0.10000000</i>
   <i name="OMEGAMAX">     -1.00000000</i>
   <i name="DEG_THRESHOLD">      0.00200000</i>
  </separator>
  <separator name="orbital magnetization" >
   <i type="logical" name="NUCIND"> F  </i>
   <v name="MAGPOS">      0.00000000      0.00000000      0.00000000</v>
   <i type="logical" name="LNICSALL"> T  </i>
   <i type="logical" name="ORBITALMAG"> F  </i>
   <i type="logical" name="LMAGBLOCH"> F  </i>
   <i type="logical" name="LCHIMAG"> F  </i>
   <i type="logical" name="LGAUGE"> T  </i>
   <i type="int" name="MAGATOM">     0</i>
   <v name="MAGDIPOL">      0.00000000      0.00000000      0.00000000</v>
   <v name="AVECCONST">      0.00000000      0.00000000      0.00000000</v>
  </separator>
  <separator name="response functions" >
   <i type="logical" name="LADDER"> F  </i>
   <i type="logical" name="LFXC"> F  </i>
   <i type="logical" name="LHARTREE"> T  </i>
   <i type="int" name="IBSE">     0</i>
   <i type="logical" name="LTCTE"> F  </i>
   <i type="logical" name="LTETE"> F  </i>
   <i type="logical" name="LTRIPLET"> F  </i>
   <i type="logical" name="LFXCEPS"> F  </i>
   <i type="logical" name="LFXHEG"> F  </i>
   <i type="logical" name="L2ORDER"> F  </i>
   <i type="logical" name="LUSEW"> F  </i>
   <i name="ENCUTGW">     -2.00000000</i>
   <i name="ENCUTGWSOFT">     -2.00000000</i>
   <i name="ENCUTLF">     -1.00000000</i>
   <i type="int" name="LMAXMP2">    -1</i>
   <i name="SCISSOR">      0.00000000</i>
   <i type="int" name="NOMEGA">     0</i>
   <i type="int" name="NOMEGAR">     0</i>
   <i type="int" name="NBANDSGW">    -1</i>
   <i type="int" name="NBANDSO">    -1</i>
   <i type="int" name="NBANDSV">    -1</i>
   <i type="int" name="NELM">   100</i>
   <i type="int" name="DIM">     3</i>
   <i type="int" name="ANTIRES">     0</i>
   <i name="OMEGAMAX">    -30.00000000</i>
   <i name="OMEGAMIN">    -30.00000000</i>
   <i name="OMEGATL">   -200.00000000</i>
   <i type="int" name="OMEGAGRID">     0</i>
   <i name="CSHIFT">     -0.10000000</i>
   <i type="logical" name="SELFENERGY"> F  </i>
   <i type="logical" name="LSPECTRAL"> F  </i>
   <i type="logical" name="ODDONLYGW"> F  </i>
   <i type="logical" name="EVENONLYGW"> F  </i>
   <i type="int" name="NKREDLFX">     1</i>
   <i type="int" name="NKREDLFY">     1</i>
   <i type="int" name="NKREDLFZ">     1</i>
   <i type="int" name="MAXMEM">  1800</i>
   <i type="int" name="TELESCOPE">     0</i>
   <i type="int" name="TAUPAR">     1</i>
  </separator>
  <separator name="External order field" >
   <i name="OFIELD_KAPPA">      0.00000000</i>
   <v name="OFIELD_K">      0.00000000      0.00000000      0.00000000</v>
   <i name="OFIELD_Q6_NEAR">      0.00000000</i>
   <i name="OFIELD_Q6_FAR">      0.00000000</i>
   <i name="OFIELD_A">      0.00000000</i>
  </separator>
 </parameters>
 <atominfo>
  <atoms>       5 </atoms>
  <types>       3 </types>
  <array name="atoms" >
   <dimension dim="1">ion</dimension>
   <field type="string">element</field>
   <field type="int">atomtype</field>
   <set>
    <rc><c>Ba</c><c>   1</c></rc>
    <rc><c>Ti</c><c>   2</c></rc>
    <rc><c>O </c><c>   3</c></rc>
    <rc><c>O </c><c>   3</c></rc>
    <rc><c>O </c><c>   3</c></rc>
   </set>
  </array>
  <array name="atomtypes" >
   <dimension dim="1">type</dimension>
   <field type="int">atomspertype</field>
   <field type="string">element</field>
   <field>mass</field>
   <field>valence</field>
   <field type="string">pseudopotential</field>
   <set>
    <rc><c>   1</c><c>Ba</c><c>    137.32700000</c><c>     10.00000000</c><c>  PAW_PBE Ba_sv 06Sep2000               </c></rc>
    <rc><c>   1</c><c>Ti</c><c>     47.88000000</c><c>     10.00000000</c><c>  PAW_PBE Ti_pv 07Sep2000               </c></rc>
    <rc><c>   3</c><c>O </c><c>     16.00000000</c><c>      6.00000000</c><c>  PAW_PBE O 08Apr2002                   </c></rc>
   </set>
  </array>
 </atominfo>
 <structure name="initialpos" >
  <crystal>
   <varray name="basis" >
    <v>       4.00136800       0.00000000       0.00000000 </v>
    <v>       0.00000000       4.00136800       0.00000000 </v>
    <v>       0.00000000       0.00000000       4.21574400 </v>
   </varray>
   <i name="volume">     67.49804899 </i>
   <varray name="rec_basis" >
    <v>       0.24991453       0.00000000       0.00000000 </v>
    <v>       0.00000000       0.24991453       0.00000000 </v>
    <v>       0.00000000       0.00000000       0.23720605 </v>
   </varray>
  </crystal>
  <varray name="positions" >
   <v>       0.00000000       0.00000000       0.02027300 </v>
   <v>       0.50000000       0.50000000       0.53885200 </v>
   <v>       0.00000000       0.50000000       0.49202200 </v>
   <v>       0.50000000       0.00000000       0.49202200 </v>
   <v>       0.50000000       0.50000000       0.97082900 </v>
  </varray>
 </structure>
 <calculation>
  <scstep>
   <time name="dav">   11.98   11.97</time>
   <time name="total">   12.17   12.17</time>
   <energy>
    <i name="alphaZ">    248.24775878 </i>
    <i name="ewald">  -2470.23209786 </i>
    <i name="hartreedc">   -657.03537910 </i>
    <i name="XCdc">    145.11234954 </i>
    <i name="pawpsdc">   2375.87058617 </i>
    <i name="pawaedc">  -2378.00600003 </i>
    <i name="eentropy">      0.00000000 </i>
    <i name="bandstr">    104.26329055 </i>
    <i name="atom">   3040.52701931 </i>
    <i name="e_fr_energy">    408.74752736 </i>
    <i name="e_wo_entrp">    408.74752736 </i>
    <i name="e_0_energy">    408.74752736 </i>
   </energy>
  </scstep>
  <scstep>
   <time name="dav">   15.27   15.29</time>
   <time name="total">   15.35   16.27</time>
   <energy>
    <i name="e_fr_energy">    -17.11622421 </i>
    <i name="e_wo_entrp">    -17.11622421 </i>
    <i name="e_0_energy">    -17.11622421 </i>
   </energy>
  </scstep>
  <scstep>
   <time name="dav">   12.76   12.83</time>
   <time name="total">   12.78   12.86</time>
   <energy>
    <i name="e_fr_energy">    -49.61082846 </i>
    <i name="e_wo_entrp">    -49.61082846 </i>
    <i name="e_0_energy">    -49.61082846 </i>
   </energy>
  </scstep>
  <scstep>
   <time name="dav">   17.25   17.27</time>
   <time name="total">   17.27   17.28</time>
   <energy>
    <i name="e_fr_energy">    -50.75733773 </i>
    <i name="e_wo_entrp">    -50.75733773 </i>
    <i name="e_0_energy">    -50.75733773 </i>
   </energy>
  </scstep>
  <scstep>
   <time name="dav">   14.08   14.10</time>
   <time name="total">   14.95   14.97</time>
   <energy>
    <i name="e_fr_energy">    -50.77581252 </i>
    <i name="e_wo_entrp">    -50.77581252 </i>
    <i name="e_0_energy">    -50.77581252 </i>
   </energy>
  </scstep>
  <scstep>
   <time name="dav">   17.00   17.00</time>
   <time name="total">   17.97   17.98</time>
   <energy>
    <i name="e_fr_energy">    -40.18364389 </i>
    <i name="e_wo_entrp">    -40.18364389 </i>
    <i name="e_0_energy">    -40.18364389 </i>
   </energy>
  </scstep>
  <scstep>
   <time name="dav">   15.61   15.61</time>
   <time name="total">   16.58   16.60</time>
   <energy>
    <i name="e_fr_energy">    -40.20342024 </i>
    <i name="e_wo_entrp">    -40.20342024 </i>
    <i name="e_0_energy">    -40.20342024 </i>
   </energy>
  </scstep>
  <scstep>
   <time name="dav">   15.93   15.93</time>
   <time name="total">   16.90   16.90</time>
   <energy>
    <i name="e_fr_energy">    -39.96914939 </i>
    <i name="e_wo_entrp">    -39.96914939 </i>
    <i name="e_0_energy">    -39.96914939 </i>
   </energy>
  </scstep>
  <scstep>
   <time name="dav">   16.37   16.37</time>
   <time name="total">   17.35   17.36</time>
   <energy>
    <i name="e_fr_energy">    -39.95413613 </i>
    <i name="e_wo_entrp">    -39.95413613 </i>
    <i name="e_0_energy">    -39.95413613 </i>
   </energy>
  </scstep>
  <scstep>
   <time name="dav">   16.39   16.43</time>
   <time name="total">   17.37   17.41</time>
   <energy>
    <i name="e_fr_energy">    -39.94519103 </i>
    <i name="e_wo_entrp">    -39.94519103 </i>
    <i name="e_0_energy">    -39.94519103 </i>
   </energy>
  </scstep>
  <scstep>
   <time name="dav">   14.95   14.94</time>
   <time name="total">   15.98   15.98</time>
   <energy>
    <i name="e_fr_energy">    -39.94348643 </i>
    <i name="e_wo_entrp">    -39.94348643 </i>
    <i name="e_0_energy">    -39.94348643 </i>
   </energy>
  </scstep>
  <scstep>
   <time name="dav">   15.19   15.18</time>
   <time name="total">   16.16   16.16</time>
   <energy>
    <i name="e_fr_energy">    -39.94304676 </i>
    <i name="e_wo_entrp">    -39.94304676 </i>
    <i name="e_0_energy">    -39.94304676 </i>
   </energy>
  </scstep>
  <scstep>
   <time name="dav">   10.31   10.30</time>
   <time name="total">   10.44   10.46</time>
   <energy>
    <i name="alphaZ">    248.24775878 </i>
    <i name="ewald">  -2470.23209786 </i>
    <i name="hartreedc">   -660.92969569 </i>
    <i name="XCdc">    146.54373907 </i>
    <i name="pawpsdc">   3651.45463023 </i>
    <i name="pawaedc">  -3660.70462982 </i>
    <i name="eentropy">      0.00000000 </i>
    <i name="bandstr">   -334.84975573 </i>
[...]
        <r>  0.0085  0.0116  0.0008  0.0000  0.0000  0.0000  0.0000  0.0000  0.0000 </r>
        <r>  0.0000  0.0000  0.0000  0.0131  0.0000  0.0000  0.0000  0.0000  0.0000 </r>
        <r>  0.0000  0.0000  0.0000  0.0006  0.0000  0.0000  0.0000  0.0000  0.0000 </r>
       </set>
       <set comment="band 11">
        <r>  0.0000  0.0000  0.0000  0.0000  0.0018  0.0000  0.0000  0.0010  0.0000 </r>
        <r>  0.2038  0.0033  0.0000  0.0000  0.0000  0.0015  0.0004  0.0000  0.0139 </r>
        <r>  0.0000  0.0000  0.0000  0.2429  0.0000  0.0000  0.0000  0.0000  0.0000 </r>
        <r>  0.0018  0.1063  0.0001  0.0000  0.0000  0.0000  0.0000  0.0000  0.0000 </r>
        <r>  0.0001  0.0007  0.1709  0.0000  0.0000  0.0000  0.0000  0.0000  0.0000 </r>
       </set>
       <set comment="band 12">
        <r>  0.0000  0.0000  0.0000  0.0000  0.0014  0.0000  0.0000  0.0000  0.0000 </r>
        <r>  0.0008  0.0005  0.0043  0.0000  0.0000  0.0007  0.2138  0.0000  0.1637 </r>
        <r>  0.0000  0.0000  0.0000  0.2526  0.0000  0.0000  0.0000  0.0000  0.0000 </r>
        <r>  0.0001  0.0231  0.0000  0.0000  0.0000  0.0000  0.0000  0.0000  0.0000 </r>
        <r>  0.0006  0.0008  0.2271  0.0000  0.0000  0.0000  0.0000  0.0000  0.0000 </r>
       </set>
       <set comment="band 13">
        <r>  0.0000  0.0000  0.0000  0.0028  0.0002  0.0000  0.0000  0.0005  0.0000 </r>
        <r>  0.0040  0.0102  0.0027  0.0000  0.0000  0.0043  0.1543  0.0000  0.1958 </r>
        <r>  0.0000  0.0000  0.0000  0.0143  0.0000  0.0000  0.0000  0.0000  0.0000 </r>
        <r>  0.0006  0.3841  0.0045  0.0000  0.0000  0.0000  0.0000  0.0000  0.0000 </r>
        <r>  0.0005  0.0003  0.1064  0.0000  0.0000  0.0000  0.0000  0.0000  0.0000 </r>
       </set>
       <set comment="band 14">
        <r>  0.0045  0.1078  0.0124  0.0000  0.0000  0.0015  0.0005  0.0000  0.0022 </r>
        <r>  0.0000  0.0000  0.0000  0.0026  0.0187  0.0000  0.0000  0.1437  0.0000 </r>
        <r>  0.0001  0.0324  0.1686  0.0000  0.0000  0.0000  0.0000  0.0000  0.0000 </r>
        <r>  0.0000  0.0000  0.0000  0.0226  0.0000  0.0000  0.0000  0.0000  0.0000 </r>
        <r>  0.0000  0.0000  0.0000  0.2197  0.0000  0.0000  0.0000  0.0000  0.0000 </r>
       </set>
       <set comment="band 15">
        <r>  0.0001  0.0160  0.1059  0.0000  0.0000  0.0030  0.0005  0.0000  0.0003 </r>
        <r>  0.0000  0.0000  0.0000  0.0011  0.1444  0.0000  0.0000  0.0181  0.0000 </r>
        <r>  0.0000  0.2088  0.0285  0.0000  0.0000  0.0000  0.0000  0.0000  0.0000 </r>
        <r>  0.0000  0.0000  0.0000  0.1789  0.0000  0.0000  0.0000  0.0000  0.0000 </r>
        <r>  0.0000  0.0000  0.0000  0.0270  0.0000  0.0000  0.0000  0.0000  0.0000 </r>
       </set>
       <set comment="band 16">
        <r>  0.0000  0.0000  0.0000  0.1228  0.0053  0.0000  0.0000  0.0003  0.0000 </r>
        <r>  0.0008  0.0054  0.0002  0.0000  0.0000  0.1582  0.0002  0.0000  0.0024 </r>
        <r>  0.0000  0.0000  0.0000  0.0001  0.0000  0.0000  0.0000  0.0000  0.0000 </r>
        <r>  0.0000  0.0073  0.1672  0.0000  0.0000  0.0000  0.0000  0.0000  0.0000 </r>
        <r>  0.0003  0.2809  0.0001  0.0000  0.0000  0.0000  0.0000  0.0000  0.0000 </r>
       </set>
       <set comment="band 17">
        <r>  0.0000  0.0000  0.0000  0.0011  0.0063  0.0000  0.0000  0.0023  0.0000 </r>
        <r>  0.0002  0.0000  0.0019  0.0000  0.0000  0.0003  0.0001  0.0000  0.0000 </r>
        <r>  0.0000  0.0000  0.0000  0.0001  0.0000  0.0000  0.0000  0.0000  0.0000 </r>
        <r>  0.0001  0.0016  0.4294  0.0000  0.0000  0.0000  0.0000  0.0000  0.0000 </r>
        <r>  0.0013  0.2941  0.0027  0.0000  0.0000  0.0000  0.0000  0.0000  0.0000 </r>
       </set>
       <set comment="band 18">
        <r>  0.0000  0.0000  0.0004  0.0000  0.0000  0.0035  0.0024  0.0000  0.0004 </r>
        <r>  0.0000  0.0000  0.0000  0.0002  0.0001  0.0000  0.0000  0.0004  0.0000 </r>
        <r>  0.0003  0.0025  0.3907  0.0000  0.0000  0.0000  0.0000  0.0000  0.0000 </r>
        <r>  0.0000  0.0000  0.0000  0.0064  0.0000  0.0000  0.0000  0.0000  0.0000 </r>
        <r>  0.0000  0.0000  0.0000  0.3432  0.0000  0.0000  0.0000  0.0000  0.0000 </r>
       </set>
       <set comment="band 19">
        <r>  0.0000  0.0001  0.0008  0.0000  0.0000  0.0059  0.0000  0.0000  0.0009 </r>
        <r>  0.0000  0.0000  0.0000  0.0010  0.0001  0.0000  0.0000  0.0003  0.0000 </r>
        <r>  0.0014  0.3328  0.0043  0.0000  0.0000  0.0000  0.0000  0.0000  0.0000 </r>
        <r>  0.0000  0.0000  0.0000  0.3990  0.0000  0.0000  0.0000  0.0000  0.0000 </r>
        <r>  0.0000  0.0000  0.0000  0.0058  0.0000  0.0000  0.0000  0.0000  0.0000 </r>
       </set>
       <set comment="band 20">
        <r>  0.0000  0.0000  0.0000  0.0058  0.0002  0.0000  0.0000  0.0010  0.0000 </r>
        <r>  0.0006  0.0007  0.0012  0.0000  0.0000  0.7587  0.0028  0.0000  0.0041 </r>
        <r>  0.0000  0.0000  0.0000  0.0001  0.0000  0.0000  0.0000  0.0000  0.0000 </r>
        <r>  0.0007  0.0002  0.0624  0.0000  0.0000  0.0000  0.0000  0.0000  0.0000 </r>
        <r>  0.0003  0.0878  0.0014  0.0000  0.0000  0.0000  0.0000  0.0000  0.0000 </r>
       </set>
       <set comment="band 21">
        <r>  0.0000  0.0046  0.0004  0.0000  0.0000  0.0010  0.0020  0.0000  0.0027 </r>
        <r>  0.0000  0.0000  0.0000  0.0009  0.1284  0.0000  0.0000  0.6475  0.0000 </r>
        <r>  0.0006  0.0150  0.0631  0.0000  0.0000  0.0000  0.0000  0.0000  0.0000 </r>
        <r>  0.0000  0.0000  0.0000  0.0076  0.0000  0.0000  0.0000  0.0000  0.0000 </r>
        <r>  0.0000  0.0000  0.0000  0.0575  0.0000  0.0000  0.0000  0.0000  0.0000 </r>
       </set>
       <set comment="band 22">
        <r>  0.0022  0.0003  0.0039  0.0000  0.0000  0.0019  0.0000  0.0000  0.0006 </r>
        <r>  0.0000  0.0000  0.0000  0.0002  0.6393  0.0000  0.0000  0.1275  0.0000 </r>
        <r>  0.0002  0.0777  0.0107  0.0000  0.0000  0.0000  0.0000  0.0000  0.0000 </r>
        <r>  0.0000  0.0000  0.0000  0.0524  0.0000  0.0000  0.0000  0.0000  0.0000 </r>
        <r>  0.0000  0.0000  0.0000  0.0111  0.0000  0.0000  0.0000  0.0000  0.0000 </r>
       </set>
       <set comment="band 23">
        <r>  0.0000  0.0000  0.0000  0.0009  0.1626  0.0000  0.0000  0.1467  0.0000 </r>
        <r>  0.0014  0.0111  0.0391  0.0000  0.0000  0.0050  0.1872  0.0000  0.0169 </r>
        <r>  0.0000  0.0000  0.0000  0.0067  0.0000  0.0000  0.0000  0.0000  0.0000 </r>
        <r>  0.0264  0.0210  0.0047  0.0000  0.0000  0.0000  0.0000  0.0000  0.0000 </r>
        <r>  0.0207  0.0012  0.0678  0.0000  0.0000  0.0000  0.0000  0.0000  0.0000 </r>
       </set>
       <set comment="band 24">
        <r>  0.0000  0.0000  0.0000  0.0003  0.0665  0.0000  0.0000  0.3044  0.0000 </r>
        <r>  0.0000  0.0152  0.0236  0.0000  0.0000  0.0063  0.0795  0.0000  0.0612 </r>
        <r>  0.0000  0.0000  0.0000  0.0173  0.0000  0.0000  0.0000  0.0000  0.0000 </r>
        <r>  0.0432  0.0010  0.0024  0.0000  0.0000  0.0000  0.0000  0.0000  0.0000 </r>
        <r>  0.0077  0.0098  0.0679  0.0000  0.0000  0.0000  0.0000  0.0000  0.0000 </r>
       </set>
      </set>
      <set comment="kpoint 75">
       <set comment="band 1">
        <r>  0.0000  0.0000  0.0000  0.0000  0.0001  0.0000  0.0000  0.0000  0.0000 </r>
        <r>  0.0001  0.0000  0.9777  0.0000  0.0000  0.0000  0.0003  0.0000  0.0000 </r>
        <r>  0.0000  0.0000  0.0000  0.0001  0.0000  0.0000  0.0000  0.0000  0.0000 </r>
        <r>  0.0000  0.0001  0.0000  0.0000  0.0000  0.0000  0.0000  0.0000  0.0000 </r>
        <r>  0.0090  0.0000  0.0028  0.0000  0.0000  0.0000  0.0000  0.0000  0.0000 </r>
       </set>
       <set comment="band 2">
        <r>  0.0000  0.0000  0.0000  0.0000  0.0000  0.0000  0.0000  0.0000  0.0000 </r>
        <r>  0.0000  0.1309  0.0000  0.8481  0.0000  0.0000  0.0000  0.0000  0.0000 </r>
        <r>  0.0065  0.0000  0.0000  0.0000  0.0000  0.0000  0.0000  0.0000  0.0000 </r>
        <r>  0.0010  0.0000  0.0000  0.0000  0.0000  0.0000  0.0000  0.0000  0.0000 </r>
        <r>  0.0000  0.0000  0.0000  0.0001  0.0000  0.0000  0.0000  0.0000  0.0000 </r>
       </set>
       <set comment="band 3">
        <r>  0.0000  0.0000  0.0000  0.0000  0.0000  0.0000  0.0000  0.0000  0.0000 </r>
        <r>  0.0000  0.8481  0.0000  0.1309  0.0000  0.0000  0.0000  0.0000  0.0000 </r>
        <r>  0.0010  0.0000  0.0000  0.0000  0.0000  0.0000  0.0000  0.0000  0.0000 </r>
        <r>  0.0065  0.0000  0.0000  0.0000  0.0000  0.0000  0.0000  0.0000  0.0000 </r>
        <r>  0.0000  0.0001  0.0000  0.0000  0.0000  0.0000  0.0000  0.0000  0.0000 </r>
       </set>
       <set comment="band 4">
        <r>  0.9813  0.0000  0.0000  0.0000  0.0000  0.0000  0.0000  0.0000  0.0000 </r>
        <r>  0.0000  0.0000  0.0000  0.0000  0.0000  0.0000  0.0000  0.0000  0.0000 </r>
        <r>  0.0000  0.0000  0.0000  0.0000  0.0000  0.0000  0.0000  0.0000  0.0000 </r>
        <r>  0.0000  0.0000  0.0000  0.0000  0.0000  0.0000  0.0000  0.0000  0.0000 </r>
        <r>  0.0000  0.0000  0.0000  0.0000  0.0000  0.0000  0.0000  0.0000  0.0000 </r>
       </set>
       <set comment="band 5">
        <r>  0.0000  0.0000  0.0000  0.0000  0.0066  0.0000  0.0000  0.0000  0.0000 </r>
        <r>  0.0075  0.0000  0.0408  0.0000  0.0000  0.0000  0.0166  0.0000  0.0000 </r>
        <r>  0.0000  0.0000  0.0000  0.0000  0.0000  0.0000  0.0000  0.0000  0.0000 </r>
        <r>  0.0000  0.0000  0.0000  0.0000  0.0000  0.0000  0.0000  0.0000  0.0000 </r>
        <r>  0.7699  0.0000  0.0011  0.0000  0.0000  0.0000  0.0000  0.0000  0.0000 </r>
       </set>
       <set comment="band 6">
        <r>  0.0000  0.0002  0.0000  0.0014  0.0000  0.0008  0.0000  0.0044  0.0000 </r>
        <r>  0.0000  0.0350  0.0000  0.0060  0.0000  0.0011  0.0000  0.0002  0.0000 </r>
        <r>  0.1130  0.0000  0.0000  0.0000  0.0000  0.0000  0.0000  0.0000  0.0000 </r>
        <r>  0.6578  0.0000  0.0000  0.0000  0.0000  0.0000  0.0000  0.0000  0.0000 </r>
        <r>  0.0000  0.0000  0.0000  0.0000  0.0000  0.0000  0.0000  0.0000  0.0000 </r>
       </set>
       <set comment="band 7">
        <r>  0.0000  0.0014  0.0000  0.0002  0.0000  0.0044  0.0000  0.0008  0.0000 </r>
        <r>  0.0000  0.0060  0.0000  0.0350  0.0000  0.0002  0.0000  0.0011  0.0000 </r>
        <r>  0.6578  0.0000  0.0000  0.0000  0.0000  0.0000  0.0000  0.0000  0.0000 </r>
        <r>  0.1130  0.0000  0.0000  0.0000  0.0000  0.0000  0.0000  0.0000  0.0000 </r>
        <r>  0.0000  0.0000  0.0000  0.0000  0.0000  0.0000  0.0000  0.0000  0.0000 </r>
       </set>
       <set comment="band 8">
        <r>  0.0000  0.5370  0.0000  0.2693  0.0000  0.0001  0.0000  0.0000  0.0000 </r>
        <r>  0.0000  0.0003  0.0000  0.0005  0.0000  0.0022  0.0000  0.0043  0.0000 </r>
        <r>  0.0012  0.0000  0.0089  0.0000  0.0000  0.0000  0.0000  0.0000  0.0000 </r>
        <r>  0.0006  0.0000  0.0044  0.0000  0.0000  0.0000  0.0000  0.0000  0.0000 </r>
        <r>  0.0000  0.0060  0.0000  0.0120  0.0000  0.0000  0.0000  0.0000  0.0000 </r>
       </set>
       <set comment="band 9">
        <r>  0.0000  0.2693  0.0000  0.5370  0.0000  0.0000  0.0000  0.0001  0.0000 </r>
        <r>  0.0000  0.0005  0.0000  0.0003  0.0000  0.0043  0.0000  0.0022  0.0000 </r>
        <r>  0.0006  0.0000  0.0044  0.0000  0.0000  0.0000  0.0000  0.0000  0.0000 </r>
        <r>  0.0012  0.0000  0.0089  0.0000  0.0000  0.0000  0.0000  0.0000  0.0000 </r>
        <r>  0.0000  0.0120  0.0000  0.0060  0.0000  0.0000  0.0000  0.0000  0.0000 </r>
       </set>
       <set comment="band 10">
        <r>  0.0000  0.0000  0.8206  0.0000  0.0000  0.0000  0.0000  0.0000  0.0000 </r>
        <r>  0.0000  0.0000  0.0000  0.0000  0.0070  0.0000  0.0000  0.0000  0.0000 </r>
        <r>  0.0000  0.0143  0.0000  0.0000  0.0000  0.0000  0.0000  0.0000  0.0000 </r>
        <r>  0.0000  0.0000  0.0000  0.0143  0.0000  0.0000  0.0000  0.0000  0.0000 </r>
        <r>  0.0000  0.0000  0.0000  0.0000  0.0000  0.0000  0.0000  0.0000  0.0000 </r>
       </set>
       <set comment="band 11">
        <r>  0.0000  0.0000  0.0000  0.0000  0.0015  0.0000  0.0000  0.0000  0.0000 </r>
        <r>  0.2196  0.0000  0.0000  0.0000  0.0000  0.0000  0.0012  0.0000  0.0000 </r>
        <r>  0.0000  0.0000  0.0000  0.1906  0.0000  0.0000  0.0000  0.0000  0.0000 </r>
        <r>  0.0000  0.1906  0.0000  0.0000  0.0000  0.0000  0.0000  0.0000  0.0000 </r>
        <r>  0.0001  0.0000  0.1396  0.0000  0.0000  0.0000  0.0000  0.0000  0.0000 </r>
       </set>
       <set comment="band 12">
        <r>  0.0000  0.0000  0.0000  0.0000  0.0000  0.0000  0.0000  0.0000  0.0000 </r>
        <r>  0.0000  0.0000  0.0000  0.0000  0.0000  0.0000  0.0000  0.0000  0.3940 </r>
        <r>  0.0000  0.0000  0.0000  0.2512  0.0000  0.0000  0.0000  0.0000  0.0000 </r>
        <r>  0.0000  0.2512  0.0000  0.0000  0.0000  0.0000  0.0000  0.0000  0.0000 </r>
        <r>  0.0000  0.0000  0.0000  0.0000  0.0000  0.0000  0.0000  0.0000  0.0000 </r>
       </set>
       <set comment="band 13">
        <r>  0.0000  0.0000  0.0000  0.0000  0.0020  0.0000  0.0000  0.0000  0.0000 </r>
        <r>  0.0001  0.0000  0.0073  0.0000  0.0000  0.0000  0.3739  0.0000  0.0000 </r>
        <r>  0.0000  0.0000  0.0000  0.0690  0.0000  0.0000  0.0000  0.0000  0.0000 </r>
        <r>  0.0000  0.0690  0.0000  0.0000  0.0000  0.0000  0.0000  0.0000  0.0000 </r>
        <r>  0.0010  0.0000  0.3668  0.0000  0.0000  0.0000  0.0000  0.0000  0.0000 </r>
       </set>
       <set comment="band 14">
        <r>  0.0003  0.0000  0.1295  0.0000  0.0000  0.0000  0.0002  0.0000  0.0000 </r>
        <r>  0.0000  0.0000  0.0000  0.0000  0.1654  0.0000  0.0000  0.0000  0.0000 </r>
        <r>  0.0000  0.2198  0.0000  0.0000  0.0000  0.0000  0.0000  0.0000  0.0000 </r>
        <r>  0.0000  0.0000  0.0000  0.2198  0.0000  0.0000  0.0000  0.0000  0.0000 </r>
        <r>  0.0000  0.0000  0.0000  0.0000  0.0000  0.0000  0.0000  0.0000  0.0000 </r>
       </set>
       <set comment="band 15">
        <r>  0.0000  0.0232  0.0000  0.1135  0.0000  0.0001  0.0000  0.0003  0.0000 </r>
        <r>  0.0000  0.0029  0.0000  0.0006  0.0000  0.1400  0.0000  0.0286  0.0000 </r>
        <r>  0.0000  0.0000  0.0337  0.0000  0.0000  0.0000  0.0000  0.0000  0.0000 </r>
        <r>  0.0001  0.0000  0.1650  0.0000  0.0000  0.0000  0.0000  0.0000  0.0000 </r>
        <r>  0.0000  0.2069  0.0000  0.0422  0.0000  0.0000  0.0000  0.0000  0.0000 </r>
       </set>
       <set comment="band 16">
        <r>  0.0000  0.1135  0.0000  0.0232  0.0000  0.0003  0.0000  0.0001  0.0000 </r>
        <r>  0.0000  0.0006  0.0000  0.0029  0.0000  0.0286  0.0000  0.1400  0.0000 </r>
        <r>  0.0001  0.0000  0.1650  0.0000  0.0000  0.0000  0.0000  0.0000  0.0000 </r>
        <r>  0.0000  0.0000  0.0337  0.0000  0.0000  0.0000  0.0000  0.0000  0.0000 </r>
        <r>  0.0000  0.0422  0.0000  0.2069  0.0000  0.0000  0.0000  0.0000  0.0000 </r>
       </set>
       <set comment="band 17">
        <r>  0.0000  0.0000  0.0000  0.0000  0.0000  0.0006  0.0000  0.0027  0.0000 </r>
        <r>  0.0000  0.0001  0.0000  0.0000  0.0000  0.0003  0.0000  0.0001  0.0000 </r>
        <r>  0.0000  0.0000  0.0764  0.0000  0.0000  0.0000  0.0000  0.0000  0.0000 </r>
        <r>  0.0002  0.0000  0.3204  0.0000  0.0000  0.0000  0.0000  0.0000  0.0000 </r>
        <r>  0.0000  0.2819  0.0000  0.0673  0.0000  0.0000  0.0000  0.0000  0.0000 </r>
       </set>
       <set comment="band 18">
        <r>  0.0000  0.0000  0.0000  0.0000  0.0000  0.0027  0.0000  0.0006  0.0000 </r>
        <r>  0.0000  0.0000  0.0000  0.0001  0.0000  0.0001  0.0000  0.0003  0.0000 </r>
        <r>  0.0002  0.0000  0.3204  0.0000  0.0000  0.0000  0.0000  0.0000  0.0000 </r>
        <r>  0.0000  0.0000  0.0764  0.0000  0.0000  0.0000  0.0000  0.0000  0.0000 </r>
        <r>  0.0000  0.0673  0.0000  0.2819  0.0000  0.0000  0.0000  0.0000  0.0000 </r>
       </set>
       <set comment="band 19">
        <r>  0.0000  0.0000  0.0000  0.0000  0.0000  0.0000  0.0000  0.0000  0.0009 </r>
        <r>  0.0000  0.0000  0.0000  0.0000  0.0000  0.0000  0.0000  0.0000  0.0000 </r>
        <r>  0.0000  0.3814  0.0000  0.0000  0.0000  0.0000  0.0000  0.0000  0.0000 </r>
        <r>  0.0000  0.0000  0.0000  0.3814  0.0000  0.0000  0.0000  0.0000  0.0000 </r>
        <r>  0.0000  0.0000  0.0000  0.0000  0.0000  0.0000  0.0000  0.0000  0.0000 </r>
       </set>
       <set comment="band 20">
        <r>  0.0000  0.0011  0.0000  0.0047  0.0000  0.0005  0.0000  0.0021  0.0000 </r>
        <r>  0.0000  0.0005  0.0000  0.0001  0.0000  0.6218  0.0000  0.1472  0.0000 </r>
        <r>  0.0000  0.0000  0.0152  0.0000  0.0000  0.0000  0.0000  0.0000  0.0000 </r>
        <r>  0.0002  0.0000  0.0641  0.0000  0.0000  0.0000  0.0000  0.0000  0.0000 </r>
        <r>  0.0000  0.0614  0.0000  0.0145  0.0000  0.0000  0.0000  0.0000  0.0000 </r>
       </set>
       <set comment="band 21">
        <r>  0.0000  0.0047  0.0000  0.0011  0.0000  0.0021  0.0000  0.0005  0.0000 </r>
        <r>  0.0000  0.0001  0.0000  0.0005  0.0000  0.1472  0.0000  0.6218  0.0000 </r>
        <r>  0.0002  0.0000  0.0641  0.0000  0.0000  0.0000  0.0000  0.0000  0.0000 </r>
        <r>  0.0000  0.0000  0.0152  0.0000  0.0000  0.0000  0.0000  0.0000  0.0000 </r>
        <r>  0.0000  0.0145  0.0000  0.0614  0.0000  0.0000  0.0000  0.0000  0.0000 </r>
       </set>
       <set comment="band 22">
        <r>  0.0021  0.0000  0.0039  0.0000  0.0000  0.0000  0.0008  0.0000  0.0000 </r>
        <r>  0.0000  0.0000  0.0000  0.0000  0.7769  0.0000  0.0000  0.0000  0.0000 </r>
        <r>  0.0000  0.0756  0.0000  0.0000  0.0000  0.0000  0.0000  0.0000  0.0000 </r>
        <r>  0.0000  0.0000  0.0000  0.0756  0.0000  0.0000  0.0000  0.0000  0.0000 </r>
        <r>  0.0000  0.0000  0.0000  0.0000  0.0000  0.0000  0.0000  0.0000  0.0000 </r>
       </set>
       <set comment="band 23">
        <r>  0.0000  0.0000  0.0000  0.0000  0.2926  0.0000  0.0000  0.0000  0.0000 </r>
        <r>  0.0010  0.0000  0.0639  0.0000  0.0000  0.0000  0.1926  0.0000  0.0000 </r>
        <r>  0.0000  0.0000  0.0000  0.0112  0.0000  0.0000  0.0000  0.0000  0.0000 </r>
        <r>  0.0000  0.0112  0.0000  0.0000  0.0000  0.0000  0.0000  0.0000  0.0000 </r>
        <r>  0.0409  0.0000  0.1127  0.0000  0.0000  0.0000  0.0000  0.0000  0.0000 </r>
       </set>
       <set comment="band 24">
        <r>  0.0000  0.0000  0.0000  0.0000  0.0000  0.0953  0.0000  0.4117  0.0000 </r>
        <r>  0.0000  0.0197  0.0000  0.0046  0.0000  0.0044  0.0000  0.0010  0.0000 </r>
        <r>  0.0129  0.0000  0.0002  0.0000  0.0000  0.0000  0.0000  0.0000  0.0000 </r>
        <r>  0.0557  0.0000  0.0007  0.0000  0.0000  0.0000  0.0000  0.0000  0.0000 </r>
        <r>  0.0000  0.0036  0.0000  0.0008  0.0000  0.0000  0.0000  0.0000  0.0000 </r>
       </set>
      </set>
     </set>
    </set>
   </array>
  </projected>
 </calculation>
 <structure name="finalpos" >
  <crystal>
   <varray name="basis" >
    <v>       4.00136800       0.00000000       0.00000000 </v>
    <v>       0.00000000       4.00136800       0.00000000 </v>
    <v>       0.00000000       0.00000000       4.21574400 </v>
   </varray>
   <i name="volume">     67.49804899 </i>
   <varray name="rec_basis" >
    <v>       0.24991453       0.00000000       0.00000000 </v>
    <v>       0.00000000       0.24991453       0.00000000 </v>
    <v>       0.00000000       0.00000000       0.23720605 </v>
   </varray>
  </crystal>
  <varray name="positions" >
   <v>       0.00000000       0.00000000       0.02027300 </v>
   <v>       0.50000000       0.50000000       0.53885200 </v>
   <v>       0.00000000       0.50000000       0.49202200 </v>
   <v>       0.50000000       0.00000000       0.49202200 </v>
   <v>       0.50000000       0.50000000       0.97082900 </v>
  </varray>
 </structure>
</modeling>
