  14   14    1    2
  3.0860574e+02   7.3735273e-10   7.3735273e-10   7.3735273e-10   5.0000000e-16
            1.000000e-04
  CAR
 DOS and projected DOS file by LOBSTER. Energy is shifted such that the Fermi level lies at 0 eV. 
      7.54545098     -12.50467433   401       2.53291965       1.00000000
-15.03759   0.00000   0.00000  30.00000  30.00000
-14.98747   0.00000   0.00000  30.00000  30.00000
-14.93734   0.00000   0.00000  30.00000  30.00000
-14.88722   0.00000   0.00000  30.00000  30.00000
-14.83709   0.00000   0.00000  30.00000  30.00000
-14.78697   0.00000   0.00000  30.00000  30.00000
-14.73684   0.00000   0.00000  30.00000  30.00000
-14.68672   0.00000   0.00000  30.00000  30.00000
-14.63659   0.00000   0.00000  30.00000  30.00000
-14.58647   0.00000   0.00000  30.00000  30.00000
-14.53634   0.00000   0.00000  30.00000  30.00000
-14.48622   0.00000   0.00000  30.00000  30.00000
-14.43609   0.00000   0.00000  30.00000  30.00000
-14.38596   0.00000   0.00000  30.00000  30.00000
-14.33584   0.00000   0.00000  30.00000  30.00000
-14.28571   0.00000   0.00000  30.00000  30.00000
-14.23559   0.00000   0.00000  30.00000  30.00000
-14.18546   0.00000   0.00000  30.00000  30.00000
-14.13534   0.00000   0.00000  30.00000  30.00000
-14.08521   0.00000   0.00000  30.00000  30.00000
-14.03509   0.00000   0.00000  30.00000  30.00000
-13.98496   0.00000   0.00000  30.00000  30.00000
-13.93484   0.00000   0.00000  30.00000  30.00000
-13.88471   0.00000   0.00000  30.00000  30.00000
-13.83459   0.00000   0.00000  30.00000  30.00000
-13.78446   0.00000   0.00000  30.00000  30.00000
-13.73434   0.00000   0.00000  30.00000  30.00000
-13.68421   0.00000   0.00000  30.00000  30.00000
-13.63409   0.00000   0.00000  30.00000  30.00000
-13.58396   0.00000   0.00000  30.00000  30.00000
-13.53383   0.00000   0.00000  30.00000  30.00000
-13.48371   0.00000   0.00000  30.00000  30.00000
-13.43358   0.00000   0.00000  30.00000  30.00000
-13.38346   0.00000   0.00000  30.00000  30.00000
-13.33333   0.00000   0.00000  30.00000  30.00000
-13.28321   0.00000   0.00000  30.00000  30.00000
-13.23308   0.00027   0.00026  30.00001  30.00001
-13.18296   0.05515   0.05468  30.00278  30.00275
-13.13283   1.92665   1.91692  30.09935  30.09884
-13.08271  16.69734  16.66389  30.93631  30.93412
-13.03258  60.62972  60.61714  33.97540  33.97258
-12.98246  94.16606  94.18868  38.69550  38.69381
-12.93233  54.98189  55.00169  41.45148  41.45079
-12.88221  10.47775  10.49043  41.97668  41.97663
-12.83208   0.46163   0.46277  41.99982  41.99982
-12.78195   0.00353   0.00354  42.00000  42.00000
-12.73183   0.00000   0.00000  42.00000  42.00000
-12.68170   0.00000   0.00000  42.00000  42.00000
-12.63158   0.00000   0.00000  42.00000  42.00000
-12.58145   0.00000   0.00000  42.00000  42.00000
-12.53133   0.00000   0.00000  42.00000  42.00000
-12.48120   0.00000   0.00000  42.00000  42.00000
-12.43108   0.00000   0.00000  42.00000  42.00000
-12.38095   0.00000   0.00000  42.00000  42.00000
-12.33083   0.00000   0.00000  42.00000  42.00000
-12.28070   0.00000   0.00000  42.00000  42.00000
-12.23058   0.00000   0.00000  42.00000  42.00000
-12.18045   0.00000   0.00000  42.00000  42.00000
-12.13033   0.00000   0.00000  42.00000  42.00000
-12.08020   0.00000   0.00000  42.00000  42.00000
-12.03008   0.00000   0.00000  42.00000  42.00000
-11.97995   0.00000   0.00000  42.00000  42.00000
-11.92982   0.00000   0.00000  42.00000  42.00000
-11.87970   0.00000   0.00000  42.00000  42.00000
-11.82957   0.00000   0.00000  42.00000  42.00000
-11.77945   0.00000   0.00000  42.00000  42.00000
-11.72932   0.00000   0.00000  42.00000  42.00000
-11.67920   0.00000   0.00000  42.00000  42.00000
-11.62907   0.00000   0.00000  42.00000  42.00000
-11.57895   0.00000   0.00000  42.00000  42.00000
-11.52882   0.00000   0.00000  42.00000  42.00000
-11.47870   0.00000   0.00000  42.00000  42.00000
-11.42857   0.00000   0.00000  42.00000  42.00000
-11.37845   0.00000   0.00000  42.00000  42.00000
-11.32832   0.00000   0.00000  42.00000  42.00000
-11.27820   0.00000   0.00000  42.00000  42.00000
-11.22807   0.00000   0.00000  42.00000  42.00000
-11.17794   0.00000   0.00000  42.00000  42.00000
-11.12782   0.00000   0.00000  42.00000  42.00000
-11.07769   0.00000   0.00000  42.00000  42.00000
-11.02757   0.00000   0.00000  42.00000  42.00000
-10.97744   0.00000   0.00000  42.00000  42.00000
-10.92732   0.00000   0.00000  42.00000  42.00000
-10.87719   0.00000   0.00000  42.00000  42.00000
-10.82707   0.00000   0.00000  42.00000  42.00000
-10.77694   0.00000   0.00000  42.00000  42.00000
-10.72682   0.00000   0.00000  42.00000  42.00000
-10.67669   0.00000   0.00000  42.00000  42.00000
-10.62657   0.00000   0.00000  42.00000  42.00000
-10.57644   0.00000   0.00000  42.00000  42.00000
-10.52632   0.00000   0.00000  42.00000  42.00000
-10.47619   0.00000   0.00000  42.00000  42.00000
-10.42607   0.00000   0.00000  42.00000  42.00000
-10.37594   0.00000   0.00000  42.00000  42.00000
-10.32581   0.00000   0.00000  42.00000  42.00000
-10.27569   0.00000   0.00000  42.00000  42.00000
-10.22556   0.00000   0.00000  42.00000  42.00000
-10.17544   0.00000   0.00000  42.00000  42.00000
-10.12531   0.00000   0.00000  42.00000  42.00000
-10.07519   0.00000   0.00000  42.00000  42.00000
-10.02506   0.00000   0.00000  42.00000  42.00000
 -9.97494   0.00000   0.00000  42.00000  42.00000
 -9.92481   0.00000   0.00000  42.00000  42.00000
 -9.87469   0.00000   0.00000  42.00000  42.00000
 -9.82456   0.00000   0.00000  42.00000  42.00000
 -9.77444   0.00000   0.00000  42.00000  42.00000
 -9.72431   0.00000   0.00000  42.00000  42.00000
 -9.67419   0.00000   0.00000  42.00000  42.00000
 -9.62406   0.00000   0.00000  42.00000  42.00000
 -9.57393   0.00000   0.00000  42.00000  42.00000
 -9.52381   0.00000   0.00000  42.00000  42.00000
 -9.47368   0.00000   0.00000  42.00000  42.00000
 -9.42356   0.00000   0.00000  42.00000  42.00000
 -9.37343   0.00000   0.00000  42.00000  42.00000
 -9.32331   0.00000   0.00000  42.00000  42.00000
 -9.27318   0.00000   0.00000  42.00000  42.00000
 -9.22306   0.00000   0.00000  42.00000  42.00000
 -9.17293   0.00000   0.00000  42.00000  42.00000
 -9.12281   0.00000   0.00000  42.00000  42.00000
 -9.07268   0.00000   0.00000  42.00000  42.00000
 -9.02256   0.00000   0.00000  42.00000  42.00000
 -8.97243   0.00000   0.00000  42.00000  42.00000
 -8.92231   0.00000   0.00000  42.00000  42.00000
 -8.87218   0.00000   0.00000  42.00000  42.00000
 -8.82206   0.00000   0.00000  42.00000  42.00000
 -8.77193   0.00000   0.00000  42.00000  42.00000
 -8.72180   0.00000   0.00000  42.00000  42.00000
 -8.67168   0.00000   0.00000  42.00000  42.00000
 -8.62155   0.00000   0.00000  42.00000  42.00000
 -8.57143   0.00000   0.00000  42.00000  42.00000
 -8.52130   0.00000   0.00000  42.00000  42.00000
 -8.47118   0.00000   0.00000  42.00000  42.00000
 -8.42105   0.00000   0.00000  42.00000  42.00000
 -8.37093   0.00000   0.00000  42.00000  42.00000
 -8.32080   0.00000   0.00000  42.00000  42.00000
 -8.27068   0.00000   0.00000  42.00000  42.00000
 -8.22055   0.00000   0.00000  42.00000  42.00000
 -8.17043   0.00000   0.00000  42.00000  42.00000
 -8.12030   0.00000   0.00000  42.00000  42.00000
 -8.07018   0.00000   0.00000  42.00000  42.00000
 -8.02005   0.00000   0.00000  42.00000  42.00000
 -7.96992   0.00000   0.00000  42.00000  42.00000
 -7.91980   0.00000   0.00000  42.00000  42.00000
 -7.86967   0.00000   0.00000  42.00000  42.00000
 -7.81955   0.00000   0.00000  42.00000  42.00000
 -7.76942   0.00000   0.00000  42.00000  42.00000
 -7.71930   0.00000   0.00000  42.00000  42.00000
 -7.66917   0.00000   0.00000  42.00000  42.00000
 -7.61905   0.00000   0.00000  42.00000  42.00000
 -7.56892   0.00000   0.00000  42.00000  42.00000
 -7.51880   0.00000   0.00000  42.00000  42.00000
 -7.46867   0.00000   0.00000  42.00000  42.00000
 -7.41855   0.00000   0.00000  42.00000  42.00000
 -7.36842   0.00000   0.00000  42.00000  42.00000
 -7.31830   0.00001   0.00001  42.00000  42.00000
 -7.26817   0.00510   0.00502  42.00026  42.00025
 -7.21805   0.56979   0.56403  42.02882  42.02852
 -7.16792  10.06560  10.01254  42.53336  42.53041
 -7.11779  30.61134  30.59064  44.06776  44.06377
 -7.06767  16.92341  16.98860  44.91605  44.91533
 -7.01754   1.64866   1.66273  44.99869  44.99867
 -6.96742   0.02603   0.02638  45.00000  45.00000
 -6.91729   0.00006   0.00006  45.00000  45.00000
 -6.86717   0.00000   0.00000  45.00000  45.00000
 -6.81704   0.00000   0.00000  45.00000  45.00000
 -6.76692   0.00000   0.00000  45.00000  45.00000
 -6.71679   0.00000   0.00000  45.00000  45.00000
 -6.66667   0.00000   0.00000  45.00000  45.00000
 -6.61654   0.00000   0.00000  45.00000  45.00000
 -6.56642   0.00000   0.00000  45.00000  45.00000
 -6.51629   0.00000   0.00000  45.00000  45.00000
 -6.46617   0.00000   0.00000  45.00000  45.00000
 -6.41604   0.00000   0.00000  45.00000  45.00000
 -6.36591   0.00000   0.00000  45.00000  45.00000
 -6.31579   0.00000   0.00000  45.00000  45.00000
 -6.26566   0.00000   0.00000  45.00000  45.00000
 -6.21554   0.00000   0.00000  45.00000  45.00000
 -6.16541   0.00000   0.00000  45.00000  45.00000
 -6.11529   0.00000   0.00000  45.00000  45.00000
 -6.06516   0.00000   0.00000  45.00000  45.00000
 -6.01504   0.00000   0.00000  45.00000  45.00000
 -5.96491   0.00000   0.00000  45.00000  45.00000
 -5.91479   0.00000   0.00000  45.00000  45.00000
 -5.86466   0.00000   0.00000  45.00000  45.00000
 -5.81454   0.00000   0.00000  45.00000  45.00000
 -5.76441   0.00000   0.00000  45.00000  45.00000
 -5.71429   0.00000   0.00000  45.00000  45.00000
 -5.66416   0.00000   0.00000  45.00000  45.00000
 -5.61404   0.00000   0.00000  45.00000  45.00000
 -5.56391   0.00000   0.00000  45.00000  45.00000
 -5.51378   0.00000   0.00000  45.00000  45.00000
 -5.46366   0.00000   0.00000  45.00000  45.00000
 -5.41353   0.00000   0.00000  45.00000  45.00000
 -5.36341   0.00000   0.00000  45.00000  45.00000
 -5.31328   0.00000   0.00000  45.00000  45.00000
 -5.26316   0.00000   0.00000  45.00000  45.00000
 -5.21303   0.00000   0.00000  45.00000  45.00000
 -5.16291   0.00000   0.00000  45.00000  45.00000
 -5.11278   0.00000   0.00000  45.00000  45.00000
 -5.06266   0.00000   0.00000  45.00000  45.00000
 -5.01253   0.00000   0.00000  45.00000  45.00000
 -4.96241   0.00000   0.00000  45.00000  45.00000
 -4.91228   0.00000   0.00000  45.00000  45.00000
 -4.86216   0.00000   0.00000  45.00000  45.00000
 -4.81203   0.00000   0.00000  45.00000  45.00000
 -4.76190   0.00000   0.00000  45.00000  45.00000
 -4.71178   0.00000   0.00000  45.00000  45.00000
 -4.66165   0.00000   0.00000  45.00000  45.00000
 -4.61153   0.00000   0.00000  45.00000  45.00000
 -4.56140   0.00000   0.00000  45.00000  45.00000
 -4.51128   0.00000   0.00000  45.00000  45.00000
 -4.46115   0.00000   0.00000  45.00000  45.00000
 -4.41103   0.00000   0.00000  45.00000  45.00000
 -4.36090   0.00000   0.00000  45.00000  45.00000
 -4.31078   0.00028   0.00028  45.00001  45.00001
 -4.26065   0.05565   0.05517  45.00280  45.00278
 -4.21053   1.70285   1.69433  45.08816  45.08771
 -4.16040   8.73780   8.72434  45.52614  45.52502
 -4.11028   8.07703   8.09198  45.93101  45.93063
 -4.06015   1.33945   1.34661  45.99815  45.99813
 -4.01003   0.08497   0.08472  46.00241  46.00238
 -3.95990   2.41926   2.40053  46.12367  46.12270
 -3.90977  19.96359  19.89783  47.12435  47.12009
 -3.85965  29.27656  29.31144  48.59185  48.58933
 -3.80952   7.78707   7.83330  48.98218  48.98198
 -3.75940   0.35300   0.35692  48.99987  48.99987
 -3.70927   0.00251   0.00255  49.00000  49.00000
 -3.65915   0.00000   0.00000  49.00000  49.00000
 -3.60902   0.00000   0.00000  49.00000  49.00000
 -3.55890   0.00000   0.00000  49.00000  49.00000
 -3.50877   0.00000   0.00000  49.00000  49.00000
 -3.45865   0.00000   0.00000  49.00000  49.00000
 -3.40852   0.00000   0.00000  49.00000  49.00000
 -3.35840   0.00000   0.00000  49.00000  49.00000
 -3.30827   0.00000   0.00000  49.00000  49.00000
 -3.25815   0.00000   0.00000  49.00000  49.00000
 -3.20802   0.00000   0.00000  49.00000  49.00000
 -3.15789   0.00000   0.00000  49.00000  49.00000
 -3.10777   0.00000   0.00000  49.00000  49.00000
 -3.05764   0.00000   0.00000  49.00000  49.00000
 -3.00752   0.00000   0.00000  49.00000  49.00000
 -2.95739   0.00001   0.00001  49.00000  49.00000
 -2.90727   0.00431   0.00420  49.00022  49.00021
 -2.85714   0.50953   0.50049  49.02576  49.02530
 -2.80702   9.49243   9.40297  49.50157  49.49662
 -2.75689  30.36227  30.31844  51.02349  51.01635
 -2.70677  17.64177  17.75664  51.90779  51.90640
 -2.65664   1.80946   1.83632  51.99849  51.99845
 -2.60652   0.03017   0.03089  52.00000  52.00000
 -2.55639   0.01040   0.01050  52.00052  52.00052
 -2.50627   0.61355   0.61743  52.03127  52.03147
 -2.45614   5.92543   5.94185  52.32829  52.32931
 -2.40602  10.10395  10.09755  52.83475  52.83545
 -2.35589   3.12907   3.11635  52.99160  52.99166
 -2.30576   0.17037   0.16912  53.00014  53.00014
 -2.25564   0.43186   0.43349  53.02178  53.02187
 -2.20551   7.18329   7.19677  53.38185  53.38261
 -2.15539  22.05915  22.04673  54.48757  54.48771
 -2.10526  26.92381  26.82704  55.83713  55.83242
 -2.05514  31.81046  31.82796  57.43164  57.42781
 -2.00501  10.69392  10.76236  57.96768  57.96727
 -1.95489   0.63874   0.64672  57.99970  57.99969
 -1.90476   0.00605   0.00617  58.00000  58.00000
 -1.85464   0.00001   0.00001  58.00000  58.00000
 -1.80451   0.00000   0.00000  58.00000  58.00000
 -1.75439   0.00000   0.00000  58.00000  58.00000
 -1.70426   0.00203   0.00202  58.00010  58.00010
 -1.65414   0.30541   0.30455  58.01541  58.01537
 -1.60401   7.19190   7.18092  58.37591  58.37531
 -1.55388  28.76532  28.75556  59.81778  59.81669
 -1.50376  20.84016  20.85649  60.86240  60.86213
 -1.45363   2.68803   2.69314  60.99714  60.99713
 -1.40351   0.05697   0.05714  60.99999  60.99999
 -1.35338   0.00018   0.00018  61.00000  61.00000
 -1.30326   0.00000   0.00000  61.00000  61.00000
 -1.25313   0.00000   0.00000  61.00000  61.00000
 -1.20301   0.00000   0.00000  61.00000  61.00000
 -1.15288   0.00000   0.00000  61.00000  61.00000
 -1.10276   0.00000   0.00000  61.00000  61.00000
 -1.05263   0.00000   0.00000  61.00000  61.00000
 -1.00251   0.00000   0.00000  61.00000  61.00000
 -0.95238   0.00000   0.00000  61.00000  61.00000
 -0.90226   0.00000   0.00000  61.00000  61.00000
 -0.85213   0.00000   0.00000  61.00000  61.00000
 -0.80201   0.00000   0.00000  61.00000  61.00000
 -0.75188   0.00000   0.00000  61.00000  61.00000
 -0.70175   0.00000   0.00000  61.00000  61.00000
 -0.65163   0.00000   0.00000  61.00000  61.00000
 -0.60150   0.00000   0.00000  61.00000  61.00000
 -0.55138   0.00000  -0.00000  61.00000  61.00000
 -0.50125   0.00000   0.00000  61.00000  61.00000
 -0.45113   0.00000   0.00000  61.00000  61.00000
 -0.40100   0.00180   0.00173  61.00009  61.00009
 -0.35088   0.28204   0.27438  61.01423  61.01384
 -0.30075   6.88058   6.77596  61.35912  61.35349
 -0.25063  28.46277  28.35636  62.78582  62.77486
 -0.20050  21.31495  21.47663  63.85424  63.85138
 -0.15038   2.84513   2.90023  63.99686  63.99676
 -0.10025   0.06251   0.06449  63.99999  63.99999
 -0.05013   0.00021   0.00022  64.00000  64.00000
  0.00000   0.00000   0.00000  64.00000  64.00000
  0.05013   0.00000   0.00000  64.00000  64.00000
  0.10025   0.00000   0.00000  64.00000  64.00000
  0.15038   0.00000   0.00000  64.00000  64.00000
  0.20050   0.00000   0.00000  64.00000  64.00000
  0.25063   0.00000   0.00000  64.00000  64.00000
  0.30075   0.00000   0.00000  64.00000  64.00000
  0.35088   0.00000   0.00000  64.00000  64.00000
  0.40100   0.00000   0.00000  64.00000  64.00000
  0.45113   0.00000   0.00000  64.00000  64.00000
  0.50125   0.00000   0.00000  64.00000  64.00000
  0.55138   0.00000   0.00000  64.00000  64.00000
  0.60150   0.00000   0.00000  64.00000  64.00000
  0.65163   0.00000   0.00000  64.00000  64.00000
  0.70175   0.00000   0.00000  64.00000  64.00000
  0.75188   0.00000   0.00000  64.00000  64.00000
  0.80201   0.00000   0.00000  64.00000  64.00000
  0.85213   0.00000   0.00000  64.00000  64.00000
  0.90226   0.00000   0.00000  64.00000  64.00000
  0.95238   0.00000   0.00000  64.00000  64.00000
  1.00251   0.00000   0.00000  64.00000  64.00000
  1.05263   0.00000   0.00000  64.00000  64.00000
  1.10276   0.00000   0.00000  64.00000  64.00000
  1.15288   0.00000   0.00000  64.00000  64.00000
  1.20301   0.00000   0.00000  64.00000  64.00000
  1.25313   0.00000   0.00000  64.00000  64.00000
  1.30326   0.00000   0.00000  64.00000  64.00000
  1.35338   0.00000   0.00000  64.00000  64.00000
  1.40351   0.00000   0.00000  64.00000  64.00000
  1.45363   0.00000   0.00000  64.00000  64.00000
  1.50376   0.00000   0.00000  64.00000  64.00000
  1.55388   0.00000   0.00000  64.00000  64.00000
  1.60401   0.00000   0.00000  64.00000  64.00000
  1.65414   0.00000   0.00000  64.00000  64.00000
  1.70426   0.00000   0.00000  64.00000  64.00000
  1.75439   0.00000   0.00000  64.00000  64.00000
  1.80451   0.00000   0.00000  64.00000  64.00000
  1.85464   0.00000   0.00000  64.00000  64.00000
  1.90476   0.00000   0.00000  64.00000  64.00000
  1.95489   0.00000   0.00000  64.00000  64.00000
  2.00501   0.00000   0.00000  64.00000  64.00000
  2.05514   0.00000   0.00000  64.00000  64.00000
  2.10526   0.00000   0.00000  64.00000  64.00000
  2.15539   0.00000   0.00000  64.00000  64.00000
  2.20551   0.00001   0.00001  64.00000  64.00000
  2.25564   0.00428   0.00431  64.00021  64.00022
  2.30576   0.44322   0.44487  64.02243  64.02252
  2.35589   7.27140   7.28526  64.38691  64.38769
  2.40602  20.59831  20.60205  65.41941  65.42038
  2.45614  10.60909  10.59301  65.95119  65.95135
  2.50627   0.95965   0.95652  65.99930  65.99930
  2.55639   0.01401   0.01394  66.00000  66.00000
  2.60652   0.00003   0.00003  66.00000  66.00000
  2.65664   0.00000   0.00000  66.00000  66.00000
  2.70677   0.00000   0.00000  66.00000  66.00000
  2.75689   0.00000   0.00000  66.00000  66.00000
  2.80702   0.00012   0.00012  66.00001  66.00001
  2.85714   0.04251   0.04265  66.00214  66.00214
  2.90727   2.24416   2.24863  66.11463  66.11486
  2.95739  19.35642  19.37288  67.08487  67.08593
  3.00752  29.60334  29.59517  68.56875  68.56940
  3.05764   8.21179   8.19994  68.98037  68.98042
  3.10777   0.38877   0.38773  68.99986  68.99986
  3.15789   0.00289   0.00287  69.00000  69.00000
  3.20802   0.00000   0.00000  69.00000  69.00000
  3.25815   0.00000   0.00000  69.00000  69.00000
  3.30827   0.00000   0.00000  69.00000  69.00000
  3.35840   0.00000   0.00000  69.00000  69.00000
  3.40852   0.00000   0.00000  69.00000  69.00000
  3.45865   0.00000   0.00000  69.00000  69.00000
  3.50877   0.00000   0.00000  69.00000  69.00000
  3.55890   0.00000   0.00000  69.00000  69.00000
  3.60902   0.00031   0.00033  69.00002  69.00002
  3.65915   0.06014   0.06224  69.00303  69.00314
  3.70927   1.78090   1.81640  69.09230  69.09418
  3.75940   8.85709   8.90909  69.53626  69.54076
  3.80952   7.94129   7.88027  69.93432  69.93576
  3.85965   1.27607   1.24869  69.99829  69.99835
  3.90977   0.03405   0.03283  69.99999  69.99999
  3.95990   0.00014   0.00013  70.00000  70.00000
  4.01003   0.00000   0.00000  70.00000  70.00000
  4.06015   0.00000   0.00000  70.00000  70.00000
  4.11028   0.00000   0.00000  70.00000  70.00000
  4.16040   0.00000   0.00000  70.00000  70.00000
  4.21053   0.00000   0.00000  70.00000  70.00000
  4.26065   0.00000   0.00000  70.00000  70.00000
  4.31078   0.00000   0.00000  70.00000  70.00000
  4.36090   0.00000   0.00000  70.00000  70.00000
  4.41103   0.00000   0.00000  70.00000  70.00000
  4.46115   0.00000   0.00000  70.00000  70.00000
  4.51128   0.00000   0.00000  70.00000  70.00000
  4.56140   0.00000   0.00000  70.00000  70.00000
  4.61153   0.00000   0.00000  70.00000  70.00000
  4.66165   0.00000   0.00000  70.00000  70.00000
  4.71178   0.00000   0.00000  70.00000  70.00000
  4.76190   0.00000   0.00000  70.00000  70.00000
  4.81203   0.00000   0.00000  70.00000  70.00000
  4.86216   0.00000   0.00000  70.00000  70.00000
  4.91228   0.00000   0.00000  70.00000  70.00000
  4.96241   0.00000   0.00000  70.00000  70.00000
  5.01253   0.00000   0.00000  70.00000  70.00000
      5.01253133     -15.03759398   401       2.53291965       1.00000000; Z= 19; 3s 4s 3p_y 3p_z 3p_x 
-15.03759   0.00000   0.00000   0.00000   0.00000   0.00000   0.00000   0.00000   0.00000   0.00000   0.00000
-14.98747   0.00000   0.00000   0.00000   0.00000   0.00000   0.00000   0.00000   0.00000   0.00000   0.00000
-14.93734   0.00000   0.00000   0.00000   0.00000   0.00000   0.00000   0.00000   0.00000   0.00000   0.00000
-14.88722   0.00000   0.00000   0.00000   0.00000   0.00000   0.00000   0.00000   0.00000   0.00000   0.00000
-14.83709   0.00000   0.00000   0.00000   0.00000   0.00000   0.00000   0.00000   0.00000   0.00000   0.00000
-14.78697   0.00000   0.00000   0.00000   0.00000   0.00000   0.00000   0.00000   0.00000   0.00000   0.00000
-14.73684   0.00000   0.00000   0.00000   0.00000   0.00000   0.00000   0.00000   0.00000   0.00000   0.00000
-14.68672   0.00000   0.00000   0.00000   0.00000   0.00000   0.00000   0.00000   0.00000   0.00000   0.00000
-14.63659   0.00000   0.00000   0.00000   0.00000   0.00000   0.00000   0.00000   0.00000   0.00000   0.00000
-14.58647   0.00000   0.00000   0.00000   0.00000   0.00000   0.00000   0.00000   0.00000   0.00000   0.00000
-14.53634   0.00000   0.00000   0.00000   0.00000   0.00000   0.00000   0.00000   0.00000   0.00000   0.00000
-14.48622   0.00000   0.00000   0.00000   0.00000   0.00000   0.00000   0.00000   0.00000   0.00000   0.00000
-14.43609   0.00000   0.00000   0.00000   0.00000   0.00000   0.00000   0.00000   0.00000   0.00000   0.00000
-14.38596   0.00000   0.00000   0.00000   0.00000   0.00000   0.00000   0.00000   0.00000   0.00000   0.00000
-14.33584   0.00000   0.00000   0.00000   0.00000   0.00000   0.00000   0.00000   0.00000   0.00000   0.00000
-14.28571   0.00000   0.00000   0.00000   0.00000   0.00000   0.00000   0.00000   0.00000   0.00000   0.00000
-14.23559   0.00000   0.00000   0.00000   0.00000   0.00000   0.00000   0.00000   0.00000   0.00000   0.00000
-14.18546   0.00000   0.00000   0.00000   0.00000   0.00000   0.00000   0.00000   0.00000   0.00000   0.00000
-14.13534   0.00000   0.00000   0.00000   0.00000   0.00000   0.00000   0.00000   0.00000   0.00000   0.00000
-14.08521   0.00000   0.00000   0.00000   0.00000   0.00000   0.00000   0.00000   0.00000   0.00000   0.00000
-14.03509   0.00000   0.00000   0.00000   0.00000   0.00000   0.00000   0.00000   0.00000   0.00000   0.00000
-13.98496   0.00000   0.00000   0.00000   0.00000   0.00000   0.00000   0.00000   0.00000   0.00000   0.00000
-13.93484   0.00000   0.00000   0.00000   0.00000   0.00000   0.00000   0.00000   0.00000   0.00000   0.00000
-13.88471   0.00000   0.00000   0.00000   0.00000   0.00000   0.00000   0.00000   0.00000   0.00000   0.00000
-13.83459   0.00000   0.00000   0.00000   0.00000   0.00000   0.00000   0.00000   0.00000   0.00000   0.00000
-13.78446   0.00000   0.00000   0.00000   0.00000   0.00000   0.00000   0.00000   0.00000   0.00000   0.00000
-13.73434   0.00000   0.00000   0.00000   0.00000   0.00000   0.00000   0.00000   0.00000   0.00000   0.00000
-13.68421   0.00000   0.00000   0.00000   0.00000   0.00000   0.00000   0.00000   0.00000   0.00000   0.00000
-13.63409   0.00000   0.00000   0.00000   0.00000   0.00000   0.00000   0.00000   0.00000   0.00000   0.00000
-13.58396   0.00000   0.00000   0.00000   0.00000   0.00000   0.00000   0.00000   0.00000   0.00000   0.00000
-13.53383   0.00000   0.00000   0.00000   0.00000   0.00000   0.00000   0.00000   0.00000   0.00000   0.00000
-13.48371   0.00000   0.00000   0.00000   0.00000   0.00000   0.00000   0.00000   0.00000   0.00000   0.00000
-13.43358   0.00000   0.00000   0.00000   0.00000   0.00000   0.00000   0.00000   0.00000   0.00000   0.00000
-13.38346   0.00000   0.00000   0.00000   0.00000   0.00000   0.00000   0.00000   0.00000   0.00000   0.00000
-13.33333  -0.00000  -0.00000   0.00000   0.00000   0.00000   0.00000   0.00000   0.00000   0.00000   0.00000
-13.28321   0.00000   0.00000   0.00000   0.00000   0.00000   0.00000   0.00000   0.00000   0.00000   0.00000
-13.23308   0.00000   0.00000   0.00000   0.00000   0.00002   0.00002   0.00002   0.00002   0.00002   0.00002
-13.18296   0.00000   0.00000   0.00000   0.00001   0.00467   0.00465   0.00460   0.00455   0.00465   0.00458
-13.13283   0.00001   0.00001   0.00014   0.00018   0.16243   0.16235   0.16102   0.15963   0.16244   0.16063
-13.08271   0.00006   0.00006   0.00070   0.00088   1.39454   1.39641   1.39830   1.39101   1.40343   1.39207
-13.03258   0.00004   0.00004   0.00062   0.00079   5.02372   5.02815   5.05149   5.04099   5.03628   5.02292
-12.98246   0.00002   0.00002   0.00048   0.00051   7.75974   7.75587   7.73317   7.74031   7.74235   7.75447
-12.93233   0.00003   0.00003   0.00018   0.00019   4.49120   4.48839   4.47984   4.49028   4.48894   4.50012
-12.88221   0.00001   0.00001  -0.00001  -0.00000   0.85089   0.85229   0.85747   0.85895   0.84951   0.85228
-12.83208   0.00000   0.00000  -0.00000  -0.00000   0.03741   0.03758   0.03801   0.03804   0.03725   0.03744
-12.78195   0.00000   0.00000  -0.00000  -0.00000   0.00029   0.00029   0.00029   0.00029   0.00028   0.00029
-12.73183   0.00000   0.00000  -0.00000  -0.00000   0.00000   0.00000   0.00000   0.00000   0.00000   0.00000
-12.68170   0.00000  -0.00000  -0.00000  -0.00000   0.00000   0.00000   0.00000   0.00000   0.00000   0.00000
-12.63158  -0.00000  -0.00000  -0.00000  -0.00000  -0.00000   0.00000  -0.00000   0.00000  -0.00000   0.00000
-12.58145   0.00000   0.00000   0.00000   0.00000   0.00000   0.00000   0.00000   0.00000   0.00000   0.00000
-12.53133   0.00000   0.00000   0.00000   0.00000   0.00000   0.00000   0.00000   0.00000   0.00000   0.00000
-12.48120   0.00000   0.00000   0.00000   0.00000   0.00000   0.00000   0.00000   0.00000   0.00000   0.00000
-12.43108   0.00000   0.00000   0.00000   0.00000   0.00000   0.00000   0.00000   0.00000   0.00000   0.00000
-12.38095   0.00000   0.00000   0.00000   0.00000   0.00000   0.00000   0.00000   0.00000   0.00000   0.00000
-12.33083   0.00000   0.00000   0.00000   0.00000   0.00000   0.00000   0.00000   0.00000   0.00000   0.00000
-12.28070   0.00000   0.00000   0.00000   0.00000   0.00000   0.00000   0.00000   0.00000   0.00000   0.00000
-12.23058   0.00000   0.00000   0.00000   0.00000   0.00000   0.00000   0.00000   0.00000   0.00000   0.00000
-12.18045   0.00000   0.00000   0.00000   0.00000   0.00000   0.00000   0.00000   0.00000   0.00000   0.00000
-12.13033   0.00000   0.00000   0.00000   0.00000   0.00000   0.00000   0.00000   0.00000   0.00000   0.00000
-12.08020   0.00000   0.00000   0.00000   0.00000   0.00000   0.00000   0.00000   0.00000   0.00000   0.00000
-12.03008   0.00000   0.00000   0.00000   0.00000   0.00000   0.00000   0.00000   0.00000   0.00000   0.00000
-11.97995   0.00000   0.00000   0.00000   0.00000   0.00000   0.00000   0.00000   0.00000   0.00000   0.00000
-11.92982   0.00000   0.00000   0.00000   0.00000   0.00000   0.00000   0.00000   0.00000   0.00000   0.00000
-11.87970   0.00000   0.00000   0.00000   0.00000   0.00000   0.00000   0.00000   0.00000   0.00000   0.00000
-11.82957   0.00000   0.00000   0.00000   0.00000   0.00000   0.00000   0.00000   0.00000   0.00000   0.00000
-11.77945   0.00000   0.00000   0.00000   0.00000   0.00000   0.00000   0.00000   0.00000   0.00000   0.00000
-11.72932   0.00000   0.00000   0.00000   0.00000   0.00000   0.00000   0.00000   0.00000   0.00000   0.00000
-11.67920   0.00000   0.00000   0.00000   0.00000   0.00000   0.00000   0.00000   0.00000   0.00000   0.00000
-11.62907   0.00000   0.00000   0.00000   0.00000   0.00000   0.00000   0.00000   0.00000   0.00000   0.00000
-11.57895   0.00000   0.00000   0.00000   0.00000   0.00000   0.00000   0.00000   0.00000   0.00000   0.00000
-11.52882   0.00000   0.00000   0.00000   0.00000   0.00000   0.00000   0.00000   0.00000   0.00000   0.00000
-11.47870   0.00000   0.00000   0.00000   0.00000   0.00000   0.00000   0.00000   0.00000   0.00000   0.00000
-11.42857   0.00000   0.00000   0.00000   0.00000   0.00000   0.00000   0.00000   0.00000   0.00000   0.00000
-11.37845   0.00000   0.00000   0.00000   0.00000   0.00000   0.00000   0.00000   0.00000   0.00000   0.00000
-11.32832   0.00000   0.00000   0.00000   0.00000   0.00000   0.00000   0.00000   0.00000   0.00000   0.00000
-11.27820   0.00000   0.00000   0.00000   0.00000   0.00000   0.00000   0.00000   0.00000   0.00000   0.00000
-11.22807   0.00000   0.00000   0.00000   0.00000   0.00000   0.00000   0.00000   0.00000   0.00000   0.00000
-11.17794   0.00000   0.00000   0.00000   0.00000   0.00000   0.00000   0.00000   0.00000   0.00000   0.00000
-11.12782   0.00000   0.00000   0.00000   0.00000   0.00000   0.00000   0.00000   0.00000   0.00000   0.00000
-11.07769   0.00000   0.00000   0.00000   0.00000   0.00000   0.00000   0.00000   0.00000   0.00000   0.00000
-11.02757   0.00000   0.00000   0.00000   0.00000   0.00000   0.00000   0.00000   0.00000   0.00000   0.00000
-10.97744   0.00000   0.00000   0.00000   0.00000   0.00000   0.00000   0.00000   0.00000   0.00000   0.00000
-10.92732   0.00000   0.00000   0.00000   0.00000   0.00000   0.00000   0.00000   0.00000   0.00000   0.00000
-10.87719   0.00000   0.00000   0.00000   0.00000   0.00000   0.00000   0.00000   0.00000   0.00000   0.00000
-10.82707   0.00000   0.00000   0.00000   0.00000   0.00000   0.00000   0.00000   0.00000   0.00000   0.00000
-10.77694   0.00000   0.00000   0.00000   0.00000   0.00000   0.00000   0.00000   0.00000   0.00000   0.00000