  14  14   1   0
  0.2204327E+02  0.7373527E-09  0.7373527E-09  0.7373527E-09  0.5000000E-15
  1.000000000000000E-004
  CAR 
 unknown system                          
     11.68109029    -28.82741438  301      2.53291965      1.00000000
    -28.827  0.0000E+00  0.0000E+00  0.0000E+00  0.0000E+00
    -28.692  0.0000E+00  0.0000E+00  0.0000E+00  0.0000E+00
    -28.557  0.0000E+00  0.0000E+00  0.0000E+00  0.0000E+00
    -28.422  0.0000E+00  0.0000E+00  0.0000E+00  0.0000E+00
    -28.287  0.0000E+00  0.0000E+00  0.0000E+00  0.0000E+00
    -28.152  0.0000E+00  0.0000E+00  0.0000E+00  0.0000E+00
    -28.017  0.0000E+00  0.0000E+00  0.0000E+00  0.0000E+00
    -27.882  0.0000E+00  0.0000E+00  0.0000E+00  0.0000E+00
    -27.747  0.0000E+00  0.0000E+00  0.0000E+00  0.0000E+00
    -27.612  0.0000E+00  0.0000E+00  0.0000E+00  0.0000E+00
    -27.477  0.0000E+00  0.0000E+00  0.0000E+00  0.0000E+00
    -27.342  0.0000E+00  0.0000E+00  0.0000E+00  0.0000E+00
    -27.207  0.1858E-08  0.1843E-08  0.2509E-09  0.2489E-09
    -27.072  0.1080E+00  0.1076E+00  0.1458E-01  0.1453E-01
    -26.937  0.2533E+02  0.2533E+02  0.3435E+01  0.3434E+01
    -26.802  0.4182E+01  0.4190E+01  0.4000E+01  0.4000E+01
    -26.667  0.1746E-04  0.1756E-04  0.4000E+01  0.4000E+01
    -26.532  0.0000E+00  0.0000E+00  0.4000E+01  0.4000E+01
    -26.397  0.0000E+00  0.0000E+00  0.4000E+01  0.4000E+01
    -26.262  0.0000E+00  0.0000E+00  0.4000E+01  0.4000E+01
    -26.127  0.0000E+00  0.0000E+00  0.4000E+01  0.4000E+01
    -25.992  0.0000E+00  0.0000E+00  0.4000E+01  0.4000E+01
    -25.857  0.0000E+00  0.0000E+00  0.4000E+01  0.4000E+01
    -25.722  0.0000E+00  0.0000E+00  0.4000E+01  0.4000E+01
    -25.587  0.0000E+00  0.0000E+00  0.4000E+01  0.4000E+01
    -25.452  0.0000E+00  0.0000E+00  0.4000E+01  0.4000E+01
    -25.317  0.0000E+00  0.0000E+00  0.4000E+01  0.4000E+01
    -25.182  0.0000E+00  0.0000E+00  0.4000E+01  0.4000E+01
    -25.047  0.0000E+00  0.0000E+00  0.4000E+01  0.4000E+01
    -24.912  0.0000E+00  0.0000E+00  0.4000E+01  0.4000E+01
    -24.777  0.0000E+00  0.0000E+00  0.4000E+01  0.4000E+01
    -24.642  0.0000E+00  0.0000E+00  0.4000E+01  0.4000E+01
    -24.507  0.0000E+00  0.0000E+00  0.4000E+01  0.4000E+01
    -24.371  0.0000E+00  0.0000E+00  0.4000E+01  0.4000E+01
    -24.236  0.0000E+00  0.0000E+00  0.4000E+01  0.4000E+01
    -24.101  0.0000E+00  0.0000E+00  0.4000E+01  0.4000E+01
    -23.966  0.0000E+00  0.0000E+00  0.4000E+01  0.4000E+01
    -23.831  0.0000E+00  0.0000E+00  0.4000E+01  0.4000E+01
    -23.696  0.0000E+00  0.0000E+00  0.4000E+01  0.4000E+01
    -23.561  0.0000E+00  0.0000E+00  0.4000E+01  0.4000E+01
    -23.426  0.0000E+00  0.0000E+00  0.4000E+01  0.4000E+01
    -23.291  0.0000E+00  0.0000E+00  0.4000E+01  0.4000E+01
    -23.156  0.0000E+00  0.0000E+00  0.4000E+01  0.4000E+01
    -23.021  0.0000E+00  0.0000E+00  0.4000E+01  0.4000E+01
    -22.886  0.0000E+00  0.0000E+00  0.4000E+01  0.4000E+01
    -22.751  0.0000E+00  0.0000E+00  0.4000E+01  0.4000E+01
    -22.616  0.0000E+00  0.0000E+00  0.4000E+01  0.4000E+01
    -22.481  0.0000E+00  0.0000E+00  0.4000E+01  0.4000E+01
    -22.346  0.0000E+00  0.0000E+00  0.4000E+01  0.4000E+01
    -22.211  0.0000E+00  0.0000E+00  0.4000E+01  0.4000E+01
    -22.076  0.0000E+00  0.0000E+00  0.4000E+01  0.4000E+01
    -21.941  0.0000E+00  0.0000E+00  0.4000E+01  0.4000E+01
    -21.806  0.0000E+00  0.0000E+00  0.4000E+01  0.4000E+01
    -21.671  0.0000E+00  0.0000E+00  0.4000E+01  0.4000E+01
    -21.536  0.0000E+00  0.0000E+00  0.4000E+01  0.4000E+01
    -21.401  0.0000E+00  0.0000E+00  0.4000E+01  0.4000E+01
    -21.266  0.0000E+00  0.0000E+00  0.4000E+01  0.4000E+01
    -21.131  0.0000E+00  0.0000E+00  0.4000E+01  0.4000E+01
    -20.996  0.0000E+00  0.0000E+00  0.4000E+01  0.4000E+01
    -20.861  0.0000E+00  0.0000E+00  0.4000E+01  0.4000E+01
    -20.726  0.0000E+00  0.0000E+00  0.4000E+01  0.4000E+01
    -20.591  0.0000E+00  0.0000E+00  0.4000E+01  0.4000E+01
    -20.456  0.0000E+00  0.0000E+00  0.4000E+01  0.4000E+01
    -20.321  0.0000E+00  0.0000E+00  0.4000E+01  0.4000E+01
    -20.186  0.0000E+00  0.0000E+00  0.4000E+01  0.4000E+01
    -20.051  0.0000E+00  0.0000E+00  0.4000E+01  0.4000E+01
    -19.916  0.0000E+00  0.0000E+00  0.4000E+01  0.4000E+01
    -19.781  0.0000E+00  0.0000E+00  0.4000E+01  0.4000E+01
    -19.645  0.0000E+00  0.0000E+00  0.4000E+01  0.4000E+01
    -19.510  0.0000E+00  0.0000E+00  0.4000E+01  0.4000E+01
    -19.375  0.0000E+00  0.0000E+00  0.4000E+01  0.4000E+01
    -19.240  0.0000E+00  0.0000E+00  0.4000E+01  0.4000E+01
    -19.105  0.0000E+00  0.0000E+00  0.4000E+01  0.4000E+01
    -18.970  0.0000E+00  0.0000E+00  0.4000E+01  0.4000E+01
    -18.835  0.0000E+00  0.0000E+00  0.4000E+01  0.4000E+01
    -18.700  0.0000E+00  0.0000E+00  0.4000E+01  0.4000E+01
    -18.565  0.0000E+00  0.0000E+00  0.4000E+01  0.4000E+01
    -18.430  0.7266E-07  0.7313E-07  0.4000E+01  0.4000E+01
    -18.295  0.4113E+00  0.4123E+00  0.4056E+01  0.4056E+01
    -18.160  0.2053E+02  0.2054E+02  0.6828E+01  0.6829E+01
    -18.025  0.1614E+02  0.1613E+02  0.9007E+01  0.9007E+01
    -17.890  0.2033E+02  0.2034E+02  0.1175E+02  0.1175E+02
    -17.755  0.7467E+02  0.7472E+02  0.2184E+02  0.2184E+02
    -17.620  0.1603E+02  0.1597E+02  0.2400E+02  0.2400E+02
    -17.485  0.1385E-02  0.1361E-02  0.2400E+02  0.2400E+02
    -17.350  0.0000E+00  0.0000E+00  0.2400E+02  0.2400E+02
    -17.215  0.0000E+00  0.0000E+00  0.2400E+02  0.2400E+02
    -17.080  0.0000E+00  0.0000E+00  0.2400E+02  0.2400E+02
    -16.945  0.0000E+00  0.0000E+00  0.2400E+02  0.2400E+02
    -16.810  0.0000E+00  0.0000E+00  0.2400E+02  0.2400E+02
    -16.675  0.0000E+00  0.0000E+00  0.2400E+02  0.2400E+02
    -16.540  0.0000E+00  0.0000E+00  0.2400E+02  0.2400E+02
    -16.405  0.0000E+00  0.0000E+00  0.2400E+02  0.2400E+02
    -16.270  0.0000E+00  0.0000E+00  0.2400E+02  0.2400E+02
    -16.135  0.0000E+00  0.0000E+00  0.2400E+02  0.2400E+02
    -16.000  0.0000E+00  0.0000E+00  0.2400E+02  0.2400E+02
    -15.865  0.0000E+00  0.0000E+00  0.2400E+02  0.2400E+02
    -15.730  0.0000E+00  0.0000E+00  0.2400E+02  0.2400E+02
    -15.595  0.0000E+00  0.0000E+00  0.2400E+02  0.2400E+02
    -15.460  0.0000E+00  0.0000E+00  0.2400E+02  0.2400E+02
    -15.325  0.2263E-11  0.2199E-11  0.2400E+02  0.2400E+02
    -15.190  0.2696E-02  0.2658E-02  0.2400E+02  0.2400E+02
    -15.055  0.4960E+01  0.4950E+01  0.2467E+02  0.2467E+02
    -14.919  0.2443E+01  0.2453E+01  0.2500E+02  0.2500E+02
    -14.784  0.7585E-04  0.7719E-04  0.2500E+02  0.2500E+02
    -14.649  0.0000E+00  0.0000E+00  0.2500E+02  0.2500E+02
    -14.514  0.2090E-09  0.2038E-09  0.2500E+02  0.2500E+02
    -14.379  0.4190E-01  0.4140E-01  0.2501E+02  0.2501E+02
    -14.244  0.1821E+02  0.1819E+02  0.2746E+02  0.2746E+02
    -14.109  0.3962E+01  0.3985E+01  0.2800E+02  0.2800E+02
    -13.974  0.1214E-01  0.1198E-01  0.2800E+02  0.2800E+02
    -13.839  0.1107E+02  0.1105E+02  0.2950E+02  0.2949E+02
    -13.704  0.3727E+01  0.3746E+01  0.3000E+02  0.3000E+02
    -13.569  0.5321E-04  0.5422E-04  0.3000E+02  0.3000E+02
    -13.434  0.0000E+00  0.0000E+00  0.3000E+02  0.3000E+02
    -13.299  0.0000E+00  0.0000E+00  0.3000E+02  0.3000E+02
    -13.164  0.0000E+00  0.0000E+00  0.3000E+02  0.3000E+02
    -13.029  0.0000E+00  0.0000E+00  0.3000E+02  0.3000E+02
    -12.894  0.0000E+00  0.0000E+00  0.3000E+02  0.3000E+02
    -12.759  0.0000E+00  0.0000E+00  0.3000E+02  0.3000E+02
    -12.624  0.0000E+00  0.0000E+00  0.3000E+02  0.3000E+02
    -12.489  0.0000E+00  0.0000E+00  0.3000E+02  0.3000E+02
    -12.354  0.0000E+00  0.0000E+00  0.3000E+02  0.3000E+02
    -12.219  0.0000E+00  0.0000E+00  0.3000E+02  0.3000E+02
    -12.084  0.0000E+00  0.0000E+00  0.3000E+02  0.3000E+02
    -11.949  0.0000E+00  0.0000E+00  0.3000E+02  0.3000E+02
    -11.814  0.0000E+00  0.0000E+00  0.3000E+02  0.3000E+02
    -11.679  0.0000E+00  0.0000E+00  0.3000E+02  0.3000E+02
    -11.544  0.0000E+00  0.0000E+00  0.3000E+02  0.3000E+02
    -11.409  0.0000E+00  0.0000E+00  0.3000E+02  0.3000E+02
    -11.274  0.0000E+00  0.0000E+00  0.3000E+02  0.3000E+02
    -11.139  0.0000E+00  0.0000E+00  0.3000E+02  0.3000E+02
    -11.004  0.0000E+00  0.0000E+00  0.3000E+02  0.3000E+02
    -10.869  0.0000E+00  0.0000E+00  0.3000E+02  0.3000E+02
    -10.734  0.9863E-06  0.9690E-06  0.3000E+02  0.3000E+02
    -10.599  0.7913E+00  0.7868E+00  0.3011E+02  0.3011E+02
    -10.464  0.5426E+02  0.5426E+02  0.3743E+02  0.3743E+02
    -10.329  0.3379E+02  0.3380E+02  0.4200E+02  0.4200E+02
    -10.194  0.2863E-01  0.2863E-01  0.4200E+02  0.4200E+02
    -10.058  0.8783E-10  0.8787E-10  0.4200E+02  0.4200E+02
     -9.923  0.0000E+00  0.0000E+00  0.4200E+02  0.4200E+02
     -9.788  0.0000E+00  0.0000E+00  0.4200E+02  0.4200E+02
     -9.653  0.0000E+00  0.0000E+00  0.4200E+02  0.4200E+02
     -9.518  0.0000E+00  0.0000E+00  0.4200E+02  0.4200E+02
     -9.383  0.0000E+00  0.0000E+00  0.4200E+02  0.4200E+02
     -9.248  0.0000E+00  0.0000E+00  0.4200E+02  0.4200E+02
     -9.113  0.0000E+00  0.0000E+00  0.4200E+02  0.4200E+02
     -8.978  0.0000E+00  0.0000E+00  0.4200E+02  0.4200E+02
     -8.843  0.0000E+00  0.0000E+00  0.4200E+02  0.4200E+02
     -8.708  0.0000E+00  0.0000E+00  0.4200E+02  0.4200E+02
     -8.573  0.0000E+00  0.0000E+00  0.4200E+02  0.4200E+02
     -8.438  0.0000E+00  0.0000E+00  0.4200E+02  0.4200E+02
     -8.303  0.0000E+00  0.0000E+00  0.4200E+02  0.4200E+02
     -8.168  0.0000E+00  0.0000E+00  0.4200E+02  0.4200E+02
     -8.033  0.0000E+00  0.0000E+00  0.4200E+02  0.4200E+02
     -7.898  0.0000E+00  0.0000E+00  0.4200E+02  0.4200E+02
     -7.763  0.0000E+00  0.0000E+00  0.4200E+02  0.4200E+02
     -7.628  0.0000E+00  0.0000E+00  0.4200E+02  0.4200E+02
     -7.493  0.0000E+00  0.0000E+00  0.4200E+02  0.4200E+02
     -7.358  0.0000E+00  0.0000E+00  0.4200E+02  0.4200E+02
     -7.223  0.0000E+00  0.0000E+00  0.4200E+02  0.4200E+02
     -7.088  0.0000E+00  0.0000E+00  0.4200E+02  0.4200E+02
     -6.953  0.0000E+00  0.0000E+00  0.4200E+02  0.4200E+02
     -6.818  0.0000E+00  0.0000E+00  0.4200E+02  0.4200E+02
     -6.683  0.0000E+00  0.0000E+00  0.4200E+02  0.4200E+02
     -6.548  0.0000E+00  0.0000E+00  0.4200E+02  0.4200E+02
     -6.413  0.0000E+00  0.0000E+00  0.4200E+02  0.4200E+02
     -6.278  0.0000E+00  0.0000E+00  0.4200E+02  0.4200E+02
     -6.143  0.0000E+00  0.0000E+00  0.4200E+02  0.4200E+02
     -6.008  0.0000E+00  0.0000E+00  0.4200E+02  0.4200E+02
     -5.873  0.0000E+00  0.0000E+00  0.4200E+02  0.4200E+02
     -5.738  0.0000E+00  0.0000E+00  0.4200E+02  0.4200E+02
     -5.603  0.0000E+00  0.0000E+00  0.4200E+02  0.4200E+02
     -5.468  0.0000E+00  0.0000E+00  0.4200E+02  0.4200E+02
     -5.332  0.0000E+00  0.0000E+00  0.4200E+02  0.4200E+02
     -5.197  0.0000E+00  0.0000E+00  0.4200E+02  0.4200E+02
     -5.062  0.0000E+00  0.0000E+00  0.4200E+02  0.4200E+02
     -4.927  0.0000E+00  0.0000E+00  0.4200E+02  0.4200E+02
     -4.792  0.8585E-06  0.8384E-06  0.4200E+02  0.4200E+02
     -4.657  0.1333E+01  0.1322E+01  0.4218E+02  0.4218E+02
     -4.522  0.2062E+02  0.2063E+02  0.4496E+02  0.4496E+02
     -4.387  0.2619E+00  0.2647E+00  0.4500E+02  0.4500E+02
     -4.252  0.1313E-07  0.1346E-07  0.4500E+02  0.4500E+02
     -4.117  0.0000E+00  0.0000E+00  0.4500E+02  0.4500E+02
     -3.982  0.0000E+00  0.0000E+00  0.4500E+02  0.4500E+02
     -3.847  0.0000E+00  0.0000E+00  0.4500E+02  0.4500E+02
     -3.712  0.0000E+00  0.0000E+00  0.4500E+02  0.4500E+02
     -3.577  0.0000E+00  0.0000E+00  0.4500E+02  0.4500E+02
     -3.442  0.0000E+00  0.0000E+00  0.4500E+02  0.4500E+02
     -3.307  0.0000E+00  0.0000E+00  0.4500E+02  0.4500E+02
     -3.172  0.0000E+00  0.0000E+00  0.4500E+02  0.4500E+02
     -3.037  0.0000E+00  0.0000E+00  0.4500E+02  0.4500E+02
     -2.902  0.0000E+00  0.0000E+00  0.4500E+02  0.4500E+02
     -2.767  0.0000E+00  0.0000E+00  0.4500E+02  0.4500E+02
     -2.632  0.0000E+00  0.0000E+00  0.4500E+02  0.4500E+02
     -2.497  0.0000E+00  0.0000E+00  0.4500E+02  0.4500E+02
     -2.362  0.0000E+00  0.0000E+00  0.4500E+02  0.4500E+02
     -2.227  0.0000E+00  0.0000E+00  0.4500E+02  0.4500E+02
     -2.092  0.0000E+00  0.0000E+00  0.4500E+02  0.4500E+02
     -1.957  0.0000E+00  0.0000E+00  0.4500E+02  0.4500E+02
     -1.822  0.2109E-06  0.2051E-06  0.4500E+02  0.4500E+02
     -1.687  0.3986E+00  0.3946E+00  0.4505E+02  0.4505E+02
     -1.552  0.6907E+01  0.6910E+01  0.4599E+02  0.4599E+02
     -1.417  0.1753E+01  0.1741E+01  0.4622E+02  0.4622E+02
     -1.282  0.2037E+02  0.2038E+02  0.4897E+02  0.4897E+02
     -1.147  0.1953E+00  0.1976E+00  0.4900E+02  0.4900E+02
     -1.012  0.6569E-08  0.6756E-08  0.4900E+02  0.4900E+02
     -0.877  0.0000E+00  0.0000E+00  0.4900E+02  0.4900E+02
     -0.742  0.0000E+00  0.0000E+00  0.4900E+02  0.4900E+02
     -0.606  0.0000E+00  0.0000E+00  0.4900E+02  0.4900E+02
     -0.471  0.6515E-09  0.6227E-09  0.4900E+02  0.4900E+02
     -0.336  0.7076E-01  0.6933E-01  0.4901E+02  0.4901E+02
     -0.201  0.1909E+02  0.1906E+02  0.5159E+02  0.5158E+02
     -0.066  0.3058E+01  0.3091E+01  0.5200E+02  0.5200E+02
      0.069  0.1854E+01  0.1859E+01  0.5225E+02  0.5225E+02
      0.204  0.5546E+01  0.5541E+01  0.5300E+02  0.5300E+02
      0.339  0.4308E+01  0.4320E+01  0.5358E+02  0.5358E+02
      0.474  0.2779E+02  0.2774E+02  0.5733E+02  0.5733E+02
      0.609  0.4935E+01  0.4972E+01  0.5800E+02  0.5800E+02
      0.744  0.5051E-04  0.5191E-04  0.5800E+02  0.5800E+02
      0.879  0.1144E+00  0.1139E+00  0.5802E+02  0.5802E+02
      1.014  0.1977E+02  0.1976E+02  0.6068E+02  0.6068E+02
      1.149  0.2335E+01  0.2340E+01  0.6100E+02  0.6100E+02
      1.284  0.4376E-05  0.4407E-05  0.6100E+02  0.6100E+02
      1.419  0.0000E+00  0.0000E+00  0.6100E+02  0.6100E+02
      1.554  0.0000E+00  0.0000E+00  0.6100E+02  0.6100E+02
      1.689  0.0000E+00  0.0000E+00  0.6100E+02  0.6100E+02
      1.824  0.0000E+00  0.0000E+00  0.6100E+02  0.6100E+02
      1.959  0.0000E+00  0.0000E+00  0.6100E+02  0.6100E+02
      2.094  0.4155E-05  0.3955E-05  0.6100E+02  0.6100E+02
      2.229  0.2295E+01  0.2258E+01  0.6131E+02  0.6130E+02
      2.364  0.1980E+02  0.1984E+02  0.6398E+02  0.6398E+02
      2.499  0.1177E+00  0.1209E+00  0.6400E+02  0.6400E+02
      2.634  0.2040E-08  0.2166E-08  0.6400E+02  0.6400E+02
      2.769  0.0000E+00  0.0000E+00  0.6400E+02  0.6400E+02
      2.904  0.0000E+00  0.0000E+00  0.6400E+02  0.6400E+02
      3.039  0.0000E+00  0.0000E+00  0.6400E+02  0.6400E+02
      3.174  0.0000E+00  0.0000E+00  0.6400E+02  0.6400E+02
      3.309  0.0000E+00  0.0000E+00  0.6400E+02  0.6400E+02
      3.444  0.0000E+00  0.0000E+00  0.6400E+02  0.6400E+02
      3.579  0.0000E+00  0.0000E+00  0.6400E+02  0.6400E+02
      3.714  0.0000E+00  0.0000E+00  0.6400E+02  0.6400E+02
      3.849  0.0000E+00  0.0000E+00  0.6400E+02  0.6400E+02
      3.984  0.0000E+00  0.0000E+00  0.6400E+02  0.6400E+02
      4.120  0.0000E+00  0.0000E+00  0.6400E+02  0.6400E+02
      4.255  0.0000E+00  0.0000E+00  0.6400E+02  0.6400E+02
      4.390  0.0000E+00  0.0000E+00  0.6400E+02  0.6400E+02
      4.525  0.0000E+00  0.0000E+00  0.6400E+02  0.6400E+02
      4.660  0.1487E-11  0.1505E-11  0.6400E+02  0.6400E+02
      4.795  0.3088E-02  0.3107E-02  0.6400E+02  0.6400E+02
      4.930  0.9093E+01  0.9102E+01  0.6523E+02  0.6523E+02
      5.065  0.5715E+01  0.5706E+01  0.6600E+02  0.6600E+02
      5.200  0.2940E-03  0.2920E-03  0.6600E+02  0.6600E+02
      5.335  0.2220E-04  0.2232E-04  0.6600E+02  0.6600E+02
      5.470  0.3889E+01  0.3895E+01  0.6653E+02  0.6653E+02
      5.605  0.1829E+02  0.1828E+02  0.6899E+02  0.6899E+02
      5.740  0.4353E-01  0.4336E-01  0.6900E+02  0.6900E+02
      5.875  0.2256E-09  0.2237E-09  0.6900E+02  0.6900E+02
      6.010  0.1069E-13  0.1151E-13  0.6900E+02  0.6900E+02
      6.145  0.1692E-03  0.1777E-03  0.6900E+02  0.6900E+02
      6.280  0.2950E+01  0.2983E+01  0.6940E+02  0.6940E+02
      6.415  0.4454E+01  0.4421E+01  0.7000E+02  0.7000E+02
      6.550  0.1364E-02  0.1306E-02  0.7000E+02  0.7000E+02
      6.685  0.5821E-12  0.5344E-12  0.7000E+02  0.7000E+02
      6.820  0.0000E+00  0.0000E+00  0.7000E+02  0.7000E+02
      6.955  0.0000E+00  0.0000E+00  0.7000E+02  0.7000E+02
      7.090  0.0000E+00  0.0000E+00  0.7000E+02  0.7000E+02
      7.225  0.0000E+00  0.0000E+00  0.7000E+02  0.7000E+02
      7.360  0.0000E+00  0.0000E+00  0.7000E+02  0.7000E+02
      7.495  0.0000E+00  0.0000E+00  0.7000E+02  0.7000E+02
      7.630  0.5529E-12  0.5312E-12  0.7000E+02  0.7000E+02
      7.765  0.1329E-02  0.1302E-02  0.7000E+02  0.7000E+02
      7.900  0.4435E+01  0.4420E+01  0.7060E+02  0.7060E+02
      8.035  0.1215E+02  0.1218E+02  0.7224E+02  0.7224E+02
      8.170  0.1303E+02  0.1302E+02  0.7400E+02  0.7400E+02
      8.305  0.3539E-02  0.3513E-02  0.7400E+02  0.7400E+02
      8.440  0.1880E-06  0.1880E-06  0.7400E+02  0.7400E+02
      8.575  0.5915E+00  0.5915E+00  0.7408E+02  0.7408E+02
      8.710  0.1393E+02  0.1393E+02  0.7596E+02  0.7596E+02
      8.845  0.2864E+00  0.2864E+00  0.7600E+02  0.7600E+02
      8.981  0.3031E-07  0.3023E-07  0.7600E+02  0.7600E+02
      9.116  0.9157E-01  0.8914E-01  0.7601E+02  0.7601E+02
      9.251  0.1947E+02  0.1943E+02  0.7864E+02  0.7864E+02
      9.386  0.2656E+01  0.2697E+01  0.7900E+02  0.7900E+02
      9.521  0.6493E-05  0.6806E-05  0.7900E+02  0.7900E+02
      9.656  0.8048E-06  0.7070E-06  0.7900E+02  0.7900E+02
      9.791  0.6382E+00  0.6106E+00  0.7909E+02  0.7908E+02
      9.926  0.6715E+01  0.6739E+01  0.7999E+02  0.7999E+02
     10.061  0.5224E-01  0.5585E-01  0.8000E+02  0.8000E+02
     10.196  0.1306E-08  0.1524E-08  0.8000E+02  0.8000E+02
     10.331  0.0000E+00  0.0000E+00  0.8000E+02  0.8000E+02
     10.466  0.0000E+00  0.0000E+00  0.8000E+02  0.8000E+02
     10.601  0.0000E+00  0.0000E+00  0.8000E+02  0.8000E+02
     10.736  0.0000E+00  0.0000E+00  0.8000E+02  0.8000E+02
     10.871  0.0000E+00  0.0000E+00  0.8000E+02  0.8000E+02
     11.006  0.0000E+00  0.0000E+00  0.8000E+02  0.8000E+02
     11.141  0.0000E+00  0.0000E+00  0.8000E+02  0.8000E+02
     11.276  0.0000E+00  0.0000E+00  0.8000E+02  0.8000E+02
     11.411  0.0000E+00  0.0000E+00  0.8000E+02  0.8000E+02
     11.546  0.0000E+00  0.0000E+00  0.8000E+02  0.8000E+02
     11.681  0.0000E+00  0.0000E+00  0.8000E+02  0.8000E+02
     11.68109029    -28.82741438  301      2.53291965      1.00000000
    -28.827  0.0000E+00  0.0000E+00  0.0000E+00  0.0000E+00  0.0000E+00  0.0000E+00  0.0000E+00  0.0000E+00  0.0000E+00  0.0000E+00  0.0000E+00  0.0000E+00  0.0000E+00  0.0000E+00  0.0000E+00  0.0000E+00  0.0000E+00  0.0000E+00
    -28.692  0.0000E+00  0.0000E+00  0.0000E+00  0.0000E+00  0.0000E+00  0.0000E+00  0.0000E+00  0.0000E+00  0.0000E+00  0.0000E+00  0.0000E+00  0.0000E+00  0.0000E+00  0.0000E+00  0.0000E+00  0.0000E+00  0.0000E+00  0.0000E+00
    -28.557  0.0000E+00  0.0000E+00  0.0000E+00  0.0000E+00  0.0000E+00  0.0000E+00  0.0000E+00  0.0000E+00  0.0000E+00  0.0000E+00  0.0000E+00  0.0000E+00  0.0000E+00  0.0000E+00  0.0000E+00  0.0000E+00  0.0000E+00  0.0000E+00
    -28.422  0.0000E+00  0.0000E+00  0.0000E+00  0.0000E+00  0.0000E+00  0.0000E+00  0.0000E+00  0.0000E+00  0.0000E+00  0.0000E+00  0.0000E+00  0.0000E+00  0.0000E+00  0.0000E+00  0.0000E+00  0.0000E+00  0.0000E+00  0.0000E+00
    -28.287  0.0000E+00  0.0000E+00  0.0000E+00  0.0000E+00  0.0000E+00  0.0000E+00  0.0000E+00  0.0000E+00  0.0000E+00  0.0000E+00  0.0000E+00  0.0000E+00  0.0000E+00  0.0000E+00  0.0000E+00  0.0000E+00  0.0000E+00  0.0000E+00
    -28.152  0.0000E+00  0.0000E+00  0.0000E+00  0.0000E+00  0.0000E+00  0.0000E+00  0.0000E+00  0.0000E+00  0.0000E+00  0.0000E+00  0.0000E+00  0.0000E+00  0.0000E+00  0.0000E+00  0.0000E+00  0.0000E+00  0.0000E+00  0.0000E+00
    -28.017  0.0000E+00  0.0000E+00  0.0000E+00  0.0000E+00  0.0000E+00  0.0000E+00  0.0000E+00  0.0000E+00  0.0000E+00  0.0000E+00  0.0000E+00  0.0000E+00  0.0000E+00  0.0000E+00  0.0000E+00  0.0000E+00  0.0000E+00  0.0000E+00
    -27.882  0.0000E+00  0.0000E+00  0.0000E+00  0.0000E+00  0.0000E+00  0.0000E+00  0.0000E+00  0.0000E+00  0.0000E+00  0.0000E+00  0.0000E+00  0.0000E+00  0.0000E+00  0.0000E+00  0.0000E+00  0.0000E+00  0.0000E+00  0.0000E+00
    -27.747  0.0000E+00  0.0000E+00  0.0000E+00  0.0000E+00  0.0000E+00  0.0000E+00  0.0000E+00  0.0000E+00  0.0000E+00  0.0000E+00  0.0000E+00  0.0000E+00  0.0000E+00  0.0000E+00  0.0000E+00  0.0000E+00  0.0000E+00  0.0000E+00
    -27.612  0.0000E+00  0.0000E+00  0.0000E+00  0.0000E+00  0.0000E+00  0.0000E+00  0.0000E+00  0.0000E+00  0.0000E+00  0.0000E+00  0.0000E+00  0.0000E+00  0.0000E+00  0.0000E+00  0.0000E+00  0.0000E+00  0.0000E+00  0.0000E+00
    -27.477  0.0000E+00  0.0000E+00  0.0000E+00  0.0000E+00  0.0000E+00  0.0000E+00  0.0000E+00  0.0000E+00  0.0000E+00  0.0000E+00  0.0000E+00  0.0000E+00  0.0000E+00  0.0000E+00  0.0000E+00  0.0000E+00  0.0000E+00  0.0000E+00
    -27.342  0.0000E+00  0.0000E+00  0.0000E+00  0.0000E+00  0.0000E+00  0.0000E+00  0.0000E+00  0.0000E+00  0.0000E+00  0.0000E+00  0.0000E+00  0.0000E+00  0.0000E+00  0.0000E+00  0.0000E+00  0.0000E+00  0.0000E+00  0.0000E+00
    -27.207  0.4769E-09  0.4759E-09  0.1579E-14  0.1588E-14  0.1628E-14  0.1609E-14  0.1597E-14  0.1587E-14  0.2269E-16  0.2233E-16  0.2297E-16  0.2393E-16  0.1609E-17  0.1436E-17  0.2458E-16  0.2126E-16  0.1734E-17  0.1722E-17
    -27.072  0.2712E-01  0.2712E-01  0.9658E-07  0.9715E-07  0.9878E-07  0.9791E-07  0.9749E-07  0.9712E-07  0.1322E-08  0.1287E-08  0.1319E-08  0.1369E-08  0.2668E-09  0.2389E-09  0.1409E-08  0.1221E-08  0.2628E-09  0.2634E-09
    -26.937  0.6164E+01  0.6164E+01  0.2323E-04  0.2334E-04  0.2369E-04  0.2350E-04  0.2343E-04  0.2336E-04  0.3064E-06  0.2952E-06  0.3021E-06  0.3124E-06  0.9984E-07  0.8964E-07  0.3225E-06  0.2792E-06  0.9161E-07  0.9248E-07
    -26.802  0.9937E+00  0.9935E+00  0.3844E-05  0.3862E-05  0.3923E-05  0.3891E-05  0.3879E-05  0.3867E-05  0.4988E-07  0.4779E-07  0.4890E-07  0.5046E-07  0.1977E-07  0.1778E-07  0.5219E-07  0.4516E-07  0.1733E-07  0.1757E-07
    -26.667  0.3976E-05  0.3977E-05  0.1572E-10  0.1580E-10  0.1612E-10  0.1600E-10  0.1588E-10  0.1584E-10  0.2013E-12  0.1920E-12  0.1964E-12  0.2026E-12  0.9821E-13  0.8860E-13  0.2097E-12  0.1813E-12  0.7881E-13  0.8060E-13
    -26.532  0.0000E+00  0.0000E+00  0.0000E+00  0.0000E+00  0.0000E+00  0.0000E+00  0.0000E+00  0.0000E+00  0.0000E+00  0.0000E+00  0.0000E+00  0.0000E+00  0.0000E+00  0.0000E+00  0.0000E+00  0.0000E+00  0.0000E+00  0.0000E+00
    -26.397  0.0000E+00  0.0000E+00  0.0000E+00  0.0000E+00  0.0000E+00  0.0000E+00  0.0000E+00  0.0000E+00  0.0000E+00  0.0000E+00  0.0000E+00  0.0000E+00  0.0000E+00  0.0000E+00  0.0000E+00  0.0000E+00  0.0000E+00  0.0000E+00
    -26.262  0.0000E+00  0.0000E+00  0.0000E+00  0.0000E+00  0.0000E+00  0.0000E+00  0.0000E+00  0.0000E+00  0.0000E+00  0.0000E+00  0.0000E+00  0.0000E+00  0.0000E+00  0.0000E+00  0.0000E+00  0.0000E+00  0.0000E+00  0.0000E+00
    -26.127  0.0000E+00  0.0000E+00  0.0000E+00  0.0000E+00  0.0000E+00  0.0000E+00  0.0000E+00  0.0000E+00  0.0000E+00  0.0000E+00  0.0000E+00  0.0000E+00  0.0000E+00  0.0000E+00  0.0000E+00  0.0000E+00  0.0000E+00  0.0000E+00
    -25.992  0.0000E+00  0.0000E+00  0.0000E+00  0.0000E+00  0.0000E+00  0.0000E+00  0.0000E+00  0.0000E+00  0.0000E+00  0.0000E+00  0.0000E+00  0.0000E+00  0.0000E+00  0.0000E+00  0.0000E+00  0.0000E+00  0.0000E+00  0.0000E+00
    -25.857  0.0000E+00  0.0000E+00  0.0000E+00  0.0000E+00  0.0000E+00  0.0000E+00  0.0000E+00  0.0000E+00  0.0000E+00  0.0000E+00  0.0000E+00  0.0000E+00  0.0000E+00  0.0000E+00  0.0000E+00  0.0000E+00  0.0000E+00  0.0000E+00
    -25.722  0.0000E+00  0.0000E+00  0.0000E+00  0.0000E+00  0.0000E+00  0.0000E+00  0.0000E+00  0.0000E+00  0.0000E+00  0.0000E+00  0.0000E+00  0.0000E+00  0.0000E+00  0.0000E+00  0.0000E+00  0.0000E+00  0.0000E+00  0.0000E+00
    -25.587  0.0000E+00  0.0000E+00  0.0000E+00  0.0000E+00  0.0000E+00  0.0000E+00  0.0000E+00  0.0000E+00  0.0000E+00  0.0000E+00  0.0000E+00  0.0000E+00  0.0000E+00  0.0000E+00  0.0000E+00  0.0000E+00  0.0000E+00  0.0000E+00
    -25.452  0.0000E+00  0.0000E+00  0.0000E+00  0.0000E+00  0.0000E+00  0.0000E+00  0.0000E+00  0.0000E+00  0.0000E+00  0.0000E+00  0.0000E+00  0.0000E+00  0.0000E+00  0.0000E+00  0.0000E+00  0.0000E+00  0.0000E+00  0.0000E+00
    -25.317  0.0000E+00  0.0000E+00  0.0000E+00  0.0000E+00  0.0000E+00  0.0000E+00  0.0000E+00  0.0000E+00  0.0000E+00  0.0000E+00  0.0000E+00  0.0000E+00  0.0000E+00  0.0000E+00  0.0000E+00  0.0000E+00  0.0000E+00  0.0000E+00
    -25.182  0.0000E+00  0.0000E+00  0.0000E+00  0.0000E+00  0.0000E+00  0.0000E+00  0.0000E+00  0.0000E+00  0.0000E+00  0.0000E+00  0.0000E+00  0.0000E+00  0.0000E+00  0.0000E+00  0.0000E+00  0.0000E+00  0.0000E+00  0.0000E+00
    -25.047  0.0000E+00  0.0000E+00  0.0000E+00  0.0000E+00  0.0000E+00  0.0000E+00  0.0000E+00  0.0000E+00  0.0000E+00  0.0000E+00  0.0000E+00  0.0000E+00  0.0000E+00  0.0000E+00  0.0000E+00  0.0000E+00  0.0000E+00  0.0000E+00
    -24.912  0.0000E+00  0.0000E+00  0.0000E+00  0.0000E+00  0.0000E+00  0.0000E+00  0.0000E+00  0.0000E+00  0.0000E+00  0.0000E+00  0.0000E+00  0.0000E+00  0.0000E+00  0.0000E+00  0.0000E+00  0.0000E+00  0.0000E+00  0.0000E+00
    -24.777  0.0000E+00  0.0000E+00  0.0000E+00  0.0000E+00  0.0000E+00  0.0000E+00  0.0000E+00  0.0000E+00  0.0000E+00  0.0000E+00  0.0000E+00  0.0000E+00  0.0000E+00  0.0000E+00  0.0000E+00  0.0000E+00  0.0000E+00  0.0000E+00
    -24.642  0.0000E+00  0.0000E+00  0.0000E+00  0.0000E+00  0.0000E+00  0.0000E+00  0.0000E+00  0.0000E+00  0.0000E+00  0.0000E+00  0.0000E+00  0.0000E+00  0.0000E+00  0.0000E+00  0.0000E+00  0.0000E+00  0.0000E+00  0.0000E+00
    -24.507  0.0000E+00  0.0000E+00  0.0000E+00  0.0000E+00  0.0000E+00  0.0000E+00  0.0000E+00  0.0000E+00  0.0000E+00  0.0000E+00  0.0000E+00  0.0000E+00  0.0000E+00  0.0000E+00  0.0000E+00  0.0000E+00  0.0000E+00  0.0000E+00
    -24.371  0.0000E+00  0.0000E+00  0.0000E+00  0.0000E+00  0.0000E+00  0.0000E+00  0.0000E+00  0.0000E+00  0.0000E+00  0.0000E+00  0.0000E+00  0.0000E+00  0.0000E+00  0.0000E+00  0.0000E+00  0.0000E+00  0.0000E+00  0.0000E+00
    -24.236  0.0000E+00  0.0000E+00  0.0000E+00  0.0000E+00  0.0000E+00  0.0000E+00  0.0000E+00  0.0000E+00  0.0000E+00  0.0000E+00  0.0000E+00  0.0000E+00  0.0000E+00  0.0000E+00  0.0000E+00  0.0000E+00  0.0000E+00  0.0000E+00
    -24.101  0.0000E+00  0.0000E+00  0.0000E+00  0.0000E+00  0.0000E+00  0.0000E+00  0.0000E+00  0.0000E+00  0.0000E+00  0.0000E+00  0.0000E+00  0.0000E+00  0.0000E+00  0.0000E+00  0.0000E+00  0.0000E+00  0.0000E+00  0.0000E+00
    -23.966  0.0000E+00  0.0000E+00  0.0000E+00  0.0000E+00  0.0000E+00  0.0000E+00  0.0000E+00  0.0000E+00  0.0000E+00  0.0000E+00  0.0000E+00  0.0000E+00  0.0000E+00  0.0000E+00  0.0000E+00  0.0000E+00  0.0000E+00  0.0000E+00
    -23.831  0.0000E+00  0.0000E+00  0.0000E+00  0.0000E+00  0.0000E+00  0.0000E+00  0.0000E+00  0.0000E+00  0.0000E+00  0.0000E+00  0.0000E+00  0.0000E+00  0.0000E+00  0.0000E+00  0.0000E+00  0.0000E+00  0.0000E+00  0.0000E+00
    -23.696  0.0000E+00  0.0000E+00  0.0000E+00  0.0000E+00  0.0000E+00  0.0000E+00  0.0000E+00  0.0000E+00  0.0000E+00  0.0000E+00  0.0000E+00  0.0000E+00  0.0000E+00  0.0000E+00  0.0000E+00  0.0000E+00  0.0000E+00  0.0000E+00
    -23.561  0.0000E+00  0.0000E+00  0.0000E+00  0.0000E+00  0.0000E+00  0.0000E+00  0.0000E+00  0.0000E+00  0.0000E+00  0.0000E+00  0.0000E+00  0.0000E+00  0.0000E+00  0.0000E+00  0.0000E+00  0.0000E+00  0.0000E+00  0.0000E+00
    -23.426  0.0000E+00  0.0000E+00  0.0000E+00  0.0000E+00  0.0000E+00  0.0000E+00  0.0000E+00  0.0000E+00  0.0000E+00  0.0000E+00  0.0000E+00  0.0000E+00  0.0000E+00  0.0000E+00  0.0000E+00  0.0000E+00  0.0000E+00  0.0000E+00
    -23.291  0.0000E+00  0.0000E+00  0.0000E+00  0.0000E+00  0.0000E+00  0.0000E+00  0.0000E+00  0.0000E+00  0.0000E+00  0.0000E+00  0.0000E+00  0.0000E+00  0.0000E+00  0.0000E+00  0.0000E+00  0.0000E+00  0.0000E+00  0.0000E+00
    -23.156  0.0000E+00  0.0000E+00  0.0000E+00  0.0000E+00  0.0000E+00  0.0000E+00  0.0000E+00  0.0000E+00  0.0000E+00  0.0000E+00  0.0000E+00  0.0000E+00  0.0000E+00  0.0000E+00  0.0000E+00  0.0000E+00  0.0000E+00  0.0000E+00
    -23.021  0.0000E+00  0.0000E+00  0.0000E+00  0.0000E+00  0.0000E+00  0.0000E+00  0.0000E+00  0.0000E+00  0.0000E+00  0.0000E+00  0.0000E+00  0.0000E+00  0.0000E+00  0.0000E+00  0.0000E+00  0.0000E+00  0.0000E+00  0.0000E+00
    -22.886  0.0000E+00  0.0000E+00  0.0000E+00  0.0000E+00  0.0000E+00  0.0000E+00  0.0000E+00  0.0000E+00  0.0000E+00  0.0000E+00  0.0000E+00  0.0000E+00  0.0000E+00  0.0000E+00  0.0000E+00  0.0000E+00  0.0000E+00  0.0000E+00
    -22.751  0.0000E+00  0.0000E+00  0.0000E+00  0.0000E+00  0.0000E+00  0.0000E+00  0.0000E+00  0.0000E+00  0.0000E+00  0.0000E+00  0.0000E+00  0.0000E+00  0.0000E+00  0.0000E+00  0.0000E+00  0.0000E+00  0.0000E+00  0.0000E+00
    -22.616  0.0000E+00  0.0000E+00  0.0000E+00  0.0000E+00  0.0000E+00  0.0000E+00  0.0000E+00  0.0000E+00  0.0000E+00  0.0000E+00  0.0000E+00  0.0000E+00  0.0000E+00  0.0000E+00  0.0000E+00  0.0000E+00  0.0000E+00  0.0000E+00
    -22.481  0.0000E+00  0.0000E+00  0.0000E+00  0.0000E+00  0.0000E+00  0.0000E+00  0.0000E+00  0.0000E+00  0.0000E+00  0.0000E+00  0.0000E+00  0.0000E+00  0.0000E+00  0.0000E+00  0.0000E+00  0.0000E+00  0.0000E+00  0.0000E+00
    -22.346  0.0000E+00  0.0000E+00  0.0000E+00  0.0000E+00  0.0000E+00  0.0000E+00  0.0000E+00  0.0000E+00  0.0000E+00  0.0000E+00  0.0000E+00  0.0000E+00  0.0000E+00  0.0000E+00  0.0000E+00  0.0000E+00  0.0000E+00  0.0000E+00
    -22.211  0.0000E+00  0.0000E+00  0.0000E+00  0.0000E+00  0.0000E+00  0.0000E+00  0.0000E+00  0.0000E+00  0.0000E+00  0.0000E+00  0.0000E+00  0.0000E+00  0.0000E+00  0.0000E+00  0.0000E+00  0.0000E+00  0.0000E+00  0.0000E+00
    -22.076  0.0000E+00  0.0000E+00  0.0000E+00  0.0000E+00  0.0000E+00  0.0000E+00  0.0000E+00  0.0000E+00  0.0000E+00  0.0000E+00  0.0000E+00  0.0000E+00  0.0000E+00  0.0000E+00  0.0000E+00  0.0000E+00  0.0000E+00  0.0000E+00