  COHP#  atomMU  atomNU     distance     translation      ICOHP (at) eF   for spin  1
      1      K1      O9      2.89592       0   0   0           -0.15011 
      2      K1     O13      2.89592       0   0   1           -0.15532 
      3      K1     O14      2.89592       0   0   0           -0.14770 
      4      K2      O9      2.89592       1   1   0           -0.15800 
      5      K2     O11      2.89592       1   0   1           -0.15839 
      6      K2     O12      2.89592       0   1   1           -0.15305 
      7      K3     O10      2.89592       0   0   0           -0.15268 
      8      K3     O12      2.89592       0   0   0           -0.14894 
      9      K3     O14      2.89592       1   0   0           -0.15970 
     10      K4     O10      2.89592       0   1   0           -0.15241 
     11      K4     O11      2.89592       0   0   0           -0.14343 
     12      K4     O13      2.89592       0   0   0           -0.14927 
     13     Sn5      O9      2.09190       0   1   0           -2.17840 
     14     Sn5     O12      2.09190       0   1   1           -2.07057 
     15     Sn5     O14      2.09190       0   0   0           -2.14046 
     16     Sn6      O9      2.09190       1   1   0           -2.02188 
     17     Sn6     O11      2.09190       1   0   0           -2.15490 
     18     Sn6     O13      2.09190       0   0   0           -2.17180 
     19     Sn7     O10      2.09190       0   0   0           -2.04972 
     20     Sn7     O13      2.09190       0   0   0           -2.11184 
     21     Sn7     O14      2.09190       0   0   0           -2.12224 
     22     Sn8     O10      2.09190       0   0   0           -2.19332 
     23     Sn8     O11      2.09190       1   0   1           -2.08547 
     24     Sn8     O12      2.09190       0   0   1           -2.15086 
  COHP#  atomMU  atomNU     distance     translation      ICOHP (at) eF   for spin  2
      1      K1      O9      2.89592       0   0   0           -0.14622 
      2      K1     O13      2.89592       0   0   1           -0.15864 
      3      K1     O14      2.89592       0   0   0           -0.14261 
      4      K2      O9      2.89592       1   1   0           -0.15852 
      5      K2     O11      2.89592       1   0   1           -0.15312 
      6      K2     O12      2.89592       0   1   1           -0.14815 
      7      K3     O10      2.89592       0   0   0           -0.14628 
      8      K3     O12      2.89592       0   0   0           -0.15051 
      9      K3     O14      2.89592       1   0   0           -0.15672 
     10      K4     O10      2.89592       0   1   0           -0.16168 
     11      K4     O11      2.89592       0   0   0           -0.14803 
     12      K4     O13      2.89592       0   0   0           -0.15727 
     13     Sn5      O9      2.09190       0   1   0           -2.20321 
     14     Sn5     O12      2.09190       0   1   1           -2.00955 
     15     Sn5     O14      2.09190       0   0   0           -2.16927 
     16     Sn6      O9      2.09190       1   1   0           -2.02847 
     17     Sn6     O11      2.09190       1   0   0           -2.14112 
     18     Sn6     O13      2.09190       0   0   0           -2.18941 
     19     Sn7     O10      2.09190       0   0   0           -2.05123 
     20     Sn7     O13      2.09190       0   0   0           -2.01833 
     21     Sn7     O14      2.09190       0   0   0           -2.15448 
     22     Sn8     O10      2.09190       0   0   0           -2.21447 
     23     Sn8     O11      2.09190       1   0   1           -2.10068 
     24     Sn8     O12      2.09190       0   0   1           -2.16741 
