<?xml version="1.0" encoding="ISO-8859-1"?>
<modeling>
 <generator>
  <i name="program" type="string">vasp </i>
  <i name="version" type="string">5.4.1  </i>
  <i name="subversion" type="string">24Jun15 (build Jul 13 2016 16:36:47) complex                          parallel </i>
  <i name="platform" type="string">IFC91_ompi </i>
  <i name="date" type="string">2019 10 16 </i>
  <i name="time" type="string">20:41:29 </i>
 </generator>
 <incar>
  <i type="string" name="PREC">accurate</i>
  <i type="string" name="ALGO"> Normal</i>
  <i type="int" name="ISPIN">     2</i>
  <i type="int" name="ICHARG">     0</i>
  <i type="int" name="NELM">   100</i>
  <i type="int" name="IBRION">    -1</i>
  <i name="EDIFF">      0.00070000</i>
  <i type="int" name="NSW">     0</i>
  <i type="int" name="ISIF">     3</i>
  <i type="int" name="ISYM">    -1</i>
  <i name="ENCUT">    520.00000000</i>
  <i type="int" name="NBANDS">    80</i>
  <v name="MAGMOM">      0.60000000      0.60000000      0.60000000      0.60000000      0.60000000      0.60000000      0.60000000      0.60000000      0.60000000      0.60000000      0.60000000      0.60000000      0.60000000      0.60000000</v>
  <i type="string" name="LREAL"> Auto</i>
  <i type="int" name="ISMEAR">     0</i>
  <i name="SIGMA">      0.05000000</i>
  <i type="logical" name="LWAVE"> T  </i>
  <i type="logical" name="LORBIT"> F  </i>
  <v type="int" name="KPOINT_BSE">    -1     0     0     0</v>
  <i type="int" name="NELM">   100</i>
 </incar>
 <kpoints>
  <generation param="Gamma">
   <v type="int" name="divisions">       1        1        1 </v>
   <v name="usershift">      0.00000000       0.00000000       0.00000000 </v>
   <v name="genvec1">      1.00000000       0.00000000       0.00000000 </v>
   <v name="genvec2">      0.00000000       1.00000000       0.00000000 </v>
   <v name="genvec3">      0.00000000       0.00000000       1.00000000 </v>
   <v name="shift">      0.00000000       0.00000000       0.00000000 </v>
  </generation>
  <varray name="kpointlist" >
   <v>       0.00000000       0.00000000       0.00000000 </v>
  </varray>
  <varray name="weights" >
   <v>       1.00000000 </v>
  </varray>
 </kpoints>
 <parameters>
  <separator name="general" >
   <i type="string" name="SYSTEM">unknown system</i>
   <i type="logical" name="LCOMPAT"> F  </i>
  </separator>
  <separator name="electronic" >
   <i type="string" name="PREC">accura</i>
   <i name="ENMAX">    520.00000000</i>
   <i name="ENAUG">    605.39200000</i>
   <i name="EDIFF">      0.00070000</i>
   <i type="int" name="IALGO">    38</i>
   <i type="int" name="IWAVPR">    10</i>
   <i type="int" name="NBANDS">    80</i>
   <i name="NELECT">    128.00000000</i>
   <i type="int" name="TURBO">     0</i>
   <i type="int" name="IRESTART">     0</i>
   <i type="int" name="NREBOOT">     0</i>
   <i type="int" name="NMIN">     0</i>
   <i name="EREF">      0.00000000</i>
   <separator name="electronic smearing" >
    <i type="int" name="ISMEAR">     0</i>
    <i name="SIGMA">      0.05000000</i>
    <i name="KSPACING">      0.50000000</i>
    <i type="logical" name="KGAMMA"> T  </i>
   </separator>
   <separator name="electronic projectors" >
    <i type="logical" name="LREAL"> T  </i>
    <v name="ROPT">     -0.00025000     -0.00025000     -0.00025000</v>
    <i type="int" name="LMAXPAW">  -100</i>
    <i type="int" name="LMAXMIX">     2</i>
    <i type="logical" name="NLSPLINE"> F  </i>
   </separator>
   <separator name="electronic startup" >
    <i type="int" name="ISTART">     0</i>
    <i type="int" name="ICHARG">     0</i>
    <i type="int" name="INIWAV">     1</i>
   </separator>
   <separator name="electronic spin" >
    <i type="int" name="ISPIN">     2</i>
    <i type="logical" name="LNONCOLLINEAR"> F  </i>
    <v name="MAGMOM">      0.60000000      0.60000000      0.60000000      0.60000000      0.60000000      0.60000000      0.60000000      0.60000000      0.60000000      0.60000000      0.60000000      0.60000000      0.60000000      0.60000000</v>
    <i name="NUPDOWN">     -1.00000000</i>
    <i type="logical" name="LSORBIT"> F  </i>
    <v name="SAXIS">      0.00000000      0.00000000      1.00000000</v>
    <i type="logical" name="LSPIRAL"> F  </i>
    <v name="QSPIRAL">      0.00000000      0.00000000      0.00000000</v>
    <i type="logical" name="LZEROZ"> F  </i>
   </separator>
   <separator name="electronic exchange-correlation" >
    <i type="logical" name="LASPH"> F  </i>
    <i type="logical" name="LMETAGGA"> F  </i>
   </separator>
   <separator name="electronic convergence" >
    <i type="int" name="NELM">   100</i>
    <i type="int" name="NELMDL">    -5</i>
    <i type="int" name="NELMIN">     2</i>
    <i name="ENINI">    520.00000000</i>
    <separator name="electronic convergence detail" >
     <i type="logical" name="LDIAG"> T  </i>
     <i type="logical" name="LSUBROT"> F  </i>
     <i name="WEIMIN">      0.00000000</i>
     <i name="EBREAK">      0.00000219</i>
     <i name="DEPER">      0.30000000</i>
     <i type="int" name="NRMM">     4</i>
     <i name="TIME">      0.40000000</i>
    </separator>
   </separator>
   <separator name="electronic mixer" >
    <i name="AMIX">      0.40000000</i>
    <i name="BMIX">      1.00000000</i>
    <i name="AMIN">      0.10000000</i>
    <i name="AMIX_MAG">      1.60000000</i>
    <i name="BMIX_MAG">      1.00000000</i>
    <separator name="electronic mixer details" >
     <i type="int" name="IMIX">     4</i>
     <i type="logical" name="MIXFIRST"> F  </i>
     <i type="int" name="MAXMIX">   -45</i>
     <i name="WC">    100.00000000</i>
     <i type="int" name="INIMIX">     1</i>
     <i type="int" name="MIXPRE">     1</i>
     <i type="int" name="MREMOVE">     5</i>
    </separator>
   </separator>
   <separator name="electronic dipolcorrection" >
    <i type="logical" name="LDIPOL"> F  </i>
    <i type="logical" name="LMONO"> F  </i>
    <i type="int" name="IDIPOL">     0</i>
    <i name="EPSILON">      1.00000000</i>
    <v name="DIPOL">   -100.00000000   -100.00000000   -100.00000000</v>
    <i name="EFIELD">      0.00000000</i>
   </separator>
  </separator>
  <separator name="grids" >
   <i type="int" name="NGX">    56</i>
   <i type="int" name="NGY">    56</i>
   <i type="int" name="NGZ">    56</i>
   <i type="int" name="NGXF">   112</i>
   <i type="int" name="NGYF">   112</i>
   <i type="int" name="NGZF">   112</i>
   <i type="logical" name="ADDGRID"> F  </i>
  </separator>
  <separator name="ionic" >
   <i type="int" name="NSW">     0</i>
   <i type="int" name="IBRION">    -1</i>
   <i type="int" name="ISIF">     3</i>
   <i name="PSTRESS">      0.00000000</i>
   <i name="EDIFFG">      0.00700000</i>
   <i type="int" name="NFREE">     0</i>
   <i name="POTIM">      0.50000000</i>
   <i name="SMASS">     -3.00000000</i>
   <i name="SCALEE">      1.00000000</i>
  </separator>
  <separator name="ionic md" >
   <i name="TEBEG">      0.00010000</i>
   <i name="TEEND">      0.00010000</i>
   <i type="int" name="NBLOCK">     1</i>
   <i type="int" name="KBLOCK">     1</i>
   <i type="int" name="NPACO">   256</i>
   <i name="APACO">     16.00000000</i>
  </separator>
  <separator name="symmetry" >
   <i type="int" name="ISYM">    -1</i>
   <i name="SYMPREC">      0.00001000</i>
  </separator>
  <separator name="dos" >
   <i type="logical" name="LORBIT"> F  </i>
   <v name="RWIGS">     -1.00000000     -1.00000000     -1.00000000</v>
   <i type="int" name="NEDOS">   301</i>
   <i name="EMIN">     10.00000000</i>
   <i name="EMAX">    -10.00000000</i>
   <i name="EFERMI">      0.00000000</i>
  </separator>
  <separator name="writing" >
   <i type="int" name="NWRITE">     2</i>
   <i type="logical" name="LWAVE"> T  </i>
   <i type="logical" name="LCHARG"> T  </i>
   <i type="logical" name="LPARD"> F  </i>
   <i type="logical" name="LVTOT"> F  </i>
   <i type="logical" name="LVHAR"> F  </i>
   <i type="logical" name="LELF"> F  </i>
   <i type="logical" name="LOPTICS"> F  </i>
   <v name="STM">      0.00000000      0.00000000      0.00000000      0.00000000      0.00000000      0.00000000      0.00000000</v>
  </separator>
  <separator name="performance" >
   <i type="int" name="NPAR">     4</i>
   <i type="int" name="NSIM">     4</i>
   <i type="int" name="NBLK">    -1</i>
   <i type="logical" name="LPLANE"> T  </i>
   <i type="logical" name="LSCALAPACK"> T  </i>
   <i type="logical" name="LSCAAWARE"> F  </i>
   <i type="logical" name="LSCALU"> F  </i>
   <i type="logical" name="LASYNC"> F  </i>
   <i type="logical" name="LORBITALREAL"> F  </i>
  </separator>
  <separator name="miscellaneous" >
   <i type="int" name="IDIOT">     3</i>
   <i type="logical" name="LMUSIC"> F  </i>
   <v name="POMASS">     39.09800000    118.71000000     16.00000000</v>
   <v name="DARWINR">      0.00000000      0.00000000      0.00000000</v>
   <v name="DARWINV">      1.00000000      1.00000000      1.00000000</v>
   <i type="logical" name="LCORR"> T  </i>
  </separator>
  <i type="logical" name="GGA_COMPAT"> T  </i>
  <i type="logical" name="LBERRY"> F  </i>
  <i type="int" name="ICORELEVEL">     0</i>
  <i type="logical" name="LDAU"> F  </i>
  <i type="int" name="I_CONSTRAINED_M">     0</i>
  <separator name="electronic exchange-correlation" >
   <i type="string" name="GGA">--</i>
   <i type="int" name="VOSKOWN">     0</i>
   <i type="logical" name="LHFCALC"> F  </i>
   <i type="string" name="PRECFOCK"></i>
   <i type="logical" name="LSYMGRAD"> F  </i>
   <i type="logical" name="LHFONE"> F  </i>
   <i type="logical" name="LRHFCALC"> F  </i>
   <i type="logical" name="LTHOMAS"> F  </i>
   <i type="logical" name="LMODELHF"> F  </i>
   <i name="ENCUT4O">     -1.00000000</i>
   <i type="int" name="EXXOEP">     0</i>
   <i type="int" name="FOURORBIT">     0</i>
   <i name="AEXX">      0.00000000</i>
   <i name="HFALPHA">      0.00000000</i>
   <i name="MCALPHA">      0.00000000</i>
   <i name="ALDAX">      1.00000000</i>
   <i name="AGGAX">      1.00000000</i>
   <i name="ALDAC">      1.00000000</i>
   <i name="AGGAC">      1.00000000</i>
   <i type="int" name="NKREDX">     1</i>
   <i type="int" name="NKREDY">     1</i>
   <i type="int" name="NKREDZ">     1</i>
   <i type="logical" name="SHIFTRED"> F  </i>
   <i type="logical" name="ODDONLY"> F  </i>
   <i type="logical" name="EVENONLY"> F  </i>
   <i type="int" name="LMAXFOCK">     0</i>
   <i type="int" name="NMAXFOCKAE">     0</i>
   <i type="logical" name="LFOCKAEDFT"> F  </i>
   <i name="HFSCREEN">      0.00000000</i>
   <i name="HFSCREENC">      0.00000000</i>
   <i type="int" name="NBANDSGWLOW">     0</i>
  </separator>
  <separator name="vdW DFT" >
   <i type="logical" name="LUSE_VDW"> F  </i>
   <i name="Zab_VDW">     -0.84910000</i>
   <i name="PARAM1">      0.12340000</i>
   <i name="PARAM2">      1.00000000</i>
   <i name="PARAM3">      0.00000000</i>
  </separator>
  <separator name="model GW" >
   <i type="int" name="MODEL_GW">     0</i>
   <i name="MODEL_EPS0">     13.22596016</i>
   <i name="MODEL_ALPHA">      1.00000000</i>
  </separator>
  <separator name="linear response parameters" >
   <i type="logical" name="LEPSILON"> F  </i>
   <i type="logical" name="LRPA"> F  </i>
   <i type="logical" name="LNABLA"> F  </i>
   <i type="logical" name="LVEL"> F  </i>
   <i type="int" name="KINTER">     0</i>
   <i name="CSHIFT">      0.10000000</i>
   <i name="OMEGAMAX">     -1.00000000</i>
   <i name="DEG_THRESHOLD">      0.00200000</i>
  </separator>
  <separator name="orbital magnetization" >
   <i type="logical" name="NUCIND"> F  </i>
   <v name="MAGPOS">      0.00000000      0.00000000      0.00000000</v>
   <i type="logical" name="LNICSALL"> T  </i>
   <i type="logical" name="ORBITALMAG"> F  </i>
   <i type="logical" name="LMAGBLOCH"> F  </i>
   <i type="logical" name="LCHIMAG"> F  </i>
   <i type="logical" name="LGAUGE"> T  </i>
   <i type="int" name="MAGATOM">     0</i>
   <v name="MAGDIPOL">      0.00000000      0.00000000      0.00000000</v>
   <v name="AVECCONST">      0.00000000      0.00000000      0.00000000</v>
  </separator>
  <separator name="response functions" >
   <i type="logical" name="LADDER"> F  </i>
   <i type="logical" name="LFXC"> F  </i>
   <i type="logical" name="LHARTREE"> T  </i>
   <i type="int" name="IBSE">     0</i>
   <v type="int" name="KPOINT">    -1     0     0     0</v>
   <i type="logical" name="LTCTE"> F  </i>
   <i type="logical" name="LTETE"> F  </i>
   <i type="logical" name="LTRIPLET"> F  </i>
   <i type="logical" name="LFXCEPS"> F  </i>
   <i type="logical" name="LFXHEG"> F  </i>
   <i type="int" name="NATURALO">     0</i>
   <i type="logical" name="L2ORDER"> F  </i>
   <i type="logical" name="LUSEW"> F  </i>
   <i name="ENCUTGW">     -2.00000000</i>
   <i name="ENCUTGWSOFT">     -2.00000000</i>
   <i name="ENCUTLF">     -1.00000000</i>
   <i type="int" name="LMAXMP2">    -1</i>
   <i name="SCISSOR">      0.00000000</i>
   <i type="int" name="NOMEGA">     0</i>
   <i type="int" name="NOMEGAR">     0</i>
   <i type="int" name="NBANDSGW">    -1</i>
   <i type="int" name="NBANDSO">    -1</i>
   <i type="int" name="NBANDSV">    -1</i>
   <i type="int" name="NELM">   100</i>
   <i type="int" name="NELMHF">     1</i>
   <i type="int" name="DIM">     3</i>
   <i type="int" name="ANTIRES">     0</i>
   <i name="OMEGAMAX">    -30.00000000</i>
   <i name="OMEGAMIN">    -30.00000000</i>
   <i name="OMEGATL">   -200.00000000</i>
   <i type="int" name="OMEGAGRID">     0</i>
   <i name="CSHIFT">     -0.10000000</i>
   <i type="logical" name="SELFENERGY"> F  </i>
   <i type="logical" name="LSPECTRAL"> F  </i>
   <i type="logical" name="LSPECTRALGW"> F  </i>
   <i type="logical" name="LSINGLES"> F  </i>
   <i type="logical" name="LFERMIGW"> F  </i>
   <i type="logical" name="ODDONLYGW"> F  </i>
   <i type="logical" name="EVENONLYGW"> F  </i>
   <i type="int" name="NKREDLFX">     1</i>
   <i type="int" name="NKREDLFY">     1</i>
   <i type="int" name="NKREDLFZ">     1</i>
   <i type="int" name="MAXMEM">  1800</i>
   <i type="int" name="TELESCOPE">     0</i>
   <i type="int" name="TAUPAR">     1</i>
   <i type="int" name="OMEGAPAR">    -1</i>
   <i name="LAMBDA">      1.00000000</i>
  </separator>
  <separator name="External order field" >
   <i name="OFIELD_KAPPA">      0.00000000</i>
   <v name="OFIELD_K">      0.00000000      0.00000000      0.00000000</v>
   <i name="OFIELD_Q6_NEAR">      0.00000000</i>
   <i name="OFIELD_Q6_FAR">      0.00000000</i>
   <i name="OFIELD_A">      0.00000000</i>
  </separator>
 </parameters>
 <atominfo>
  <atoms>      14 </atoms>
  <types>       3 </types>
  <array name="atoms" >
   <dimension dim="1">ion</dimension>
   <field type="string">element</field>
   <field type="int">atomtype</field>
   <set>
    <rc><c>K </c><c>   1</c></rc>
    <rc><c>K </c><c>   1</c></rc>
    <rc><c>K </c><c>   1</c></rc>
    <rc><c>K </c><c>   1</c></rc>
    <rc><c>Sn</c><c>   2</c></rc>
    <rc><c>Sn</c><c>   2</c></rc>
    <rc><c>Sn</c><c>   2</c></rc>
    <rc><c>Sn</c><c>   2</c></rc>
    <rc><c>O </c><c>   3</c></rc>
    <rc><c>O </c><c>   3</c></rc>
    <rc><c>O </c><c>   3</c></rc>
    <rc><c>O </c><c>   3</c></rc>
    <rc><c>O </c><c>   3</c></rc>
    <rc><c>O </c><c>   3</c></rc>
   </set>
  </array>
  <array name="atomtypes" >
   <dimension dim="1">type</dimension>
   <field type="int">atomspertype</field>
   <field type="string">element</field>
   <field>mass</field>
   <field>valence</field>
   <field type="string">pseudopotential</field>
   <set>
    <rc><c>   4</c><c>K </c><c>     39.09800000</c><c>      9.00000000</c><c>  PAW_PBE K_sv 06Sep2000                </c></rc>
    <rc><c>   4</c><c>Sn</c><c>    118.71000000</c><c>     14.00000000</c><c>  PAW_PBE Sn_d 06Sep2000                </c></rc>
    <rc><c>   6</c><c>O </c><c>     16.00000000</c><c>      6.00000000</c><c>  PAW_PBE O 08Apr2002                   </c></rc>
   </set>
  </array>
 </atominfo>
 <structure name="initialpos" >
  <crystal>
   <varray name="basis" >
    <v>      -4.25710800       4.25710800       4.25710800 </v>
    <v>       4.25710800      -4.25710800       4.25710800 </v>
    <v>       4.25710800       4.25710800      -4.25710800 </v>
   </varray>
   <i name="volume">    308.60573714 </i>
   <varray name="rec_basis" >
    <v>       0.00000000       0.11745063       0.11745063 </v>
    <v>       0.11745063       0.00000000       0.11745063 </v>
    <v>       0.11745063       0.11745063       0.00000000 </v>
   </varray>
  </crystal>
  <varray name="positions" >
   <v>       0.48190000       0.50000000       0.00000000 </v>
   <v>       0.01810000       0.01810000       0.01810000 </v>
   <v>       0.00000000       0.48190000       0.50000000 </v>
   <v>       0.50000000       0.00000000       0.48190000 </v>
   <v>       0.50000000       0.00000000       0.01162300 </v>
   <v>       0.00000000       0.01162300       0.50000000 </v>
   <v>       0.48837700       0.48837700       0.48837700 </v>
   <v>       0.01162300       0.50000000       0.00000000 </v>
   <v>       0.75000000       0.97927300       0.22927300 </v>
   <v>       0.25000000       0.52072700       0.27072700 </v>
   <v>       0.97927300       0.22927300       0.75000000 </v>
   <v>       0.22927300       0.75000000       0.97927300 </v>
   <v>       0.27072700       0.25000000       0.52072700 </v>
   <v>       0.52072700       0.27072700       0.25000000 </v>
  </varray>
 </structure>
 <calculation>
  <scstep>
   <time name="dav">    8.35    8.35</time>
   <time name="total">    9.63    9.65</time>
   <energy>
    <i name="alphaZ">    419.09201035 </i>
    <i name="ewald">  -8340.98623504 </i>
    <i name="hartreedc">    -70.88628248 </i>
    <i name="XCdc">    341.88192777 </i>
    <i name="pawpsdc"> 144485.92330153 </i>
    <i name="pawaedc">-144500.43288675 </i>
    <i name="eentropy">     -0.00000000 </i>
    <i name="bandstr">  -7435.56777211 </i>
    <i name="atom">  13266.59563587 </i>
    <i name="e_fr_energy">  -1834.38030086 </i>
    <i name="e_wo_entrp">  -1834.38030086 </i>
    <i name="e_0_energy">  -1834.38030086 </i>
   </energy>
  </scstep>
  <scstep>
   <time name="dav">    6.50    6.50</time>
   <time name="total">    6.56    6.57</time>
   <energy>
    <i name="e_fr_energy">  -5198.00493167 </i>
    <i name="e_wo_entrp">  -5198.00493167 </i>
    <i name="e_0_energy">  -5198.00493167 </i>
   </energy>
  </scstep>
  <scstep>
   <time name="dav">    8.11    8.11</time>
   <time name="total">    8.15    8.16</time>
   <energy>
    <i name="e_fr_energy">  -6173.93961793 </i>
    <i name="e_wo_entrp">  -6173.93961793 </i>
    <i name="e_0_energy">  -6173.93961793 </i>
   </energy>
  </scstep>
  <scstep>
   <time name="dav">    8.26    8.26</time>
   <time name="total">    8.29    8.30</time>
   <energy>
    <i name="e_fr_energy">  -6412.83479370 </i>
    <i name="e_wo_entrp">  -6412.83479370 </i>
    <i name="e_0_energy">  -6412.83479370 </i>
   </energy>
  </scstep>
  <scstep>
   <time name="dav">    9.13    9.14</time>
   <time name="total">    9.53    9.54</time>
   <energy>
    <i name="e_fr_energy">  -6429.84066124 </i>
    <i name="e_wo_entrp">  -6429.82317689 </i>
    <i name="e_0_energy">  -6429.83191906 </i>
   </energy>
  </scstep>
  <scstep>
   <time name="dav">    8.02    8.03</time>
   <time name="total">    9.61    9.61</time>
   <energy>
    <i name="e_fr_energy">  -1335.87782136 </i>
    <i name="e_wo_entrp">  -1335.87782136 </i>
    <i name="e_0_energy">  -1335.87782136 </i>
   </energy>
  </scstep>
  <scstep>
   <time name="dav">    6.95    6.95</time>
   <time name="total">    8.58    8.59</time>
   <energy>
    <i name="e_fr_energy">   -722.71352103 </i>
    <i name="e_wo_entrp">   -722.71352103 </i>
    <i name="e_0_energy">   -722.71352103 </i>
   </energy>
  </scstep>
  <scstep>
   <time name="dav">    8.29    8.30</time>
   <time name="total">   10.12   10.14</time>
   <energy>
    <i name="e_fr_energy">   -559.39938508 </i>
    <i name="e_wo_entrp">   -559.39938508 </i>
    <i name="e_0_energy">   -559.39938508 </i>
   </energy>
  </scstep>
  <scstep>
   <time name="dav">    8.76    8.77</time>
   <time name="total">   10.89   10.90</time>
   <energy>
    <i name="e_fr_energy">   -493.03332937 </i>
    <i name="e_wo_entrp">   -493.03332937 </i>
    <i name="e_0_energy">   -493.03332937 </i>
   </energy>
  </scstep>
  <scstep>
   <time name="dav">    7.07    7.08</time>
   <time name="total">    8.65    8.72</time>
   <energy>
    <i name="e_fr_energy">   -119.65187219 </i>
    <i name="e_wo_entrp">   -119.65187219 </i>
    <i name="e_0_energy">   -119.65187219 </i>
   </energy>
  </scstep>
  <scstep>
   <time name="dav">    8.06    8.06</time>
   <time name="total">    9.68    9.71</time>
   <energy>
    <i name="e_fr_energy">    -69.45919245 </i>
    <i name="e_wo_entrp">    -69.45919245 </i>
    <i name="e_0_energy">    -69.45919245 </i>
   </energy>
  </scstep>
  <scstep>
   <time name="dav">    7.79    7.79</time>
   <time name="total">    9.39    9.40</time>
   <energy>
    <i name="e_fr_energy">    -67.59355268 </i>
    <i name="e_wo_entrp">    -67.59355268 </i>
    <i name="e_0_energy">    -67.59355268 </i>
   </energy>
  </scstep>
  <scstep>
   <time name="dav">    7.73    7.73</time>
   <time name="total">    9.33    9.34</time>
   <energy>
    <i name="e_fr_energy">    -67.54918218 </i>
    <i name="e_wo_entrp">    -67.54918218 </i>
    <i name="e_0_energy">    -67.54918218 </i>
   </energy>
  </scstep>
  <scstep>
   <time name="dav">    7.86    7.87</time>
   <time name="total">    9.46    9.47</time>
   <energy>
    <i name="e_fr_energy">    -67.71886561 </i>
    <i name="e_wo_entrp">    -67.71886561 </i>
    <i name="e_0_energy">    -67.71886561 </i>
   </energy>
  </scstep>
  <scstep>
   <time name="dav">    8.42    8.42</time>
   <time name="total">   10.04   10.05</time>
   <energy>
    <i name="e_fr_energy">    -67.78425973 </i>
    <i name="e_wo_entrp">    -67.78425973 </i>
    <i name="e_0_energy">    -67.78425973 </i>
   </energy>
  </scstep>
  <scstep>
   <time name="dav">    7.49    7.50</time>
   <time name="total">    9.09    9.09</time>
   <energy>
    <i name="e_fr_energy">    -67.72727120 </i>
    <i name="e_wo_entrp">    -67.72727120 </i>
    <i name="e_0_energy">    -67.72727120 </i>
   </energy>
  </scstep>
  <scstep>
   <time name="dav">    7.83    7.84</time>
   <time name="total">    9.45    9.46</time>
   <energy>
    <i name="e_fr_energy">    -67.72990115 </i>
    <i name="e_wo_entrp">    -67.72990115 </i>
    <i name="e_0_energy">    -67.72990115 </i>
   </energy>
  </scstep>
  <scstep>
   <time name="dav">    7.44    7.44</time>
   <time name="total">    9.18    9.19</time>
   <energy>
    <i name="e_fr_energy">    -67.72455459 </i>
    <i name="e_wo_entrp">    -67.72455459 </i>
    <i name="e_0_energy">    -67.72455459 </i>
   </energy>
  </scstep>
  <scstep>
   <time name="dav">    6.23    6.23</time>
   <time name="total">    7.86    7.87</time>
   <energy>
    <i name="alphaZ">    419.09201035 </i>
    <i name="ewald">  -8340.98623504 </i>
    <i name="hartreedc">  -4434.95690821 </i>
    <i name="XCdc">    541.76240928 </i>
    <i name="pawpsdc">  13065.43345796 </i>
    <i name="pawaedc"> -13212.88238000 </i>
    <i name="eentropy">     -0.00000000 </i>
    <i name="bandstr">  -1371.78256120 </i>
    <i name="atom">  13266.59563587 </i>
    <i name="e_fr_energy">    -67.72457099 </i>
    <i name="e_wo_entrp">    -67.72457099 </i>
    <i name="e_0_energy">    -67.72457099 </i>
   </energy>
  </scstep>
  <structure>
   <crystal>
    <varray name="basis" >
     <v>      -4.25710800       4.25710800       4.25710800 </v>
     <v>       4.25710800      -4.25710800       4.25710800 </v>
     <v>       4.25710800       4.25710800      -4.25710800 </v>
    </varray>
    <i name="volume">    308.60573714 </i>
    <varray name="rec_basis" >
     <v>       0.00000000       0.11745063       0.11745063 </v>
     <v>       0.11745063       0.00000000       0.11745063 </v>
     <v>       0.11745063       0.11745063       0.00000000 </v>
    </varray>
   </crystal>
   <varray name="positions" >
    <v>       0.48190000       0.50000000       0.00000000 </v>
    <v>       0.01810000       0.01810000       0.01810000 </v>
    <v>       0.00000000       0.48190000       0.50000000 </v>
    <v>       0.50000000       0.00000000       0.48190000 </v>
    <v>       0.50000000       0.00000000       0.01162300 </v>
    <v>       0.00000000       0.01162300       0.50000000 </v>
    <v>       0.48837700       0.48837700       0.48837700 </v>
    <v>       0.01162300       0.50000000       0.00000000 </v>
    <v>       0.75000000       0.97927300       0.22927300 </v>
    <v>       0.25000000       0.52072700       0.27072700 </v>
    <v>       0.97927300       0.22927300       0.75000000 </v>
    <v>       0.22927300       0.75000000       0.97927300 </v>
    <v>       0.27072700       0.25000000       0.52072700 </v>
    <v>       0.52072700       0.27072700       0.25000000 </v>
   </varray>
  </structure>
  <varray name="forces" >
   <v>      -0.06188539       0.05944820       0.06005142 </v>
   <v>      -0.06369090      -0.06302442      -0.06406484 </v>
   <v>       0.05771566      -0.05967023       0.05941468 </v>
   <v>       0.05993102       0.05698662      -0.05905549 </v>
   <v>       0.05513391       0.05603046      -0.05344668 </v>
   <v>       0.05392939      -0.05238696       0.05448805 </v>
   <v>      -0.05209318      -0.05333719      -0.05230815 </v>
   <v>      -0.05288586       0.05373249       0.05388995 </v>
   <v>       0.18527258       0.00036806      -0.00221377 </v>
   <v>      -0.18460302      -0.00044045       0.00001244 </v>
   <v>       0.00173578      -0.00007725       0.18460373 </v>
   <v>      -0.00041413       0.18438533      -0.00037048 </v>
   <v>      -0.00002953      -0.18345238       0.00125803 </v>
   <v>       0.00188367       0.00143772      -0.18225890 </v>
  </varray>
  <varray name="stress" >
   <v>      12.69196361       0.04435800      -0.02722273 </v>
   <v>       0.04435806      12.78152534      -0.00092281 </v>
   <v>      -0.02722286      -0.00092276      12.70833345 </v>
  </varray>
  <energy>
   <i name="e_fr_energy">    -67.72457099 </i>
   <i name="e_wo_entrp">    -67.72457099 </i>
   <i name="e_0_energy">     -0.00000000 </i>
  </energy>
  <time name="totalsc">  193.60  194.37</time>
  <eigenvalues>
   <array>
    <dimension dim="1">band</dimension>
    <dimension dim="2">kpoint</dimension>
    <dimension dim="3">spin</dimension>
    <field>eigene</field>
    <field>occ</field>
    <set>
     <set comment="spin 1">
      <set comment="kpoint 1">
       <r>  -26.9861    1.0000 </r>
       <r>  -26.9725    1.0000 </r>
       <r>  -26.9723    1.0000 </r>
       <r>  -26.9714    1.0000 </r>
       <r>  -18.2275    1.0000 </r>
       <r>  -18.2275    1.0000 </r>
       <r>  -18.1416    1.0000 </r>
       <r>  -18.1411    1.0000 </r>
       <r>  -18.1406    1.0000 </r>
       <r>  -17.9284    1.0000 </r>
       <r>  -17.9279    1.0000 </r>
       <r>  -17.9275    1.0000 </r>
       <r>  -17.8250    1.0000 </r>
       <r>  -17.8250    1.0000 </r>
       <r>  -17.8241    1.0000 </r>
       <r>  -17.8232    1.0000 </r>
       <r>  -17.8228    1.0000 </r>
       <r>  -17.8061    1.0000 </r>
       <r>  -17.8057    1.0000 </r>
       <r>  -17.8054    1.0000 </r>
       <r>  -17.7685    1.0000 </r>
       <r>  -17.7571    1.0000 </r>
       <r>  -17.7564    1.0000 </r>
       <r>  -17.7557    1.0000 </r>
       <r>  -15.0701    1.0000 </r>
       <r>  -14.2778    1.0000 </r>
       <r>  -14.2770    1.0000 </r>
       <r>  -14.2760    1.0000 </r>
       <r>  -13.8635    1.0000 </r>
       <r>  -13.8624    1.0000 </r>
       <r>  -10.5517    1.0000 </r>
       <r>  -10.5063    1.0000 </r>
       <r>  -10.5062    1.0000 </r>
       <r>  -10.5057    1.0000 </r>
       <r>  -10.4782    1.0000 </r>
       <r>  -10.4782    1.0000 </r>
       <r>  -10.4734    1.0000 </r>
       <r>  -10.4732    1.0000 </r>
       <r>  -10.4732    1.0000 </r>
       <r>  -10.4356    1.0000 </r>
       <r>  -10.4353    1.0000 </r>
       <r>  -10.4352    1.0000 </r>
       <r>   -4.6030    1.0000 </r>
       <r>   -4.6024    1.0000 </r>
       <r>   -4.6016    1.0000 </r>
       <r>   -1.6298    1.0000 </r>
       <r>   -1.3666    1.0000 </r>
       <r>   -1.3652    1.0000 </r>
       <r>   -1.3649    1.0000 </r>
       <r>   -0.2403    1.0000 </r>
       <r>   -0.2401    1.0000 </r>
       <r>   -0.2395    1.0000 </r>
       <r>    0.0925    1.0000 </r>
       <r>    0.3579    1.0000 </r>
       <r>    0.3589    1.0000 </r>
       <r>    0.4457    1.0000 </r>
       <r>    0.4467    1.0000 </r>
       <r>    0.4475    1.0000 </r>
       <r>    0.9689    1.0000 </r>
       <r>    0.9695    1.0000 </r>
       <r>    0.9702    1.0000 </r>
       <r>    2.2732    1.0000 </r>
       <r>    2.2736    1.0000 </r>
       <r>    2.2745    1.0000 </r>
       <r>    4.9193    0.0000 </r>
       <r>    4.9195    0.0000 </r>
       <r>    5.5026    0.0000 </r>
       <r>    5.5029    0.0000 </r>
       <r>    5.5030    0.0000 </r>
       <r>    6.2891    0.0000 </r>
       <r>    7.8914    0.0000 </r>
       <r>    8.0429    0.0000 </r>
       <r>    8.0431    0.0000 </r>
       <r>    8.0433    0.0000 </r>
       <r>    8.6373    0.0000 </r>
       <r>    8.6375    0.0000 </r>
       <r>    9.2087    0.0000 </r>
       <r>    9.2090    0.0000 </r>
       <r>    9.2092    0.0000 </r>
       <r>    9.8389    0.0000 </r>
      </set>
     </set>
     <set comment="spin 2">
      <set comment="kpoint 1">
       <r>  -26.9861    1.0000 </r>
       <r>  -26.9725    1.0000 </r>
       <r>  -26.9723    1.0000 </r>
       <r>  -26.9714    1.0000 </r>
       <r>  -18.2276    1.0000 </r>
       <r>  -18.2275    1.0000 </r>
       <r>  -18.1416    1.0000 </r>
       <r>  -18.1412    1.0000 </r>
       <r>  -18.1406    1.0000 </r>
       <r>  -17.9285    1.0000 </r>
       <r>  -17.9280    1.0000 </r>
       <r>  -17.9274    1.0000 </r>
       <r>  -17.8252    1.0000 </r>
       <r>  -17.8251    1.0000 </r>
       <r>  -17.8241    1.0000 </r>
       <r>  -17.8233    1.0000 </r>
       <r>  -17.8227    1.0000 </r>
       <r>  -17.8062    1.0000 </r>
       <r>  -17.8057    1.0000 </r>
       <r>  -17.8053    1.0000 </r>
       <r>  -17.7687    1.0000 </r>
       <r>  -17.7574    1.0000 </r>
       <r>  -17.7565    1.0000 </r>
       <r>  -17.7557    1.0000 </r>
       <r>  -15.0700    1.0000 </r>
       <r>  -14.2778    1.0000 </r>
       <r>  -14.2768    1.0000 </r>
       <r>  -14.2758    1.0000 </r>
       <r>  -13.8634    1.0000 </r>
       <r>  -13.8622    1.0000 </r>
       <r>  -10.5516    1.0000 </r>
       <r>  -10.5062    1.0000 </r>
       <r>  -10.5061    1.0000 </r>
       <r>  -10.5057    1.0000 </r>
       <r>  -10.4782    1.0000 </r>
       <r>  -10.4782    1.0000 </r>
       <r>  -10.4734    1.0000 </r>
       <r>  -10.4732    1.0000 </r>
       <r>  -10.4732    1.0000 </r>
       <r>  -10.4355    1.0000 </r>
       <r>  -10.4353    1.0000 </r>
       <r>  -10.4352    1.0000 </r>
       <r>   -4.6029    1.0000 </r>
       <r>   -4.6021    1.0000 </r>
       <r>   -4.6016    1.0000 </r>
       <r>   -1.6297    1.0000 </r>
       <r>   -1.3666    1.0000 </r>
       <r>   -1.3650    1.0000 </r>
       <r>   -1.3647    1.0000 </r>
       <r>   -0.2401    1.0000 </r>
       <r>   -0.2398    1.0000 </r>
       <r>   -0.2393    1.0000 </r>
       <r>    0.0924    1.0000 </r>
       <r>    0.3578    1.0000 </r>
       <r>    0.3589    1.0000 </r>
       <r>    0.4458    1.0000 </r>
       <r>    0.4470    1.0000 </r>
       <r>    0.4476    1.0000 </r>
       <r>    0.9690    1.0000 </r>
       <r>    0.9695    1.0000 </r>
       <r>    0.9702    1.0000 </r>
       <r>    2.2735    1.0000 </r>
       <r>    2.2741    1.0000 </r>
       <r>    2.2747    1.0000 </r>
       <r>    4.9192    0.0000 </r>
       <r>    4.9195    0.0000 </r>
       <r>    5.5027    0.0000 </r>
       <r>    5.5028    0.0000 </r>
       <r>    5.5029    0.0000 </r>
       <r>    6.2887    0.0000 </r>
       <r>    7.8916    0.0000 </r>
       <r>    8.0428    0.0000 </r>
       <r>    8.0430    0.0000 </r>
       <r>    8.0433    0.0000 </r>
       <r>    8.6373    0.0000 </r>
       <r>    8.6374    0.0000 </r>
       <r>    9.2090    0.0000 </r>
       <r>    9.2093    0.0000 </r>
       <r>    9.2095    0.0000 </r>
       <r>    9.8398    0.0000 </r>
      </set>
     </set>
    </set>
   </array>
  </eigenvalues>
  <separator name="orbital magnetization" >
   <v name="MAGDIPOLOUT">      0.00000000      0.00000000      0.00000000</v>
  </separator>
  <dos>
   <i name="efermi">      2.53291965 </i>
   <total>
    <array>
     <dimension dim="1">gridpoints</dimension>
     <dimension dim="2">spin</dimension>
     <field>energy</field>
     <field>total</field>
     <field>integrated</field>
     <set>
      <set comment="spin 1">
       <r>   -28.8274     0.0000     0.0000 </r>
       <r>   -28.6924     0.0000     0.0000 </r>
       <r>   -28.5574     0.0000     0.0000 </r>
       <r>   -28.4223     0.0000     0.0000 </r>
       <r>   -28.2873     0.0000     0.0000 </r>
       <r>   -28.1523     0.0000     0.0000 </r>
       <r>   -28.0172     0.0000     0.0000 </r>
       <r>   -27.8822     0.0000     0.0000 </r>
       <r>   -27.7472     0.0000     0.0000 </r>
       <r>   -27.6122     0.0000     0.0000 </r>
       <r>   -27.4771     0.0000     0.0000 </r>
       <r>   -27.3421     0.0000     0.0000 </r>
       <r>   -27.2071     0.0000     0.0000 </r>
       <r>   -27.0720     0.1080     0.0146 </r>
       <r>   -26.9370    25.3335     3.4353 </r>
       <r>   -26.8020     4.1819     4.0000 </r>
       <r>   -26.6670     0.0000     4.0000 </r>
       <r>   -26.5319     0.0000     4.0000 </r>
       <r>   -26.3969     0.0000     4.0000 </r>
       <r>   -26.2619     0.0000     4.0000 </r>
       <r>   -26.1268     0.0000     4.0000 </r>
       <r>   -25.9918     0.0000     4.0000 </r>
       <r>   -25.8568     0.0000     4.0000 </r>
       <r>   -25.7218     0.0000     4.0000 </r>
       <r>   -25.5867     0.0000     4.0000 </r>
       <r>   -25.4517     0.0000     4.0000 </r>
       <r>   -25.3167     0.0000     4.0000 </r>
       <r>   -25.1816     0.0000     4.0000 </r>
       <r>   -25.0466     0.0000     4.0000 </r>
       <r>   -24.9116     0.0000     4.0000 </r>
       <r>   -24.7766     0.0000     4.0000 </r>
       <r>   -24.6415     0.0000     4.0000 </r>
       <r>   -24.5065     0.0000     4.0000 </r>
       <r>   -24.3715     0.0000     4.0000 </r>
       <r>   -24.2365     0.0000     4.0000 </r>
       <r>   -24.1014     0.0000     4.0000 </r>
       <r>   -23.9664     0.0000     4.0000 </r>
       <r>   -23.8314     0.0000     4.0000 </r>
       <r>   -23.6963     0.0000     4.0000 </r>
       <r>   -23.5613     0.0000     4.0000 </r>
       <r>   -23.4263     0.0000     4.0000 </r>
       <r>   -23.2913     0.0000     4.0000 </r>
       <r>   -23.1562     0.0000     4.0000 </r>
       <r>   -23.0212     0.0000     4.0000 </r>
       <r>   -22.8862     0.0000     4.0000 </r>
       <r>   -22.7511     0.0000     4.0000 </r>
       <r>   -22.6161     0.0000     4.0000 </r>
       <r>   -22.4811     0.0000     4.0000 </r>
       <r>   -22.3461     0.0000     4.0000 </r>
       <r>   -22.2110     0.0000     4.0000 </r>
       <r>   -22.0760     0.0000     4.0000 </r>
       <r>   -21.9410     0.0000     4.0000 </r>
       <r>   -21.8059     0.0000     4.0000 </r>
       <r>   -21.6709     0.0000     4.0000 </r>
       <r>   -21.5359     0.0000     4.0000 </r>
       <r>   -21.4009     0.0000     4.0000 </r>
       <r>   -21.2658     0.0000     4.0000 </r>
       <r>   -21.1308     0.0000     4.0000 </r>
       <r>   -20.9958     0.0000     4.0000 </r>
       <r>   -20.8607     0.0000     4.0000 </r>
       <r>   -20.7257     0.0000     4.0000 </r>
       <r>   -20.5907     0.0000     4.0000 </r>
       <r>   -20.4557     0.0000     4.0000 </r>
       <r>   -20.3206     0.0000     4.0000 </r>
       <r>   -20.1856     0.0000     4.0000 </r>
       <r>   -20.0506     0.0000     4.0000 </r>
       <r>   -19.9155     0.0000     4.0000 </r>
       <r>   -19.7805     0.0000     4.0000 </r>
       <r>   -19.6455     0.0000     4.0000 </r>
       <r>   -19.5105     0.0000     4.0000 </r>
       <r>   -19.3754     0.0000     4.0000 </r>
       <r>   -19.2404     0.0000     4.0000 </r>
       <r>   -19.1054     0.0000     4.0000 </r>
       <r>   -18.9703     0.0000     4.0000 </r>
       <r>   -18.8353     0.0000     4.0000 </r>
       <r>   -18.7003     0.0000     4.0000 </r>
       <r>   -18.5653     0.0000     4.0000 </r>
       <r>   -18.4302     0.0000     4.0000 </r>
       <r>   -18.2952     0.4113     4.0555 </r>
       <r>   -18.1602    20.5293     6.8276 </r>
       <r>   -18.0251    16.1433     9.0074 </r>
       <r>   -17.8901    20.3313    11.7527 </r>
       <r>   -17.7551    74.6714    21.8354 </r>
       <r>   -17.6201    16.0291    23.9998 </r>
       <r>   -17.4850     0.0014    24.0000 </r>
       <r>   -17.3500     0.0000    24.0000 </r>
       <r>   -17.2150     0.0000    24.0000 </r>
       <r>   -17.0799     0.0000    24.0000 </r>
       <r>   -16.9449     0.0000    24.0000 </r>
       <r>   -16.8099     0.0000    24.0000 </r>
       <r>   -16.6749     0.0000    24.0000 </r>
       <r>   -16.5398     0.0000    24.0000 </r>
       <r>   -16.4048     0.0000    24.0000 </r>
       <r>   -16.2698     0.0000    24.0000 </r>
       <r>   -16.1347     0.0000    24.0000 </r>
       <r>   -15.9997     0.0000    24.0000 </r>
       <r>   -15.8647     0.0000    24.0000 </r>
       <r>   -15.7297     0.0000    24.0000 </r>
       <r>   -15.5946     0.0000    24.0000 </r>
       <r>   -15.4596     0.0000    24.0000 </r>
       <r>   -15.3246     0.0000    24.0000 </r>
       <r>   -15.1896     0.0027    24.0004 </r>
       <r>   -15.0545     4.9605    24.6702 </r>
       <r>   -14.9195     2.4426    25.0000 </r>
       <r>   -14.7845     0.0001    25.0000 </r>
       <r>   -14.6494     0.0000    25.0000 </r>
       <r>   -14.5144     0.0000    25.0000 </r>
       <r>   -14.3794     0.0419    25.0057 </r>
       <r>   -14.2444    18.2134    27.4650 </r>
       <r>   -14.1093     3.9622    28.0000 </r>
       <r>   -13.9743     0.0121    28.0016 </r>
       <r>   -13.8393    11.0726    29.4967 </r>
       <r>   -13.7042     3.7270    30.0000 </r>
       <r>   -13.5692     0.0001    30.0000 </r>
       <r>   -13.4342     0.0000    30.0000 </r>
       <r>   -13.2992     0.0000    30.0000 </r>
       <r>   -13.1641     0.0000    30.0000 </r>
       <r>   -13.0291     0.0000    30.0000 </r>
       <r>   -12.8941     0.0000    30.0000 </r>
       <r>   -12.7590     0.0000    30.0000 </r>
       <r>   -12.6240     0.0000    30.0000 </r>
       <r>   -12.4890     0.0000    30.0000 </r>
       <r>   -12.3540     0.0000    30.0000 </r>
       <r>   -12.2189     0.0000    30.0000 </r>
       <r>   -12.0839     0.0000    30.0000 </r>
       <r>   -11.9489     0.0000    30.0000 </r>
       <r>   -11.8138     0.0000    30.0000 </r>
       <r>   -11.6788     0.0000    30.0000 </r>
       <r>   -11.5438     0.0000    30.0000 </r>
       <r>   -11.4088     0.0000    30.0000 </r>
       <r>   -11.2737     0.0000    30.0000 </r>
       <r>   -11.1387     0.0000    30.0000 </r>
       <r>   -11.0037     0.0000    30.0000 </r>
       <r>   -10.8686     0.0000    30.0000 </r>
       <r>   -10.7336     0.0000    30.0000 </r>
       <r>   -10.5986     0.7913    30.1068 </r>
       <r>   -10.4636    54.2589    37.4333 </r>
       <r>   -10.3285    33.7914    41.9961 </r>
       <r>   -10.1935     0.0286    42.0000 </r>
       <r>   -10.0585     0.0000    42.0000 </r>
       <r>    -9.9234     0.0000    42.0000 </r>
       <r>    -9.7884     0.0000    42.0000 </r>
       <r>    -9.6534     0.0000    42.0000 </r>
       <r>    -9.5184     0.0000    42.0000 </r>
       <r>    -9.3833     0.0000    42.0000 </r>
       <r>    -9.2483     0.0000    42.0000 </r>
       <r>    -9.1133     0.0000    42.0000 </r>
       <r>    -8.9782     0.0000    42.0000 </r>
       <r>    -8.8432     0.0000    42.0000 </r>
       <r>    -8.7082     0.0000    42.0000 </r>
       <r>    -8.5732     0.0000    42.0000 </r>
       <r>    -8.4381     0.0000    42.0000 </r>
       <r>    -8.3031     0.0000    42.0000 </r>
       <r>    -8.1681     0.0000    42.0000 </r>
       <r>    -8.0330     0.0000    42.0000 </r>
       <r>    -7.8980     0.0000    42.0000 </r>
       <r>    -7.7630     0.0000    42.0000 </r>
       <r>    -7.6280     0.0000    42.0000 </r>
       <r>    -7.4929     0.0000    42.0000 </r>
       <r>    -7.3579     0.0000    42.0000 </r>
       <r>    -7.2229     0.0000    42.0000 </r>
       <r>    -7.0879     0.0000    42.0000 </r>
       <r>    -6.9528     0.0000    42.0000 </r>
       <r>    -6.8178     0.0000    42.0000 </r>
       <r>    -6.6828     0.0000    42.0000 </r>
       <r>    -6.5477     0.0000    42.0000 </r>
       <r>    -6.4127     0.0000    42.0000 </r>
       <r>    -6.2777     0.0000    42.0000 </r>
       <r>    -6.1427     0.0000    42.0000 </r>
       <r>    -6.0076     0.0000    42.0000 </r>
       <r>    -5.8726     0.0000    42.0000 </r>
       <r>    -5.7376     0.0000    42.0000 </r>
       <r>    -5.6025     0.0000    42.0000 </r>
       <r>    -5.4675     0.0000    42.0000 </r>
       <r>    -5.3325     0.0000    42.0000 </r>
       <r>    -5.1975     0.0000    42.0000 </r>
       <r>    -5.0624     0.0000    42.0000 </r>
       <r>    -4.9274     0.0000    42.0000 </r>
       <r>    -4.7924     0.0000    42.0000 </r>
       <r>    -4.6573     1.3332    42.1800 </r>
       <r>    -4.5223    20.6224    44.9646 </r>
       <r>    -4.3873     0.2619    45.0000 </r>
       <r>    -4.2523     0.0000    45.0000 </r>
       <r>    -4.1172     0.0000    45.0000 </r>
       <r>    -3.9822     0.0000    45.0000 </r>
       <r>    -3.8472     0.0000    45.0000 </r>
       <r>    -3.7121     0.0000    45.0000 </r>
       <r>    -3.5771     0.0000    45.0000 </r>
       <r>    -3.4421     0.0000    45.0000 </r>
       <r>    -3.3071     0.0000    45.0000 </r>
       <r>    -3.1720     0.0000    45.0000 </r>
       <r>    -3.0370     0.0000    45.0000 </r>
       <r>    -2.9020     0.0000    45.0000 </r>
       <r>    -2.7669     0.0000    45.0000 </r>
       <r>    -2.6319     0.0000    45.0000 </r>
       <r>    -2.4969     0.0000    45.0000 </r>
       <r>    -2.3619     0.0000    45.0000 </r>
       <r>    -2.2268     0.0000    45.0000 </r>
       <r>    -2.0918     0.0000    45.0000 </r>
       <r>    -1.9568     0.0000    45.0000 </r>
       <r>    -1.8217     0.0000    45.0000 </r>
       <r>    -1.6867     0.3986    45.0538 </r>
       <r>    -1.5517     6.9070    45.9865 </r>
       <r>    -1.4167     1.7527    46.2231 </r>
       <r>    -1.2816    20.3699    48.9736 </r>
       <r>    -1.1466     0.1953    49.0000 </r>
       <r>    -1.0116     0.0000    49.0000 </r>
       <r>    -0.8765     0.0000    49.0000 </r>
       <r>    -0.7415     0.0000    49.0000 </r>
       <r>    -0.6065     0.0000    49.0000 </r>
       <r>    -0.4715     0.0000    49.0000 </r>
       <r>    -0.3364     0.0708    49.0096 </r>
       <r>    -0.2014    19.0884    51.5870 </r>
       <r>    -0.0664     3.0584    52.0000 </r>
       <r>     0.0687     1.8541    52.2504 </r>
       <r>     0.2037     5.5457    52.9992 </r>
       <r>     0.3387     4.3083    53.5809 </r>
       <r>     0.4737    27.7921    57.3337 </r>
       <r>     0.6088     4.9348    58.0000 </r>
       <r>     0.7438     0.0001    58.0000 </r>
       <r>     0.8788     0.1144    58.0154 </r>
       <r>     1.0139    19.7684    60.6847 </r>
       <r>     1.1489     2.3347    61.0000 </r>
       <r>     1.2839     0.0000    61.0000 </r>
       <r>     1.4189     0.0000    61.0000 </r>
       <r>     1.5540     0.0000    61.0000 </r>
       <r>     1.6890     0.0000    61.0000 </r>
       <r>     1.8240     0.0000    61.0000 </r>
       <r>     1.9590     0.0000    61.0000 </r>
       <r>     2.0941     0.0000    61.0000 </r>
       <r>     2.2291     2.2950    61.3099 </r>
       <r>     2.3641    19.8049    63.9841 </r>
       <r>     2.4992     0.1177    64.0000 </r>
       <r>     2.6342     0.0000    64.0000 </r>
       <r>     2.7692     0.0000    64.0000 </r>
       <r>     2.9042     0.0000    64.0000 </r>
       <r>     3.0393     0.0000    64.0000 </r>
       <r>     3.1743     0.0000    64.0000 </r>
       <r>     3.3093     0.0000    64.0000 </r>
       <r>     3.4444     0.0000    64.0000 </r>
       <r>     3.5794     0.0000    64.0000 </r>
       <r>     3.7144     0.0000    64.0000 </r>
       <r>     3.8494     0.0000    64.0000 </r>
       <r>     3.9845     0.0000    64.0000 </r>
       <r>     4.1195     0.0000    64.0000 </r>
       <r>     4.2545     0.0000    64.0000 </r>
       <r>     4.3896     0.0000    64.0000 </r>
       <r>     4.5246     0.0000    64.0000 </r>
       <r>     4.6596     0.0000    64.0000 </r>
       <r>     4.7946     0.0031    64.0004 </r>
       <r>     4.9297     9.0929    65.2282 </r>
       <r>     5.0647     5.7155    66.0000 </r>
       <r>     5.1997     0.0003    66.0000 </r>
       <r>     5.3348     0.0000    66.0000 </r>
       <r>     5.4698     3.8887    66.5251 </r>
       <r>     5.6048    18.2853    68.9941 </r>
       <r>     5.7398     0.0435    69.0000 </r>
       <r>     5.8749     0.0000    69.0000 </r>
       <r>     6.0099     0.0000    69.0000 </r>
       <r>     6.1449     0.0002    69.0000 </r>
       <r>     6.2800     2.9505    69.3984 </r>
       <r>     6.4150     4.4538    69.9998 </r>
       <r>     6.5500     0.0014    70.0000 </r>
       <r>     6.6850     0.0000    70.0000 </r>
       <r>     6.8201     0.0000    70.0000 </r>
       <r>     6.9551     0.0000    70.0000 </r>
       <r>     7.0901     0.0000    70.0000 </r>
       <r>     7.2252     0.0000    70.0000 </r>
       <r>     7.3602     0.0000    70.0000 </r>
       <r>     7.4952     0.0000    70.0000 </r>
       <r>     7.6302     0.0000    70.0000 </r>
       <r>     7.7653     0.0013    70.0002 </r>
       <r>     7.9003     4.4350    70.5990 </r>
       <r>     8.0353    12.1488    72.2395 </r>
       <r>     8.1704    13.0348    73.9995 </r>
       <r>     8.3054     0.0035    74.0000 </r>
       <r>     8.4404     0.0000    74.0000 </r>
       <r>     8.5754     0.5915    74.0799 </r>
       <r>     8.7105    13.9339    75.9613 </r>
       <r>     8.8455     0.2864    76.0000 </r>
       <r>     8.9805     0.0000    76.0000 </r>
       <r>     9.1156     0.0916    76.0124 </r>
       <r>     9.2506    19.4695    78.6413 </r>
       <r>     9.3856     2.6565    79.0000 </r>
       <r>     9.5206     0.0000    79.0000 </r>
       <r>     9.6557     0.0000    79.0000 </r>
       <r>     9.7907     0.6382    79.0862 </r>
       <r>     9.9257     6.7154    79.9929 </r>
       <r>    10.0608     0.0522    80.0000 </r>
       <r>    10.1958     0.0000    80.0000 </r>
       <r>    10.3308     0.0000    80.0000 </r>
       <r>    10.4658     0.0000    80.0000 </r>
       <r>    10.6009     0.0000    80.0000 </r>
       <r>    10.7359     0.0000    80.0000 </r>
       <r>    10.8709     0.0000    80.0000 </r>
       <r>    11.0059     0.0000    80.0000 </r>
       <r>    11.1410     0.0000    80.0000 </r>
       <r>    11.2760     0.0000    80.0000 </r>
       <r>    11.4110     0.0000    80.0000 </r>
       <r>    11.5461     0.0000    80.0000 </r>
       <r>    11.6811     0.0000    80.0000 </r>
      </set>
      <set comment="spin 2">
       <r>   -28.8274     0.0000     0.0000 </r>
       <r>   -28.6924     0.0000     0.0000 </r>
       <r>   -28.5574     0.0000     0.0000 </r>
       <r>   -28.4223     0.0000     0.0000 </r>
       <r>   -28.2873     0.0000     0.0000 </r>
       <r>   -28.1523     0.0000     0.0000 </r>
       <r>   -28.0172     0.0000     0.0000 </r>
       <r>   -27.8822     0.0000     0.0000 </r>
       <r>   -27.7472     0.0000     0.0000 </r>
       <r>   -27.6122     0.0000     0.0000 </r>
       <r>   -27.4771     0.0000     0.0000 </r>
       <r>   -27.3421     0.0000     0.0000 </r>
       <r>   -27.2071     0.0000     0.0000 </r>
       <r>   -27.0720     0.1076     0.0145 </r>
       <r>   -26.9370    25.3260     3.4342 </r>
       <r>   -26.8020     4.1898     4.0000 </r>
       <r>   -26.6670     0.0000     4.0000 </r>
       <r>   -26.5319     0.0000     4.0000 </r>
       <r>   -26.3969     0.0000     4.0000 </r>
       <r>   -26.2619     0.0000     4.0000 </r>
       <r>   -26.1268     0.0000     4.0000 </r>
       <r>   -25.9918     0.0000     4.0000 </r>
       <r>   -25.8568     0.0000     4.0000 </r>
       <r>   -25.7218     0.0000     4.0000 </r>
       <r>   -25.5867     0.0000     4.0000 </r>
       <r>   -25.4517     0.0000     4.0000 </r>
       <r>   -25.3167     0.0000     4.0000 </r>
       <r>   -25.1816     0.0000     4.0000 </r>
       <r>   -25.0466     0.0000     4.0000 </r>
       <r>   -24.9116     0.0000     4.0000 </r>
       <r>   -24.7766     0.0000     4.0000 </r>
       <r>   -24.6415     0.0000     4.0000 </r>
       <r>   -24.5065     0.0000     4.0000 </r>
       <r>   -24.3715     0.0000     4.0000 </r>
       <r>   -24.2365     0.0000     4.0000 </r>
       <r>   -24.1014     0.0000     4.0000 </r>
       <r>   -23.9664     0.0000     4.0000 </r>
       <r>   -23.8314     0.0000     4.0000 </r>
       <r>   -23.6963     0.0000     4.0000 </r>
       <r>   -23.5613     0.0000     4.0000 </r>
       <r>   -23.4263     0.0000     4.0000 </r>
       <r>   -23.2913     0.0000     4.0000 </r>
       <r>   -23.1562     0.0000     4.0000 </r>
       <r>   -23.0212     0.0000     4.0000 </r>
       <r>   -22.8862     0.0000     4.0000 </r>
       <r>   -22.7511     0.0000     4.0000 </r>
       <r>   -22.6161     0.0000     4.0000 </r>
       <r>   -22.4811     0.0000     4.0000 </r>
       <r>   -22.3461     0.0000     4.0000 </r>
       <r>   -22.2110     0.0000     4.0000 </r>
       <r>   -22.0760     0.0000     4.0000 </r>
       <r>   -21.9410     0.0000     4.0000 </r>
       <r>   -21.8059     0.0000     4.0000 </r>
       <r>   -21.6709     0.0000     4.0000 </r>
       <r>   -21.5359     0.0000     4.0000 </r>
       <r>   -21.4009     0.0000     4.0000 </r>
       <r>   -21.2658     0.0000     4.0000 </r>
       <r>   -21.1308     0.0000     4.0000 </r>
       <r>   -20.9958     0.0000     4.0000 </r>
       <r>   -20.8607     0.0000     4.0000 </r>
       <r>   -20.7257     0.0000     4.0000 </r>
       <r>   -20.5907     0.0000     4.0000 </r>
       <r>   -20.4557     0.0000     4.0000 </r>
       <r>   -20.3206     0.0000     4.0000 </r>
       <r>   -20.1856     0.0000     4.0000 </r>
       <r>   -20.0506     0.0000     4.0000 </r>
       <r>   -19.9155     0.0000     4.0000 </r>
       <r>   -19.7805     0.0000     4.0000 </r>
       <r>   -19.6455     0.0000     4.0000 </r>
       <r>   -19.5105     0.0000     4.0000 </r>
       <r>   -19.3754     0.0000     4.0000 </r>
       <r>   -19.2404     0.0000     4.0000 </r>
       <r>   -19.1054     0.0000     4.0000 </r>
       <r>   -18.9703     0.0000     4.0000 </r>
       <r>   -18.8353     0.0000     4.0000 </r>
       <r>   -18.7003     0.0000     4.0000 </r>
       <r>   -18.5653     0.0000     4.0000 </r>
       <r>   -18.4302     0.0000     4.0000 </r>
       <r>   -18.2952     0.4123     4.0557 </r>
       <r>   -18.1602    20.5383     6.8289 </r>
       <r>   -18.0251    16.1337     9.0074 </r>
       <r>   -17.8901    20.3423    11.7542 </r>
       <r>   -17.7551    74.7165    21.8431 </r>
       <r>   -17.6201    15.9725    23.9998 </r>
       <r>   -17.4850     0.0014    24.0000 </r>
       <r>   -17.3500     0.0000    24.0000 </r>
       <r>   -17.2150     0.0000    24.0000 </r>
       <r>   -17.0799     0.0000    24.0000 </r>
       <r>   -16.9449     0.0000    24.0000 </r>
       <r>   -16.8099     0.0000    24.0000 </r>
       <r>   -16.6749     0.0000    24.0000 </r>
       <r>   -16.5398     0.0000    24.0000 </r>
       <r>   -16.4048     0.0000    24.0000 </r>
       <r>   -16.2698     0.0000    24.0000 </r>
       <r>   -16.1347     0.0000    24.0000 </r>
       <r>   -15.9997     0.0000    24.0000 </r>
       <r>   -15.8647     0.0000    24.0000 </r>
       <r>   -15.7297     0.0000    24.0000 </r>
       <r>   -15.5946     0.0000    24.0000 </r>
       <r>   -15.4596     0.0000    24.0000 </r>
       <r>   -15.3246     0.0000    24.0000 </r>
       <r>   -15.1896     0.0027    24.0004 </r>
       <r>   -15.0545     4.9500    24.6687 </r>
       <r>   -14.9195     2.4531    25.0000 </r>
       <r>   -14.7845     0.0001    25.0000 </r>
       <r>   -14.6494     0.0000    25.0000 </r>
       <r>   -14.5144     0.0000    25.0000 </r>
       <r>   -14.3794     0.0414    25.0056 </r>
       <r>   -14.2444    18.1913    27.4619 </r>
       <r>   -14.1093     3.9848    28.0000 </r>
       <r>   -13.9743     0.0120    28.0016 </r>
       <r>   -13.8393    11.0541    29.4942 </r>
       <r>   -13.7042     3.7456    30.0000 </r>
       <r>   -13.5692     0.0001    30.0000 </r>
       <r>   -13.4342     0.0000    30.0000 </r>
       <r>   -13.2992     0.0000    30.0000 </r>
       <r>   -13.1641     0.0000    30.0000 </r>
       <r>   -13.0291     0.0000    30.0000 </r>
       <r>   -12.8941     0.0000    30.0000 </r>
       <r>   -12.7590     0.0000    30.0000 </r>
       <r>   -12.6240     0.0000    30.0000 </r>
       <r>   -12.4890     0.0000    30.0000 </r>
       <r>   -12.3540     0.0000    30.0000 </r>
       <r>   -12.2189     0.0000    30.0000 </r>
       <r>   -12.0839     0.0000    30.0000 </r>
       <r>   -11.9489     0.0000    30.0000 </r>
       <r>   -11.8138     0.0000    30.0000 </r>
       <r>   -11.6788     0.0000    30.0000 </r>
       <r>   -11.5438     0.0000    30.0000 </r>
       <r>   -11.4088     0.0000    30.0000 </r>
       <r>   -11.2737     0.0000    30.0000 </r>
       <r>   -11.1387     0.0000    30.0000 </r>
       <r>   -11.0037     0.0000    30.0000 </r>
       <r>   -10.8686     0.0000    30.0000 </r>
       <r>   -10.7336     0.0000    30.0000 </r>
       <r>   -10.5986     0.7868    30.1062 </r>
       <r>   -10.4636    54.2586    37.4327 </r>
       <r>   -10.3285    33.7962    41.9961 </r>
       <r>   -10.1935     0.0286    42.0000 </r>
       <r>   -10.0585     0.0000    42.0000 </r>
       <r>    -9.9234     0.0000    42.0000 </r>
       <r>    -9.7884     0.0000    42.0000 </r>
       <r>    -9.6534     0.0000    42.0000 </r>
       <r>    -9.5184     0.0000    42.0000 </r>
       <r>    -9.3833     0.0000    42.0000 </r>
       <r>    -9.2483     0.0000    42.0000 </r>
       <r>    -9.1133     0.0000    42.0000 </r>
       <r>    -8.9782     0.0000    42.0000 </r>
       <r>    -8.8432     0.0000    42.0000 </r>
       <r>    -8.7082     0.0000    42.0000 </r>
       <r>    -8.5732     0.0000    42.0000 </r>
       <r>    -8.4381     0.0000    42.0000 </r>
       <r>    -8.3031     0.0000    42.0000 </r>
       <r>    -8.1681     0.0000    42.0000 </r>
       <r>    -8.0330     0.0000    42.0000 </r>
       <r>    -7.8980     0.0000    42.0000 </r>
       <r>    -7.7630     0.0000    42.0000 </r>
       <r>    -7.6280     0.0000    42.0000 </r>
       <r>    -7.4929     0.0000    42.0000 </r>
       <r>    -7.3579     0.0000    42.0000 </r>
       <r>    -7.2229     0.0000    42.0000 </r>
       <r>    -7.0879     0.0000    42.0000 </r>
       <r>    -6.9528     0.0000    42.0000 </r>
       <r>    -6.8178     0.0000    42.0000 </r>
       <r>    -6.6828     0.0000    42.0000 </r>
       <r>    -6.5477     0.0000    42.0000 </r>
       <r>    -6.4127     0.0000    42.0000 </r>
       <r>    -6.2777     0.0000    42.0000 </r>
       <r>    -6.1427     0.0000    42.0000 </r>
       <r>    -6.0076     0.0000    42.0000 </r>
       <r>    -5.8726     0.0000    42.0000 </r>
       <r>    -5.7376     0.0000    42.0000 </r>
       <r>    -5.6025     0.0000    42.0000 </r>
       <r>    -5.4675     0.0000    42.0000 </r>
       <r>    -5.3325     0.0000    42.0000 </r>
       <r>    -5.1975     0.0000    42.0000 </r>
       <r>    -5.0624     0.0000    42.0000 </r>
       <r>    -4.9274     0.0000    42.0000 </r>
       <r>    -4.7924     0.0000    42.0000 </r>
       <r>    -4.6573     1.3222    42.1785 </r>
       <r>    -4.5223    20.6306    44.9643 </r>
       <r>    -4.3873     0.2647    45.0000 </r>
       <r>    -4.2523     0.0000    45.0000 </r>
       <r>    -4.1172     0.0000    45.0000 </r>
       <r>    -3.9822     0.0000    45.0000 </r>
       <r>    -3.8472     0.0000    45.0000 </r>
       <r>    -3.7121     0.0000    45.0000 </r>
       <r>    -3.5771     0.0000    45.0000 </r>
       <r>    -3.4421     0.0000    45.0000 </r>
       <r>    -3.3071     0.0000    45.0000 </r>
       <r>    -3.1720     0.0000    45.0000 </r>
       <r>    -3.0370     0.0000    45.0000 </r>
       <r>    -2.9020     0.0000    45.0000 </r>
       <r>    -2.7669     0.0000    45.0000 </r>
       <r>    -2.6319     0.0000    45.0000 </r>
       <r>    -2.4969     0.0000    45.0000 </r>
       <r>    -2.3619     0.0000    45.0000 </r>
       <r>    -2.2268     0.0000    45.0000 </r>
       <r>    -2.0918     0.0000    45.0000 </r>
       <r>    -1.9568     0.0000    45.0000 </r>
       <r>    -1.8217     0.0000    45.0000 </r>
       <r>    -1.6867     0.3946    45.0533 </r>
       <r>    -1.5517     6.9097    45.9863 </r>
       <r>    -1.4167     1.7410    46.2214 </r>
       <r>    -1.2816    20.3806    48.9733 </r>
       <r>    -1.1466     0.1976    49.0000 </r>
       <r>    -1.0116     0.0000    49.0000 </r>
       <r>    -0.8765     0.0000    49.0000 </r>
       <r>    -0.7415     0.0000    49.0000 </r>
       <r>    -0.6065     0.0000    49.0000 </r>
       <r>    -0.4715     0.0000    49.0000 </r>
       <r>    -0.3364     0.0693    49.0094 </r>
       <r>    -0.2014    19.0568    51.5826 </r>
       <r>    -0.0664     3.0914    52.0000 </r>
       <r>     0.0687     1.8590    52.2510 </r>
       <r>     0.2037     5.5409    52.9992 </r>
       <r>     0.3387     4.3201    53.5825 </r>
       <r>     0.4737    27.7430    57.3286 </r>
       <r>     0.6088     4.9721    58.0000 </r>
       <r>     0.7438     0.0001    58.0000 </r>
       <r>     0.8788     0.1139    58.0154 </r>
       <r>     1.0139    19.7633    60.6840 </r>
       <r>     1.1489     2.3403    61.0000 </r>
       <r>     1.2839     0.0000    61.0000 </r>
       <r>     1.4189     0.0000    61.0000 </r>
       <r>     1.5540     0.0000    61.0000 </r>
       <r>     1.6890     0.0000    61.0000 </r>
       <r>     1.8240     0.0000    61.0000 </r>
       <r>     1.9590     0.0000    61.0000 </r>
       <r>     2.0941     0.0000    61.0000 </r>
       <r>     2.2291     2.2580    61.3049 </r>
       <r>     2.3641    19.8386    63.9837 </r>
       <r>     2.4992     0.1209    64.0000 </r>
       <r>     2.6342     0.0000    64.0000 </r>
       <r>     2.7692     0.0000    64.0000 </r>
       <r>     2.9042     0.0000    64.0000 </r>
       <r>     3.0393     0.0000    64.0000 </r>
       <r>     3.1743     0.0000    64.0000 </r>
       <r>     3.3093     0.0000    64.0000 </r>
       <r>     3.4444     0.0000    64.0000 </r>
       <r>     3.5794     0.0000    64.0000 </r>
       <r>     3.7144     0.0000    64.0000 </r>
       <r>     3.8494     0.0000    64.0000 </r>
       <r>     3.9845     0.0000    64.0000 </r>
       <r>     4.1195     0.0000    64.0000 </r>
       <r>     4.2545     0.0000    64.0000 </r>
       <r>     4.3896     0.0000    64.0000 </r>
       <r>     4.5246     0.0000    64.0000 </r>
       <r>     4.6596     0.0000    64.0000 </r>
       <r>     4.7946     0.0031    64.0004 </r>
       <r>     4.9297     9.1019    65.2294 </r>
       <r>     5.0647     5.7064    66.0000 </r>
       <r>     5.1997     0.0003    66.0000 </r>
       <r>     5.3348     0.0000    66.0000 </r>
       <r>     5.4698     3.8955    66.5260 </r>
       <r>     5.6048    18.2787    68.9941 </r>
       <r>     5.7398     0.0434    69.0000 </r>
       <r>     5.8749     0.0000    69.0000 </r>
       <r>     6.0099     0.0000    69.0000 </r>
       <r>     6.1449     0.0002    69.0000 </r>
       <r>     6.2800     2.9832    69.4028 </r>
       <r>     6.4150     4.4212    69.9998 </r>
       <r>     6.5500     0.0013    70.0000 </r>
       <r>     6.6850     0.0000    70.0000 </r>
       <r>     6.8201     0.0000    70.0000 </r>
       <r>     6.9551     0.0000    70.0000 </r>
       <r>     7.0901     0.0000    70.0000 </r>
       <r>     7.2252     0.0000    70.0000 </r>
       <r>     7.3602     0.0000    70.0000 </r>
       <r>     7.4952     0.0000    70.0000 </r>
       <r>     7.6302     0.0000    70.0000 </r>
       <r>     7.7653     0.0013    70.0002 </r>
       <r>     7.9003     4.4196    70.5969 </r>
       <r>     8.0353    12.1806    72.2417 </r>
       <r>     8.1704    13.0183    73.9995 </r>
       <r>     8.3054     0.0035    74.0000 </r>
       <r>     8.4404     0.0000    74.0000 </r>
       <r>     8.5754     0.5915    74.0799 </r>
       <r>     8.7105    13.9339    75.9613 </r>
       <r>     8.8455     0.2864    76.0000 </r>
       <r>     8.9805     0.0000    76.0000 </r>
       <r>     9.1156     0.0891    76.0120 </r>
       <r>     9.2506    19.4314    78.6358 </r>
       <r>     9.3856     2.6970    79.0000 </r>
       <r>     9.5206     0.0000    79.0000 </r>
       <r>     9.6557     0.0000    79.0000 </r>
       <r>     9.7907     0.6106    79.0824 </r>
       <r>     9.9257     6.7394    79.9925 </r>
       <r>    10.0608     0.0559    80.0000 </r>
       <r>    10.1958     0.0000    80.0000 </r>
       <r>    10.3308     0.0000    80.0000 </r>
       <r>    10.4658     0.0000    80.0000 </r>
       <r>    10.6009     0.0000    80.0000 </r>
       <r>    10.7359     0.0000    80.0000 </r>
       <r>    10.8709     0.0000    80.0000 </r>
       <r>    11.0059     0.0000    80.0000 </r>
       <r>    11.1410     0.0000    80.0000 </r>
       <r>    11.2760     0.0000    80.0000 </r>
       <r>    11.4110     0.0000    80.0000 </r>
       <r>    11.5461     0.0000    80.0000 </r>
       <r>    11.6811     0.0000    80.0000 </r>
      </set>
     </set>
    </array>
   </total>
   <partial>
    <array>
     <dimension dim="1">gridpoints</dimension>
     <dimension dim="2">spin</dimension>
     <dimension dim="3">ion</dimension>
     <field>energy</field>
     <field>  s</field>
     <field> py</field>
     <field> pz</field>
     <field> px</field>
     <field>dxy</field>
     <field>dyz</field>
     <field>dz2</field>
     <field>dxz</field>
     <field>dx2</field>
     <set>
      <set comment="ion 1">
       <set comment="spin 1">
        <r>   -28.8274     0.0000     0.0000     0.0000     0.0000     0.0000     0.0000     0.0000     0.0000     0.0000 </r>
        <r>   -28.6924     0.0000     0.0000     0.0000     0.0000     0.0000     0.0000     0.0000     0.0000     0.0000 </r>
        <r>   -28.5574     0.0000     0.0000     0.0000     0.0000     0.0000     0.0000     0.0000     0.0000     0.0000 </r>
        <r>   -28.4223     0.0000     0.0000     0.0000     0.0000     0.0000     0.0000     0.0000     0.0000     0.0000 </r>
        <r>   -28.2873     0.0000     0.0000     0.0000     0.0000     0.0000     0.0000     0.0000     0.0000     0.0000 </r>
        <r>   -28.1523     0.0000     0.0000     0.0000     0.0000     0.0000     0.0000     0.0000     0.0000     0.0000 </r>
        <r>   -28.0172     0.0000     0.0000     0.0000     0.0000     0.0000     0.0000     0.0000     0.0000     0.0000 </r>
        <r>   -27.8822     0.0000     0.0000     0.0000     0.0000     0.0000     0.0000     0.0000     0.0000     0.0000 </r>
        <r>   -27.7472     0.0000     0.0000     0.0000     0.0000     0.0000     0.0000     0.0000     0.0000     0.0000 </r>
        <r>   -27.6122     0.0000     0.0000     0.0000     0.0000     0.0000     0.0000     0.0000     0.0000     0.0000 </r>
        <r>   -27.4771     0.0000     0.0000     0.0000     0.0000     0.0000     0.0000     0.0000     0.0000     0.0000 </r>
        <r>   -27.3421     0.0000     0.0000     0.0000     0.0000     0.0000     0.0000     0.0000     0.0000     0.0000 </r>
        <r>   -27.2071     0.0000     0.0000     0.0000     0.0000     0.0000     0.0000     0.0000     0.0000     0.0000 </r>
        <r>   -27.0720     0.0271     0.0000     0.0000     0.0000     0.0000     0.0000     0.0000     0.0000     0.0000 </r>
        <r>   -26.9370     6.1639     0.0000     0.0000     0.0000     0.0000     0.0000     0.0000     0.0000     0.0000 </r>
        <r>   -26.8020     0.9937     0.0000     0.0000     0.0000     0.0000     0.0000     0.0000     0.0000     0.0000 </r>
        <r>   -26.6670     0.0000     0.0000     0.0000     0.0000     0.0000     0.0000     0.0000     0.0000     0.0000 </r>
        <r>   -26.5319     0.0000     0.0000     0.0000     0.0000     0.0000     0.0000     0.0000     0.0000     0.0000 </r>
        <r>   -26.3969     0.0000     0.0000     0.0000     0.0000     0.0000     0.0000     0.0000     0.0000     0.0000 </r>
        <r>   -26.2619     0.0000     0.0000     0.0000     0.0000     0.0000     0.0000     0.0000     0.0000     0.0000 </r>
        <r>   -26.1268     0.0000     0.0000     0.0000     0.0000     0.0000     0.0000     0.0000     0.0000     0.0000 </r>
        <r>   -25.9918     0.0000     0.0000     0.0000     0.0000     0.0000     0.0000     0.0000     0.0000     0.0000 </r>
        <r>   -25.8568     0.0000     0.0000     0.0000     0.0000     0.0000     0.0000     0.0000     0.0000     0.0000 </r>
        <r>   -25.7218     0.0000     0.0000     0.0000     0.0000     0.0000     0.0000     0.0000     0.0000     0.0000 </r>
        <r>   -25.5867     0.0000     0.0000     0.0000     0.0000     0.0000     0.0000     0.0000     0.0000     0.0000 </r>
        <r>   -25.4517     0.0000     0.0000     0.0000     0.0000     0.0000     0.0000     0.0000     0.0000     0.0000 </r>
        <r>   -25.3167     0.0000     0.0000     0.0000     0.0000     0.0000     0.0000     0.0000     0.0000     0.0000 </r>
        <r>   -25.1816     0.0000     0.0000     0.0000     0.0000     0.0000     0.0000     0.0000     0.0000     0.0000 </r>
        <r>   -25.0466     0.0000     0.0000     0.0000     0.0000     0.0000     0.0000     0.0000     0.0000     0.0000 </r>
        <r>   -24.9116     0.0000     0.0000     0.0000     0.0000     0.0000     0.0000     0.0000     0.0000     0.0000 </r>
        <r>   -24.7766     0.0000     0.0000     0.0000     0.0000     0.0000     0.0000     0.0000     0.0000     0.0000 </r>
        <r>   -24.6415     0.0000     0.0000     0.0000     0.0000     0.0000     0.0000     0.0000     0.0000     0.0000 </r>
        <r>   -24.5065     0.0000     0.0000     0.0000     0.0000     0.0000     0.0000     0.0000     0.0000     0.0000 </r>
        <r>   -24.3715     0.0000     0.0000     0.0000     0.0000     0.0000     0.0000     0.0000     0.0000     0.0000 </r>
        <r>   -24.2365     0.0000     0.0000     0.0000     0.0000     0.0000     0.0000     0.0000     0.0000     0.0000 </r>
        <r>   -24.1014     0.0000     0.0000     0.0000     0.0000     0.0000     0.0000     0.0000     0.0000     0.0000 </r>
        <r>   -23.9664     0.0000     0.0000     0.0000     0.0000     0.0000     0.0000     0.0000     0.0000     0.0000 </r>
        <r>   -23.8314     0.0000     0.0000     0.0000     0.0000     0.0000     0.0000     0.0000     0.0000     0.0000 </r>
        <r>   -23.6963     0.0000     0.0000     0.0000     0.0000     0.0000     0.0000     0.0000     0.0000     0.0000 </r>
        <r>   -23.5613     0.0000     0.0000     0.0000     0.0000     0.0000     0.0000     0.0000     0.0000     0.0000 </r>
        <r>   -23.4263     0.0000     0.0000     0.0000     0.0000     0.0000     0.0000     0.0000     0.0000     0.0000 </r>
        <r>   -23.2913     0.0000     0.0000     0.0000     0.0000     0.0000     0.0000     0.0000     0.0000     0.0000 </r>
        <r>   -23.1562     0.0000     0.0000     0.0000     0.0000     0.0000     0.0000     0.0000     0.0000     0.0000 </r>
        <r>   -23.0212     0.0000     0.0000     0.0000     0.0000     0.0000     0.0000     0.0000     0.0000     0.0000 </r>
        <r>   -22.8862     0.0000     0.0000     0.0000     0.0000     0.0000     0.0000     0.0000     0.0000     0.0000 </r>
        <r>   -22.7511     0.0000     0.0000     0.0000     0.0000     0.0000     0.0000     0.0000     0.0000     0.0000 </r>
        <r>   -22.6161     0.0000     0.0000     0.0000     0.0000     0.0000     0.0000     0.0000     0.0000     0.0000 </r>
        <r>   -22.4811     0.0000     0.0000     0.0000     0.0000     0.0000     0.0000     0.0000     0.0000     0.0000 </r>
        <r>   -22.3461     0.0000     0.0000     0.0000     0.0000     0.0000     0.0000     0.0000     0.0000     0.0000 </r>
        <r>   -22.2110     0.0000     0.0000     0.0000     0.0000     0.0000     0.0000     0.0000     0.0000     0.0000 </r>
        <r>   -22.0760     0.0000     0.0000     0.0000     0.0000     0.0000     0.0000     0.0000     0.0000     0.0000 </r>
        <r>   -21.9410     0.0000     0.0000     0.0000     0.0000     0.0000     0.0000     0.0000     0.0000     0.0000 </r>
        <r>   -21.8059     0.0000     0.0000     0.0000     0.0000     0.0000     0.0000     0.0000     0.0000     0.0000 </r>
        <r>   -21.6709     0.0000     0.0000     0.0000     0.0000     0.0000     0.0000     0.0000     0.0000     0.0000 </r>
        <r>   -21.5359     0.0000     0.0000     0.0000     0.0000     0.0000     0.0000     0.0000     0.0000     0.0000 </r>
        <r>   -21.4009     0.0000     0.0000     0.0000     0.0000     0.0000     0.0000     0.0000     0.0000     0.0000 </r>
        <r>   -21.2658     0.0000     0.0000     0.0000     0.0000     0.0000     0.0000     0.0000     0.0000     0.0000 </r>
        <r>   -21.1308     0.0000     0.0000     0.0000     0.0000     0.0000     0.0000     0.0000     0.0000     0.0000 </r>
        <r>   -20.9958     0.0000     0.0000     0.0000     0.0000     0.0000     0.0000     0.0000     0.0000     0.0000 </r>
        <r>   -20.8607     0.0000     0.0000     0.0000     0.0000     0.0000     0.0000     0.0000     0.0000     0.0000 </r>
        <r>   -20.7257     0.0000     0.0000     0.0000     0.0000     0.0000     0.0000     0.0000     0.0000     0.0000 </r>
        <r>   -20.5907     0.0000     0.0000     0.0000     0.0000     0.0000     0.0000     0.0000     0.0000     0.0000 </r>
        <r>   -20.4557     0.0000     0.0000     0.0000     0.0000     0.0000     0.0000     0.0000     0.0000     0.0000 </r>
        <r>   -20.3206     0.0000     0.0000     0.0000     0.0000     0.0000     0.0000     0.0000     0.0000     0.0000 </r>
        <r>   -20.1856     0.0000     0.0000     0.0000     0.0000     0.0000     0.0000     0.0000     0.0000     0.0000 </r>
        <r>   -20.0506     0.0000     0.0000     0.0000     0.0000     0.0000     0.0000     0.0000     0.0000     0.0000 </r>
        <r>   -19.9155     0.0000     0.0000     0.0000     0.0000     0.0000     0.0000     0.0000     0.0000     0.0000 </r>
        <r>   -19.7805     0.0000     0.0000     0.0000     0.0000     0.0000     0.0000     0.0000     0.0000     0.0000 </r>
        <r>   -19.6455     0.0000     0.0000     0.0000     0.0000     0.0000     0.0000     0.0000     0.0000     0.0000 </r>
        <r>   -19.5105     0.0000     0.0000     0.0000     0.0000     0.0000     0.0000     0.0000     0.0000     0.0000 </r>
        <r>   -19.3754     0.0000     0.0000     0.0000     0.0000     0.0000     0.0000     0.0000     0.0000     0.0000 </r>
        <r>   -19.2404     0.0000     0.0000     0.0000     0.0000     0.0000     0.0000     0.0000     0.0000     0.0000 </r>
        <r>   -19.1054     0.0000     0.0000     0.0000     0.0000     0.0000     0.0000     0.0000     0.0000     0.0000 </r>
        <r>   -18.9703     0.0000     0.0000     0.0000     0.0000     0.0000     0.0000     0.0000     0.0000     0.0000 </r>
        <r>   -18.8353     0.0000     0.0000     0.0000     0.0000     0.0000     0.0000     0.0000     0.0000     0.0000 </r>
        <r>   -18.7003     0.0000     0.0000     0.0000     0.0000     0.0000     0.0000     0.0000     0.0000     0.0000 </r>
        <r>   -18.5653     0.0000     0.0000     0.0000     0.0000     0.0000     0.0000     0.0000     0.0000     0.0000 </r>
        <r>   -18.4302     0.0000     0.0000     0.0000     0.0000     0.0000     0.0000     0.0000     0.0000     0.0000 </r>
        <r>   -18.2952     0.0000     0.0000     0.0000     0.0000     0.0000     0.0000     0.0000     0.0000     0.0000 </r>
        <r>   -18.1602     0.0000     0.0002     0.0002     0.0002     0.0000     0.0000     0.0000     0.0000     0.0000 </r>
        <r>   -18.0251     0.0000     0.0001     0.0001     0.0001     0.0000     0.0000     0.0000     0.0000     0.0000 </r>
        <r>   -17.8901     0.0000     0.0000     0.0000     0.0000     0.0000     0.0000     0.0000     0.0000     0.0000 </r>
        <r>   -17.7551     0.0003     0.0001     0.0001     0.0001     0.0000     0.0000     0.0000     0.0000     0.0000 </r>
        <r>   -17.6201     0.0001     0.0000     0.0000     0.0000     0.0000     0.0000     0.0000     0.0000     0.0000 </r>
        <r>   -17.4850     0.0000     0.0000     0.0000     0.0000     0.0000     0.0000     0.0000     0.0000     0.0000 </r>
        <r>   -17.3500     0.0000     0.0000     0.0000     0.0000     0.0000     0.0000     0.0000     0.0000     0.0000 </r>
        <r>   -17.2150     0.0000     0.0000     0.0000     0.0000     0.0000     0.0000     0.0000     0.0000     0.0000 </r>
        <r>   -17.0799     0.0000     0.0000     0.0000     0.0000     0.0000     0.0000     0.0000     0.0000     0.0000 </r>
        <r>   -16.9449     0.0000     0.0000     0.0000     0.0000     0.0000     0.0000     0.0000     0.0000     0.0000 </r>
        <r>   -16.8099     0.0000     0.0000     0.0000     0.0000     0.0000     0.0000     0.0000     0.0000     0.0000 </r>
        <r>   -16.6749     0.0000     0.0000     0.0000     0.0000     0.0000     0.0000     0.0000     0.0000     0.0000 </r>
        <r>   -16.5398     0.0000     0.0000     0.0000     0.0000     0.0000     0.0000     0.0000     0.0000     0.0000 </r>
        <r>   -16.4048     0.0000     0.0000     0.0000     0.0000     0.0000     0.0000     0.0000     0.0000     0.0000 </r>
        <r>   -16.2698     0.0000     0.0000     0.0000     0.0000     0.0000     0.0000     0.0000     0.0000     0.0000 </r>
        <r>   -16.1347     0.0000     0.0000     0.0000     0.0000     0.0000     0.0000     0.0000     0.0000     0.0000 </r>
        <r>   -15.9997     0.0000     0.0000     0.0000     0.0000     0.0000     0.0000     0.0000     0.0000     0.0000 </r>
        <r>   -15.8647     0.0000     0.0000     0.0000     0.0000     0.0000     0.0000     0.0000     0.0000     0.0000 </r>
        <r>   -15.7297     0.0000     0.0000     0.0000     0.0000     0.0000     0.0000     0.0000     0.0000     0.0000 </r>
        <r>   -15.5946     0.0000     0.0000     0.0000     0.0000     0.0000     0.0000     0.0000     0.0000     0.0000 </r>
        <r>   -15.4596     0.0000     0.0000     0.0000     0.0000     0.0000     0.0000     0.0000     0.0000     0.0000 </r>
        <r>   -15.3246     0.0000     0.0000     0.0000     0.0000     0.0000     0.0000     0.0000     0.0000     0.0000 </r>
        <r>   -15.1896     0.0000     0.0000     0.0000     0.0000     0.0000     0.0000     0.0000     0.0000     0.0000 </r>
        <r>   -15.0545     0.0027     0.0011     0.0012     0.0012     0.0000     0.0000     0.0000     0.0000     0.0000 </r>
        <r>   -14.9195     0.0013     0.0006     0.0006     0.0006     0.0000     0.0000     0.0000     0.0000     0.0000 </r>
        <r>   -14.7845     0.0000     0.0000     0.0000     0.0000     0.0000     0.0000     0.0000     0.0000     0.0000 </r>
        <r>   -14.6494     0.0000     0.0000     0.0000     0.0000     0.0000     0.0000     0.0000     0.0000     0.0000 </r>
        <r>   -14.5144     0.0000     0.0000     0.0000     0.0000     0.0000     0.0000     0.0000     0.0000     0.0000 </r>
        <r>   -14.3794     0.0000     0.0000     0.0000     0.0000     0.0000     0.0000     0.0000     0.0000     0.0000 </r>
        <r>   -14.2444     0.0000     0.0122     0.0119     0.0120     0.0002     0.0002     0.0000     0.0002     0.0000 </r>
        <r>   -14.1093     0.0000     0.0025     0.0027     0.0026     0.0001     0.0001     0.0000     0.0001     0.0000 </r>
        <r>   -13.9743     0.0000     0.0000     0.0000     0.0000     0.0000     0.0000     0.0000     0.0000     0.0000 </r>
        <r>   -13.8393     0.0000     0.0111     0.0112     0.0111     0.0000     0.0000     0.0001     0.0000     0.0001 </r>
        <r>   -13.7042     0.0000     0.0037     0.0037     0.0038     0.0000     0.0000     0.0000     0.0000     0.0000 </r>
        <r>   -13.5692     0.0000     0.0000     0.0000     0.0000     0.0000     0.0000     0.0000     0.0000     0.0000 </r>
        <r>   -13.4342     0.0000     0.0000     0.0000     0.0000     0.0000     0.0000     0.0000     0.0000     0.0000 </r>
        <r>   -13.2992     0.0000     0.0000     0.0000     0.0000     0.0000     0.0000     0.0000     0.0000     0.0000 </r>
        <r>   -13.1641     0.0000     0.0000     0.0000     0.0000     0.0000     0.0000     0.0000     0.0000     0.0000 </r>
        <r>   -13.0291     0.0000     0.0000     0.0000     0.0000     0.0000     0.0000     0.0000     0.0000     0.0000 </r>
        <r>   -12.8941     0.0000     0.0000     0.0000     0.0000     0.0000     0.0000     0.0000     0.0000     0.0000 </r>
        <r>   -12.7590     0.0000     0.0000     0.0000     0.0000     0.0000     0.0000     0.0000     0.0000     0.0000 </r>
        <r>   -12.6240     0.0000     0.0000     0.0000     0.0000     0.0000     0.0000     0.0000     0.0000     0.0000 </r>
        <r>   -12.4890     0.0000     0.0000     0.0000     0.0000     0.0000     0.0000     0.0000     0.0000     0.0000 </r>
        <r>   -12.3540     0.0000     0.0000     0.0000     0.0000     0.0000     0.0000     0.0000     0.0000     0.0000 </r>
        <r>   -12.2189     0.0000     0.0000     0.0000     0.0000     0.0000     0.0000     0.0000     0.0000     0.0000 </r>
        <r>   -12.0839     0.0000     0.0000     0.0000     0.0000     0.0000     0.0000     0.0000     0.0000     0.0000 </r>
        <r>   -11.9489     0.0000     0.0000     0.0000     0.0000     0.0000     0.0000     0.0000     0.0000     0.0000 </r>
        <r>   -11.8138     0.0000     0.0000     0.0000     0.0000     0.0000     0.0000     0.0000     0.0000     0.0000 </r>
        <r>   -11.6788     0.0000     0.0000     0.0000     0.0000     0.0000     0.0000     0.0000     0.0000     0.0000 </r>
        <r>   -11.5438     0.0000     0.0000     0.0000     0.0000     0.0000     0.0000     0.0000     0.0000     0.0000 </r>
        <r>   -11.4088     0.0000     0.0000     0.0000     0.0000     0.0000     0.0000     0.0000     0.0000     0.0000 </r>
        <r>   -11.2737     0.0000     0.0000     0.0000     0.0000     0.0000     0.0000     0.0000     0.0000     0.0000 </r>
        <r>   -11.1387     0.0000     0.0000     0.0000     0.0000     0.0000     0.0000     0.0000     0.0000     0.0000 </r>
        <r>   -11.0037     0.0000     0.0000     0.0000     0.0000     0.0000     0.0000     0.0000     0.0000     0.0000 </r>
[...]
        <r>  0.0011  0.0123  0.0000  0.0000  0.0000  0.0000  0.0000  0.0000  0.0000 </r>
        <r>  0.0011  0.0123  0.0000  0.0000  0.0000  0.0000  0.0000  0.0000  0.0000 </r>
        <r>  0.0069  0.0000  0.0010  0.0000  0.0000  0.0000  0.0000  0.0000  0.0000 </r>
       </set>
       <set comment="band 67">
        <r>  0.0009  0.0001  0.0027  0.0021  0.0003  0.0001  0.0007  0.0003  0.0001 </r>
        <r>  0.0000  0.0002  0.0022  0.0020  0.0005  0.0000  0.0002  0.0006  0.0014 </r>
        <r>  0.0014  0.0003  0.0028  0.0023  0.0003  0.0000  0.0002  0.0003  0.0000 </r>
        <r>  0.0000  0.0001  0.0022  0.0021  0.0005  0.0000  0.0006  0.0006  0.0010 </r>
        <r>  0.0003  0.0483  0.0310  0.0034  0.0007  0.0004  0.0039  0.0001  0.0012 </r>
        <r>  0.0504  0.0123  0.0110  0.0016  0.0002  0.0001  0.0001  0.0000  0.0008 </r>
        <r>  0.0011  0.0407  0.0403  0.0007  0.0006  0.0006  0.0048  0.0000  0.0002 </r>
        <r>  0.0297  0.0166  0.0168  0.0153  0.0002  0.0002  0.0002  0.0002  0.0024 </r>
        <r>  0.0111  0.0020  0.0096  0.0021  0.0000  0.0000  0.0000  0.0000  0.0000 </r>
        <r>  0.0111  0.0013  0.0115  0.0021  0.0000  0.0000  0.0000  0.0000  0.0000 </r>
        <r>  0.0007  0.0088  0.0001  0.0035  0.0000  0.0000  0.0000  0.0000  0.0000 </r>
        <r>  0.0095  0.0018  0.0000  0.0022  0.0000  0.0000  0.0000  0.0000  0.0000 </r>
        <r>  0.0095  0.0018  0.0008  0.0001  0.0000  0.0000  0.0000  0.0000  0.0000 </r>
        <r>  0.0007  0.0163  0.0001  0.0008  0.0000  0.0000  0.0000  0.0000  0.0000 </r>
       </set>
       <set comment="band 68">
        <r>  0.0009  0.0043  0.0000  0.0007  0.0000  0.0007  0.0008  0.0000  0.0000 </r>
        <r>  0.0010  0.0043  0.0000  0.0007  0.0000  0.0007  0.0007  0.0000  0.0000 </r>
        <r>  0.0003  0.0042  0.0000  0.0003  0.0002  0.0008  0.0007  0.0000  0.0007 </r>
        <r>  0.0002  0.0042  0.0000  0.0003  0.0002  0.0009  0.0009  0.0000  0.0006 </r>
        <r>  0.0065  0.0015  0.0182  0.0558  0.0000  0.0003  0.0012  0.0008  0.0034 </r>
        <r>  0.0095  0.0001  0.0199  0.0521  0.0000  0.0003  0.0015  0.0007  0.0028 </r>
        <r>  0.0358  0.0030  0.0000  0.0386  0.0000  0.0000  0.0000  0.0005  0.0021 </r>
        <r>  0.0298  0.0067  0.0001  0.0418  0.0001  0.0000  0.0000  0.0006  0.0026 </r>
        <r>  0.0001  0.0000  0.0054  0.0000  0.0000  0.0000  0.0000  0.0000  0.0000 </r>
        <r>  0.0001  0.0017  0.0006  0.0000  0.0000  0.0000  0.0000  0.0000  0.0000 </r>
        <r>  0.0191  0.0003  0.0037  0.0000  0.0000  0.0000  0.0000  0.0000  0.0000 </r>
        <r>  0.0022  0.0004  0.0031  0.0214  0.0000  0.0000  0.0000  0.0000  0.0000 </r>
        <r>  0.0022  0.0004  0.0034  0.0206  0.0000  0.0000  0.0000  0.0000  0.0000 </r>
        <r>  0.0191  0.0000  0.0036  0.0001  0.0000  0.0000  0.0000  0.0000  0.0000 </r>
       </set>
       <set comment="band 69">
        <r>  0.0000  0.0004  0.0020  0.0020  0.0006  0.0000  0.0001  0.0005  0.0015 </r>
        <r>  0.0007  0.0002  0.0025  0.0021  0.0003  0.0002  0.0008  0.0003  0.0002 </r>
        <r>  0.0000  0.0003  0.0020  0.0022  0.0004  0.0001  0.0007  0.0006  0.0009 </r>
        <r>  0.0016  0.0005  0.0026  0.0023  0.0002  0.0000  0.0001  0.0002  0.0000 </r>
        <r>  0.0543  0.0097  0.0102  0.0003  0.0001  0.0001  0.0001  0.0000  0.0005 </r>
        <r>  0.0013  0.0471  0.0287  0.0058  0.0007  0.0004  0.0035  0.0001  0.0015 </r>
        <r>  0.0242  0.0157  0.0191  0.0202  0.0002  0.0003  0.0003  0.0003  0.0028 </r>
        <r>  0.0017  0.0362  0.0425  0.0023  0.0005  0.0006  0.0049  0.0000  0.0001 </r>
        <r>  0.0102  0.0022  0.0092  0.0019  0.0000  0.0000  0.0000  0.0000  0.0000 </r>
        <r>  0.0102  0.0012  0.0121  0.0019  0.0000  0.0000  0.0000  0.0000  0.0000 </r>
        <r>  0.0016  0.0151  0.0003  0.0007  0.0000  0.0000  0.0000  0.0000  0.0000 </r>
        <r>  0.0096  0.0018  0.0011  0.0006  0.0000  0.0000  0.0000  0.0000  0.0000 </r>
        <r>  0.0096  0.0018  0.0000  0.0035  0.0000  0.0000  0.0000  0.0000  0.0000 </r>
        <r>  0.0016  0.0078  0.0003  0.0033  0.0000  0.0000  0.0000  0.0000  0.0000 </r>
       </set>
       <set comment="band 70">
        <r>  0.0014  0.0017  0.0017  0.0017  0.0008  0.0008  0.0000  0.0008  0.0000 </r>
        <r>  0.0014  0.0017  0.0017  0.0017  0.0008  0.0008  0.0000  0.0008  0.0000 </r>
        <r>  0.0014  0.0017  0.0017  0.0017  0.0008  0.0008  0.0000  0.0008  0.0000 </r>
        <r>  0.0014  0.0017  0.0017  0.0017  0.0008  0.0008  0.0000  0.0008  0.0000 </r>
        <r>  0.0497  0.0127  0.0127  0.0127  0.0005  0.0005  0.0000  0.0005  0.0000 </r>
        <r>  0.0498  0.0127  0.0127  0.0127  0.0005  0.0005  0.0000  0.0005  0.0000 </r>
        <r>  0.0498  0.0127  0.0127  0.0127  0.0005  0.0005  0.0000  0.0005  0.0000 </r>
        <r>  0.0498  0.0127  0.0127  0.0127  0.0005  0.0005  0.0000  0.0005  0.0000 </r>
        <r>  0.0077  0.0000  0.0000  0.0168  0.0000  0.0000  0.0000  0.0000  0.0000 </r>
        <r>  0.0077  0.0000  0.0000  0.0168  0.0000  0.0000  0.0000  0.0000  0.0000 </r>
        <r>  0.0077  0.0000  0.0168  0.0000  0.0000  0.0000  0.0000  0.0000  0.0000 </r>
        <r>  0.0077  0.0168  0.0000  0.0000  0.0000  0.0000  0.0000  0.0000  0.0000 </r>
        <r>  0.0077  0.0168  0.0000  0.0000  0.0000  0.0000  0.0000  0.0000  0.0000 </r>
        <r>  0.0077  0.0000  0.0168  0.0000  0.0000  0.0000  0.0000  0.0000  0.0000 </r>
       </set>
       <set comment="band 71">
        <r>  0.0269  0.0006  0.0006  0.0006  0.0001  0.0001  0.0000  0.0001  0.0000 </r>
        <r>  0.0270  0.0006  0.0006  0.0006  0.0001  0.0001  0.0000  0.0001  0.0000 </r>
        <r>  0.0269  0.0006  0.0006  0.0006  0.0001  0.0001  0.0000  0.0001  0.0000 </r>
        <r>  0.0269  0.0006  0.0006  0.0006  0.0001  0.0001  0.0000  0.0001  0.0000 </r>
        <r>  0.0218  0.0050  0.0050  0.0050  0.0000  0.0000  0.0000  0.0000  0.0000 </r>
        <r>  0.0218  0.0050  0.0050  0.0050  0.0000  0.0000  0.0000  0.0000  0.0000 </r>
        <r>  0.0218  0.0050  0.0050  0.0050  0.0000  0.0000  0.0000  0.0000  0.0000 </r>
        <r>  0.0218  0.0050  0.0050  0.0050  0.0000  0.0000  0.0000  0.0000  0.0000 </r>
        <r>  0.0056  0.0000  0.0000  0.0019  0.0000  0.0000  0.0000  0.0000  0.0000 </r>
        <r>  0.0056  0.0000  0.0000  0.0019  0.0000  0.0000  0.0000  0.0000  0.0000 </r>
        <r>  0.0056  0.0000  0.0019  0.0000  0.0000  0.0000  0.0000  0.0000  0.0000 </r>
        <r>  0.0056  0.0019  0.0000  0.0000  0.0000  0.0000  0.0000  0.0000  0.0000 </r>
        <r>  0.0056  0.0019  0.0000  0.0000  0.0000  0.0000  0.0000  0.0000  0.0000 </r>
        <r>  0.0056  0.0000  0.0019  0.0000  0.0000  0.0000  0.0000  0.0000  0.0000 </r>
       </set>
       <set comment="band 72">
        <r>  0.0032  0.0000  0.0000  0.0024  0.0009  0.0011  0.0140  0.0025  0.0039 </r>
        <r>  0.0152  0.0000  0.0012  0.0023  0.0022  0.0000  0.0087  0.0004  0.0005 </r>
        <r>  0.0167  0.0001  0.0012  0.0024  0.0020  0.0000  0.0080  0.0004  0.0003 </r>
        <r>  0.0027  0.0001  0.0000  0.0023  0.0011  0.0009  0.0149  0.0026  0.0033 </r>
        <r>  0.0000  0.0011  0.0033  0.0117  0.0023  0.0000  0.0013  0.0000  0.0042 </r>
        <r>  0.0001  0.0021  0.0002  0.0056  0.0030  0.0002  0.0000  0.0013  0.0025 </r>
        <r>  0.0001  0.0026  0.0002  0.0059  0.0029  0.0001  0.0001  0.0012  0.0028 </r>
        <r>  0.0000  0.0008  0.0036  0.0114  0.0024  0.0000  0.0015  0.0000  0.0039 </r>
        <r>  0.0003  0.0000  0.0003  0.0082  0.0000  0.0000  0.0000  0.0000  0.0000 </r>
        <r>  0.0003  0.0000  0.0006  0.0082  0.0000  0.0000  0.0000  0.0000  0.0000 </r>
        <r>  0.0000  0.0246  0.0013  0.0226  0.0000  0.0000  0.0000  0.0000  0.0000 </r>
        <r>  0.0000  0.0000  0.0036  0.0134  0.0000  0.0000  0.0000  0.0000  0.0000 </r>
        <r>  0.0000  0.0000  0.0036  0.0001  0.0000  0.0000  0.0000  0.0000  0.0000 </r>
        <r>  0.0000  0.0256  0.0013  0.0226  0.0000  0.0000  0.0000  0.0000  0.0000 </r>
       </set>
       <set comment="band 73">
        <r>  0.0231  0.0026  0.0010  0.0006  0.0001  0.0003  0.0036  0.0010  0.0002 </r>
        <r>  0.0128  0.0026  0.0006  0.0000  0.0008  0.0001  0.0110  0.0021  0.0000 </r>
        <r>  0.0019  0.0011  0.0007  0.0006  0.0011  0.0034  0.0003  0.0002  0.0185 </r>
        <r>  0.0000  0.0011  0.0011  0.0000  0.0024  0.0026  0.0038  0.0000  0.0163 </r>
        <r>  0.0000  0.0102  0.0071  0.0002  0.0000  0.0012  0.0046  0.0007  0.0015 </r>
        <r>  0.0000  0.0071  0.0088  0.0006  0.0004  0.0014  0.0055  0.0004  0.0002 </r>
        <r>  0.0001  0.0056  0.0006  0.0039  0.0000  0.0027  0.0000  0.0012  0.0034 </r>
        <r>  0.0002  0.0034  0.0002  0.0005  0.0008  0.0030  0.0000  0.0016  0.0011 </r>
        <r>  0.0000  0.0170  0.0287  0.0004  0.0000  0.0000  0.0000  0.0000  0.0000 </r>
        <r>  0.0000  0.0171  0.0114  0.0004  0.0000  0.0000  0.0000  0.0000  0.0000 </r>
        <r>  0.0001  0.0001  0.0029  0.0010  0.0000  0.0000  0.0000  0.0000  0.0000 </r>
        <r>  0.0002  0.0062  0.0081  0.0070  0.0000  0.0000  0.0000  0.0000  0.0000 </r>
        <r>  0.0002  0.0062  0.0080  0.0112  0.0000  0.0000  0.0000  0.0000  0.0000 </r>
        <r>  0.0001  0.0063  0.0029  0.0010  0.0000  0.0000  0.0000  0.0000  0.0000 </r>
       </set>
       <set comment="band 74">
        <r>  0.0021  0.0003  0.0020  0.0000  0.0025  0.0022  0.0026  0.0001  0.0160 </r>
        <r>  0.0002  0.0003  0.0011  0.0007  0.0005  0.0034  0.0004  0.0010  0.0196 </r>
        <r>  0.0098  0.0019  0.0011  0.0000  0.0004  0.0001  0.0119  0.0030  0.0013 </r>
        <r>  0.0257  0.0018  0.0019  0.0007  0.0000  0.0000  0.0014  0.0009  0.0005 </r>
        <r>  0.0002  0.0007  0.0017  0.0002  0.0011  0.0022  0.0002  0.0026  0.0004 </r>
        <r>  0.0001  0.0029  0.0031  0.0058  0.0000  0.0018  0.0006  0.0017  0.0034 </r>
        <r>  0.0000  0.0039  0.0112  0.0024  0.0004  0.0005  0.0061  0.0010  0.0000 </r>
        <r>  0.0000  0.0079  0.0083  0.0002  0.0002  0.0003  0.0046  0.0017  0.0011 </r>
        <r>  0.0000  0.0091  0.0034  0.0009  0.0000  0.0000  0.0000  0.0000  0.0000 </r>
        <r>  0.0000  0.0090  0.0203  0.0009  0.0000  0.0000  0.0000  0.0000  0.0000 </r>
        <r>  0.0002  0.0075  0.0053  0.0026  0.0000  0.0000  0.0000  0.0000  0.0000 </r>
        <r>  0.0001  0.0033  0.0146  0.0120  0.0000  0.0000  0.0000  0.0000  0.0000 </r>
        <r>  0.0001  0.0033  0.0145  0.0210  0.0000  0.0000  0.0000  0.0000  0.0000 </r>
        <r>  0.0002  0.0004  0.0053  0.0026  0.0000  0.0000  0.0000  0.0000  0.0000 </r>
       </set>
       <set comment="band 75">
        <r>  0.0000  0.0003  0.0017  0.0006  0.0001  0.0021  0.0269  0.0012  0.0436 </r>
        <r>  0.0000  0.0003  0.0017  0.0006  0.0001  0.0021  0.0268  0.0012  0.0436 </r>
        <r>  0.0000  0.0003  0.0017  0.0006  0.0001  0.0021  0.0269  0.0012  0.0436 </r>
        <r>  0.0000  0.0003  0.0017  0.0006  0.0001  0.0021  0.0268  0.0012  0.0436 </r>
        <r>  0.0000  0.0010  0.0017  0.0053  0.0003  0.0001  0.0002  0.0006  0.0002 </r>
        <r>  0.0000  0.0010  0.0017  0.0053  0.0003  0.0001  0.0002  0.0006  0.0002 </r>
        <r>  0.0000  0.0010  0.0017  0.0053  0.0003  0.0001  0.0002  0.0006  0.0002 </r>
        <r>  0.0000  0.0010  0.0017  0.0053  0.0003  0.0001  0.0002  0.0006  0.0002 </r>
        <r>  0.0015  0.0000  0.0000  0.0000  0.0000  0.0000  0.0000  0.0000  0.0000 </r>
        <r>  0.0015  0.0000  0.0000  0.0000  0.0000  0.0000  0.0000  0.0000  0.0000 </r>
        <r>  0.0099  0.0000  0.0005  0.0000  0.0000  0.0000  0.0000  0.0000  0.0000 </r>
        <r>  0.0037  0.0006  0.0000  0.0000  0.0000  0.0000  0.0000  0.0000  0.0000 </r>
        <r>  0.0037  0.0006  0.0000  0.0000  0.0000  0.0000  0.0000  0.0000  0.0000 </r>
        <r>  0.0099  0.0000  0.0005  0.0000  0.0000  0.0000  0.0000  0.0000  0.0000 </r>
       </set>
       <set comment="band 76">
        <r>  0.0000  0.0014  0.0000  0.0012  0.0022  0.0002  0.0436  0.0011  0.0269 </r>
        <r>  0.0000  0.0014  0.0000  0.0012  0.0022  0.0002  0.0436  0.0011  0.0268 </r>
        <r>  0.0000  0.0014  0.0000  0.0012  0.0022  0.0002  0.0436  0.0011  0.0269 </r>
        <r>  0.0000  0.0014  0.0000  0.0012  0.0022  0.0002  0.0436  0.0011  0.0269 </r>
        <r>  0.0000  0.0043  0.0036  0.0000  0.0004  0.0006  0.0002  0.0000  0.0002 </r>
        <r>  0.0000  0.0043  0.0036  0.0000  0.0004  0.0006  0.0002  0.0000  0.0002 </r>
        <r>  0.0000  0.0043  0.0036  0.0000  0.0004  0.0006  0.0002  0.0000  0.0002 </r>
        <r>  0.0000  0.0043  0.0036  0.0000  0.0004  0.0006  0.0002  0.0000  0.0002 </r>
        <r>  0.0086  0.0000  0.0000  0.0007  0.0000  0.0000  0.0000  0.0000  0.0000 </r>
        <r>  0.0086  0.0000  0.0000  0.0007  0.0000  0.0000  0.0000  0.0000  0.0000 </r>
        <r>  0.0002  0.0000  0.0003  0.0000  0.0000  0.0000  0.0000  0.0000  0.0000 </r>
        <r>  0.0063  0.0001  0.0000  0.0000  0.0000  0.0000  0.0000  0.0000  0.0000 </r>
        <r>  0.0063  0.0001  0.0000  0.0000  0.0000  0.0000  0.0000  0.0000  0.0000 </r>
        <r>  0.0002  0.0000  0.0003  0.0000  0.0000  0.0000  0.0000  0.0000  0.0000 </r>
       </set>
       <set comment="band 77">
        <r>  0.0002  0.0000  0.0001  0.0001  0.0111  0.0086  0.0001  0.0128  0.0005 </r>
        <r>  0.0000  0.0001  0.0000  0.0002  0.0012  0.0000  0.0002  0.0004  0.0010 </r>
        <r>  0.0003  0.0000  0.0001  0.0001  0.0172  0.0144  0.0000  0.0182  0.0003 </r>
        <r>  0.0000  0.0000  0.0000  0.0002  0.0036  0.0011  0.0004  0.0018  0.0007 </r>
        <r>  0.0003  0.0000  0.0065  0.0509  0.0011  0.0006  0.0104  0.0010  0.0056 </r>
        <r>  0.0026  0.0019  0.0243  0.0434  0.0008  0.0007  0.0000  0.0034  0.0045 </r>
        <r>  0.0001  0.0054  0.0056  0.0451  0.0003  0.0011  0.0071  0.0011  0.0102 </r>
        <r>  0.0017  0.0008  0.0262  0.0380  0.0002  0.0003  0.0004  0.0036  0.0087 </r>
        <r>  0.0009  0.0006  0.0000  0.0001  0.0000  0.0000  0.0000  0.0000  0.0000 </r>
        <r>  0.0009  0.0033  0.0001  0.0001  0.0000  0.0000  0.0000  0.0000  0.0000 </r>
        <r>  0.0001  0.0004  0.0000  0.0532  0.0000  0.0000  0.0000  0.0000  0.0000 </r>
        <r>  0.0027  0.0004  0.0191  0.0002  0.0000  0.0000  0.0000  0.0000  0.0000 </r>
        <r>  0.0027  0.0004  0.0174  0.0002  0.0000  0.0000  0.0000  0.0000  0.0000 </r>
        <r>  0.0001  0.0009  0.0000  0.0622  0.0000  0.0000  0.0000  0.0000  0.0000 </r>
       </set>
       <set comment="band 78">
        <r>  0.0001  0.0001  0.0001  0.0001  0.0030  0.0064  0.0003  0.0049  0.0007 </r>
        <r>  0.0001  0.0000  0.0002  0.0000  0.0046  0.0048  0.0008  0.0080  0.0001 </r>
        <r>  0.0000  0.0000  0.0001  0.0001  0.0001  0.0001  0.0011  0.0003  0.0002 </r>
        <r>  0.0004  0.0000  0.0001  0.0000  0.0179  0.0195  0.0002  0.0206  0.0000 </r>
        <r>  0.0030  0.0147  0.0470  0.0104  0.0007  0.0028  0.0024  0.0018  0.0000 </r>
        <r>  0.0000  0.0018  0.0366  0.0174  0.0011  0.0013  0.0175  0.0000  0.0002 </r>
        <r>  0.0009  0.0033  0.0528  0.0046  0.0001  0.0011  0.0087  0.0021  0.0043 </r>
        <r>  0.0007  0.0183  0.0316  0.0096  0.0000  0.0031  0.0077  0.0000  0.0063 </r>
        <r>  0.0026  0.0088  0.0000  0.0004  0.0000  0.0000  0.0000  0.0000  0.0000 </r>
        <r>  0.0025  0.0120  0.0002  0.0004  0.0000  0.0000  0.0000  0.0000  0.0000 </r>
        <r>  0.0005  0.0004  0.0001  0.0170  0.0000  0.0000  0.0000  0.0000  0.0000 </r>
        <r>  0.0006  0.0001  0.0507  0.0004  0.0000  0.0000  0.0000  0.0000  0.0000 </r>
        <r>  0.0006  0.0001  0.0576  0.0008  0.0000  0.0000  0.0000  0.0000  0.0000 </r>
        <r>  0.0005  0.0000  0.0001  0.0095  0.0000  0.0000  0.0000  0.0000  0.0000 </r>
       </set>
       <set comment="band 79">
        <r>  0.0001  0.0001  0.0001  0.0001  0.0088  0.0077  0.0008  0.0049  0.0000 </r>
        <r>  0.0003  0.0001  0.0000  0.0000  0.0167  0.0174  0.0002  0.0138  0.0001 </r>
        <r>  0.0001  0.0002  0.0000  0.0000  0.0053  0.0082  0.0001  0.0043  0.0007 </r>
        <r>  0.0000  0.0002  0.0001  0.0000  0.0012  0.0019  0.0006  0.0002  0.0005 </r>
        <r>  0.0002  0.0470  0.0086  0.0007  0.0018  0.0001  0.0048  0.0007  0.0120 </r>
        <r>  0.0009  0.0583  0.0011  0.0012  0.0016  0.0016  0.0002  0.0002  0.0129 </r>
        <r>  0.0025  0.0533  0.0037  0.0125  0.0031  0.0014  0.0018  0.0004  0.0031 </r>
        <r>  0.0011  0.0431  0.0041  0.0147  0.0034  0.0001  0.0095  0.0000  0.0026 </r>
        <r>  0.0002  0.0683  0.0008  0.0000  0.0000  0.0000  0.0000  0.0000  0.0000 </r>
        <r>  0.0002  0.0628  0.0006  0.0000  0.0000  0.0000  0.0000  0.0000  0.0000 </r>
        <r>  0.0031  0.0001  0.0004  0.0078  0.0000  0.0000  0.0000  0.0000  0.0000 </r>
        <r>  0.0003  0.0000  0.0078  0.0002  0.0000  0.0000  0.0000  0.0000  0.0000 </r>
        <r>  0.0003  0.0001  0.0029  0.0000  0.0000  0.0000  0.0000  0.0000  0.0000 </r>
        <r>  0.0031  0.0000  0.0005  0.0062  0.0000  0.0000  0.0000  0.0000  0.0000 </r>
       </set>
       <set comment="band 80">
        <r>  0.0017  0.0001  0.0002  0.0010  0.0253  0.0221  0.0095  0.0124  0.0025 </r>
        <r>  0.0040  0.0001  0.0004  0.0015  0.0108  0.0028  0.0065  0.0230  0.0012 </r>
        <r>  0.0019  0.0001  0.0004  0.0013  0.0388  0.0073  0.0101  0.0034  0.0018 </r>
        <r>  0.0041  0.0003  0.0006  0.0019  0.0222  0.0001  0.0077  0.0136  0.0003 </r>
        <r>  0.0008  0.0071  0.0015  0.0100  0.0000  0.0011  0.0011  0.0024  0.0010 </r>
        <r>  0.0006  0.0019  0.0036  0.0100  0.0006  0.0002  0.0006  0.0039  0.0026 </r>
        <r>  0.0016  0.0110  0.0021  0.0141  0.0002  0.0018  0.0013  0.0011  0.0010 </r>
        <r>  0.0008  0.0026  0.0021  0.0136  0.0016  0.0009  0.0007  0.0021  0.0027 </r>
        <r>  0.0026  0.0024  0.0008  0.0219  0.0000  0.0000  0.0000  0.0000  0.0000 </r>
        <r>  0.0032  0.0017  0.0008  0.0293  0.0000  0.0000  0.0000  0.0000  0.0000 </r>
        <r>  0.0005  0.0115  0.0060  0.0235  0.0000  0.0000  0.0000  0.0000  0.0000 </r>
        <r>  0.0001  0.0008  0.0050  0.0017  0.0000  0.0000  0.0000  0.0000  0.0000 </r>
        <r>  0.0004  0.0034  0.0053  0.0017  0.0000  0.0000  0.0000  0.0000  0.0000 </r>
        <r>  0.0003  0.0101  0.0020  0.0296  0.0000  0.0000  0.0000  0.0000  0.0000 </r>
       </set>
      </set>
     </set>
    </set>
   </array>
  </projected>
 </calculation>
 <structure name="finalpos" >
  <crystal>
   <varray name="basis" >
    <v>      -4.25710800       4.25710800       4.25710800 </v>
    <v>       4.25710800      -4.25710800       4.25710800 </v>
    <v>       4.25710800       4.25710800      -4.25710800 </v>
   </varray>
   <i name="volume">    308.60573714 </i>
   <varray name="rec_basis" >
    <v>       0.00000000       0.11745063       0.11745063 </v>
    <v>       0.11745063       0.00000000       0.11745063 </v>
    <v>       0.11745063       0.11745063       0.00000000 </v>
   </varray>
  </crystal>
  <varray name="positions" >
   <v>       0.48190000       0.50000000       0.00000000 </v>
   <v>       0.01810000       0.01810000       0.01810000 </v>
   <v>       0.00000000       0.48190000       0.50000000 </v>
   <v>       0.50000000       0.00000000       0.48190000 </v>
   <v>       0.50000000       0.00000000       0.01162300 </v>
   <v>       0.00000000       0.01162300       0.50000000 </v>
   <v>       0.48837700       0.48837700       0.48837700 </v>
   <v>       0.01162300       0.50000000       0.00000000 </v>
   <v>       0.75000000       0.97927300       0.22927300 </v>
   <v>       0.25000000       0.52072700       0.27072700 </v>
   <v>       0.97927300       0.22927300       0.75000000 </v>
   <v>       0.22927300       0.75000000       0.97927300 </v>
   <v>       0.27072700       0.25000000       0.52072700 </v>
   <v>       0.52072700       0.27072700       0.25000000 </v>
  </varray>
 </structure>
</modeling>
