
Running Job 1 of 1 mol.qin
qchem mol.qin_230979.0 /tmp/scratch/ 0
/clusterfs/mp/software/qchem6.0/exe/qcprog.exe_s mol.qin_230979.0 /tmp/scratch/
                  Welcome to Q-Chem
     A Quantum Leap Into The Future Of Chemistry


 Q-Chem 6.0, Q-Chem, Inc., Pleasanton, CA (2022)

 E. Epifanovsky,  A. T. B. Gilbert,  Xintian Feng,  Joonho Lee,  Yuezhi Mao,  
 N. Mardirossian,  P. Pokhilko,  A. White,  M. Wormit,  M. P. Coons,  
 A. L. Dempwolff,  Zhengting Gan,  D. Hait,  P. R. Horn,  L. D. Jacobson,  
 I. Kaliman,  J. Kussmann,  A. W. Lange,  Ka Un Lao,  D. S. Levine,  Jie Liu,  
 S. C. McKenzie,  A. F. Morrison,  K. Nanda,  F. Plasser,  D. R. Rehn,  
 M. L. Vidal,  Zhi-Qiang You,  Ying Zhu,  B. Alam,  B. Albrecht,  
 A. Aldossary,  E. Alguire,  J. H. Andersen,  V. Athavale,  D. Barton,  
 K. Begam,  A. Behn,  N. Bellonzi,  Y. A. Bernard,  E. J. Berquist,  
 H. Burton,  A. Carreras,  K. Carter-Fenk,  Romit Chakraborty,  
 Chandrima Chakravarty,  Junhan Chen,  A. D. Chien,  K. D. Closser,  
 V. Cofer-Shabica,  L. Cunha,  S. Dasgupta,  Jia Deng,  M. de Wergifosse,  
 M. Diedenhofen,  Hainam Do,  S. Ehlert,  Po-Tung Fang,  S. Fatehi,  
 Qingguo Feng,  T. Friedhoff,  B. Ganoe,  J. Gayvert,  Qinghui Ge,  
 G. Gidofalvi,  M. Goldey,  J. Gomes,  C. Gonzalez-Espinoza,  S. Gulania,  
 A. Gunina,  J. A. Gyamfi,  M. W. D. Hanson-Heine,  P. H. P. Harbach,  
 A. W. Hauser,  M. F. Herbst,  M. Hernandez Vera,  M. Hodecker,  
 Z. C. Holden,  S. Houck,  Xunkun Huang,  Kerwin Hui,  B. C. Huynh,  
 K. Ikeda,  M. Ivanov,  Hyunjun Ji,  Zuxin Jin,  Hanjie Jiang,  B. Kaduk,  
 S. Kaehler,  R. Kang,  K. Khistyaev,  Jaehoon Kim,  Yongbin Kim,  
 P. Klunzinger,  Z. Koczor-Benda,  Joong Hoon Koh,  D. Kosenkov,  
 Saikiran Kotaru,  L. Koulias,  T. Kowalczyk,  C. M. Krauter,  K. Kue,  
 A. Kunitsa,  T. Kus,  A. Landau,  K. V. Lawler,  D. Lefrancois,  S. Lehtola,  
 Rain Li,  Shaozhi Li,  Yi-Pei Li,  Jiashu Liang,  M. Liebenthal,  
 Hung-Hsuan Lin,  You-Sheng Lin,  Fenglai Liu,  Kuan-Yu Liu,  
 M. Loipersberger,  A. Luenser,  C. Malbon,  A. Manjanath,  P. Manohar,  
 E. Mansoor,  S. F. Manzer,  Shan-Ping Mao,  A. V. Marenich,  T. Markovich,  
 S. Mason,  F. Matz,  S. A. Maurer,  P. F. McLaughlin,  M. F. S. J. Menger,  
 J.-M. Mewes,  S. A. Mewes,  P. Morgante,  Mohammad Mostafanejad,  
 J. W. Mullinax,  K. J. Oosterbaan,  G. Paran,  V. Parravicini,  
 Alexander C. Paul,  Suranjan K. Paul,  F. Pavosevic,  Zheng Pei,  S. Prager,  
 E. I. Proynov,  E. Ramos,  B. Rana,  A. E. Rask,  A. Rettig,  R. M. Richard,  
 F. Rob,  E. Rossomme,  T. Scheele,  M. Scheurer,  M. Schneider,  
 P. E. Schneider,  N. Sergueev,  S. M. Sharada,  Hengyuan Shen,  
 W. Skomorowski,  D. W. Small,  C. J. Stein,  Yingli Su,  Yu-Chuan Su,  
 E. J. Sundstrom,  Zhen Tao,  J. Thirman,  Hung-Yi Tsai,  T. Tsuchimochi,  
 N. M. Tubman,  C. Utku,  S. P. Veccham,  O. Vydrov,  J. Wenzel,  
 Jonathan Wong,  J. Witte,  A. Yamada,  Chou-Hsun Yang,  Kun Yao,  
 S. Yeganeh,  S. R. Yost,  A. Zech,  F. Zeller,  Igor Ying Zhang,  
 Xing Zhang,  Yu Zhang,  D. Zuev,  A. Aspuru-Guzik,  A. T. Bell,  
 N. A. Besley,  K. B. Bravaya,  B. R. Brooks,  D. Casanova,  Jeng-Da Chai,  
 Hsing-Ta Chen,  S. Coriani,  C. J. Cramer,  A. E. DePrince, III,  
 R. A. DiStasio Jr.,  A. Dreuw,  B. D. Dunietz,  T. R. Furlani,  
 W. A. Goddard III,  S. Grimme,  S. Hammes-Schiffer,  T. Head-Gordon,  
 W. J. Hehre,  Chao-Ping Hsu,  T.-C. Jagau,  Yousung Jung,  A. Klamt,  
 Jing Kong,  D. S. Lambrecht,  Xiangyuan Li,  WanZhen Liang,  N. J. Mayhall,  
 C. W. McCurdy,  J. B. Neaton,  T. Neudecker,  C. Ochsenfeld,  
 J. A. Parkhill,  R. Peverati,  V. A. Rassolov,  Haisheng Ren,  Yihan Shao,  
 L. V. Slipchenko,  R. P. Steele,  J. E. Subotnik,  A. J. W. Thom,  
 A. Tkatchenko,  D. G. Truhlar,  T. Van Voorhis,  Fan Wang,  
 T. A. Wesolowski,  K. B. Whaley,  H. L. Woodcock III,  P. M. Zimmerman,  
 S. Faraji,  P. M. W. Gill,  M. Head-Gordon,  J. M. Herbert,  A. I. Krylov

 Contributors to earlier versions of Q-Chem not listed above: 
 R. D. Adamson,  B. Austin,  R. Baer,  J. Baker,  G. J. O. Beran,  
 K. Brandhorst,  S. T. Brown,  E. F. C. Byrd,  Arup K. Chakraborty,  
 G. K. L. Chan,  Chun-Min Chang,  Yunqing Chen,  C.-L. Cheng,  
 Siu Hung Chien,  D. M. Chipman,  D. L. Crittenden,  H. Dachsel,  
 R. J. Doerksen,  A. D. Dutoi,  R. G. Edgar,  J. Fosso-Tande,  
 L. Fusti-Molnar,  D. Ghosh,  A. Ghysels,  A. Golubeva-Zadorozhnaya,  
 J. Gonthier,  M. S. Gordon,  S. R. Gwaltney,  G. Hawkins,  J. E. Herr,  
 A. Heyden,  S. Hirata,  E. G. Hohenstein,  G. Kedziora,  F. J. Keil,  
 C. Kelley,  Jihan Kim,  R. A. King,  R. Z. Khaliullin,  P. P. Korambath,  
 W. Kurlancheek,  A. Laurent,  A. M. Lee,  M. S. Lee,  S. V. Levchenko,  
 Ching Yeh Lin,  D. Liotard,  E. Livshits,  R. C. Lochan,  I. Lotan,  
 L. A. Martinez-Martinez,  P. E. Maslen,  N. Nair,  D. P. O'Neill,  
 D. Neuhauser,  E. Neuscamman,  C. M. Oana,  R. Olivares-Amaya,  R. Olson,  
 T. M. Perrine,  B. Peters,  P. A. Pieniazek,  A. Prociuk,  Y. M. Rhee,  
 J. Ritchie,  M. A. Rohrdanz,  E. Rosta,  N. J. Russ,  H. F. Schaefer III,  
 M. W. Schmidt,  N. E. Schultz,  S. Sharma,  N. Shenvi,  C. D. Sherrill,  
 A. C. Simmonett,  A. Sodt,  T. Stein,  D. Stuck,  K. S. Thanthiriwatte,  
 V. Vanovschi,  L. Vogt,  Tao Wang,  A. Warshel,  M. A. Watson,  
 C. F. Williams,  Q. Wu,  X. Xu,  Jun Yang,  W. Zhang,  Yan Zhao

   Please cite Q-Chem as follows:
  "Software for the frontiers of quantum chemistry:
   An overview of developments in the Q-Chem 5 package"
   J. Chem. Phys. 155, 084801 (2021)
   https://doi.org/10.1063/5.0055522 (open access)

 Q-Chem 6.0.2 for Intel X86 EM64T Linux

 Parts of Q-Chem use Armadillo 9.900.5 (Nocturnal Misbehaviour).
 http://arma.sourceforge.net/

 Q-Chem begins on Fri Dec 23 08:25:33 2022  

 Host: 
0

     Scratch files written to /tmp/scratch//
 Dec722 |scratch|qcdevops|jenkins|workspace|build_RNUM -1
 Processing $rem in /clusterfs/mp/software/qchem6.0/config/preferences:
 Processing $rem in /global/home/users/smblau/.qchemrc:
 Symmetry turned off for PCM/SM12/SMD calculation

 Checking the input file for inconsistencies... 	...done.
 Reading auxiliary files from /clusterfs/mp/software/qchem6.0/qcaux (QCAUX)

--------------------------------------------------------------
User input:
--------------------------------------------------------------
$molecule
0 3
Ni     -1.8682000000      2.3072000000      5.1235000000
S     -3.6919000000      3.1368000000      6.1126000000
N     -0.8026000000      3.5955000000      6.5021000000
H     -0.1140000000      3.0689000000      7.0512000000
H     -0.2749000000      4.2751000000      5.9396000000
N     -1.6162000000      4.3303000000      7.4160000000
N     -3.7322000000      4.8417000000      8.0960000000
H     -4.7165000000      4.7293000000      7.9269000000
C     -2.8846000000      4.1812000000      7.2902000000
C     -3.2583000000      5.7554000000      9.1029000000
H     -2.6430000000      6.5323000000      8.6440000000
H     -4.1028000000      6.2091000000      9.6123000000
H     -2.6383000000      5.2197000000      9.8239000000
S     -0.0445000000      1.4776000000      4.1344000000
C     -0.8520000000      0.4332000000      2.9568000000
N     -2.1204000000      0.2841000000      2.8310000000
N     -2.9332000000      1.0188000000      3.7449000000
H     -3.6227000000      1.5457000000      3.1956000000
H     -3.4618000000      0.3391000000      4.3076000000
N     -0.0041000000     -0.2271000000      2.1513000000
H      0.9799000000     -0.1149000000      2.3200000000
C     -0.4781000000     -1.1407000000      1.1442000000
H     -1.0938000000     -1.9182000000      1.6032000000
H      0.3666000000     -1.5949000000      0.6345000000
H     -1.0984000000     -0.6051000000      0.4229000000
$end

$rem
job_type = force
basis = def2-svpd
max_scf_cycles = 100
gen_scfman = true
xc_grid = 3
thresh = 14
s2thresh = 16
scf_algorithm = gdm
scf_convergence = 6
resp_charges = false
symmetry = false
sym_ignore = true
method = wb97mv
ecp = def2-ecp
solvent_method = pcm
$end

$pcm
heavypoints 194
hpoints 194
radii uff
theory cpcm
vdwscale 1.1
$end

$solvent
dielectric 3.0
$end
--------------------------------------------------------------
 ----------------------------------------------------------------
             Standard Nuclear Orientation (Angstroms)
    I     Atom           X                Y                Z
 ----------------------------------------------------------------
    1      Ni     -1.8682000000     2.3072000000     5.1235000000
    2      S      -3.6919000000     3.1368000000     6.1126000000
    3      N      -0.8026000000     3.5955000000     6.5021000000
    4      H      -0.1140000000     3.0689000000     7.0512000000
    5      H      -0.2749000000     4.2751000000     5.9396000000
    6      N      -1.6162000000     4.3303000000     7.4160000000
    7      N      -3.7322000000     4.8417000000     8.0960000000
    8      H      -4.7165000000     4.7293000000     7.9269000000
    9      C      -2.8846000000     4.1812000000     7.2902000000
   10      C      -3.2583000000     5.7554000000     9.1029000000
   11      H      -2.6430000000     6.5323000000     8.6440000000
   12      H      -4.1028000000     6.2091000000     9.6123000000
   13      H      -2.6383000000     5.2197000000     9.8239000000
   14      S      -0.0445000000     1.4776000000     4.1344000000
   15      C      -0.8520000000     0.4332000000     2.9568000000
   16      N      -2.1204000000     0.2841000000     2.8310000000
   17      N      -2.9332000000     1.0188000000     3.7449000000
   18      H      -3.6227000000     1.5457000000     3.1956000000
   19      H      -3.4618000000     0.3391000000     4.3076000000
   20      N      -0.0041000000    -0.2271000000     2.1513000000
   21      H       0.9799000000    -0.1149000000     2.3200000000
   22      C      -0.4781000000    -1.1407000000     1.1442000000
   23      H      -1.0938000000    -1.9182000000     1.6032000000
   24      H       0.3666000000    -1.5949000000     0.6345000000
   25      H      -1.0984000000    -0.6051000000     0.4229000000
 ----------------------------------------------------------------
 Nuclear Repulsion Energy =        1417.01178145 hartrees
 There are       70 alpha and       68 beta electrons
 Requested basis set is def2-SVPD
 There are 162 shells and 384 basis functions

 Total QAlloc Memory Limit  90000 MB
 Mega-Array Size       188 MB
 MEM_STATIC part       192 MB

 Using C-PCM dielectric factor f(eps) = (eps-1)/eps = 0.666667
 Discretize the solute cavity surface with Lebedev spheres
	Using 194 Lebedev grid points for each H atom
	Using 194 Lebedev grid points for other atoms
	Atomic van der Waals radii (UFF set) will be scaled by 1.10
 Using smooth SwiG surface discretization
 Remove points where switching function is < 1.0e-08
 Keep 2142 surface tesserae and discard 2708 interior tesserae
 Molecular Surface Area = 291.075 Angst**2


 Q-Chem warning in module forms2/mkLRange.C, line 185:

 Gaussian blur charges not well tested with ECPs

 A cutoff of  1.0D-16 yielded  11302 shell pairs
 There are     63884 function pairs (     74065 Cartesian)
 Smallest overlap matrix eigenvalue = 6.91E-05

 Scale SEOQF with 1.000000e-01/1.000000e-02/1.000000e-02

 Standard Electronic Orientation quadrupole field applied
 Nucleus-field energy     =    -0.0000000109 hartrees
 Guess from superposition of atomic densities
 Warning:  Energy on first SCF cycle will be non-variational
 SAD guess density has 138.000000 electrons

 -----------------------------------------------------------------------
  General SCF calculation program by
  Eric Jon Sundstrom, Paul Horn, Yuezhi Mao, Dmitri Zuev, Alec White,
  David Stuck, Shaama M.S., Shane Yost, Joonho Lee, David Small,
  Daniel Levine, Susi Lehtola, Hugh Burton, Evgeny Epifanovsky,
  Bang C. Huynh
 -----------------------------------------------------------------------
 Exchange:     0.1500 Hartree-Fock + 1.0000 wB97M-V + LR-HF
 Correlation:  1.0000 wB97M-V
 Using SG-3 standard quadrature grid
 Nonlocal Correlation:  VV10 with C = 0.0100 and b = 6.00 and scale = 1.00000
 Grid used for NLC:  SG-1 standard quadrature
 using 40 threads for integral computing
 -------------------------------------------------------
 OpenMP Integral computing Module                
 Release: version 1.0, May 2013, Q-Chem Inc. Pittsburgh 
 -------------------------------------------------------
 C-PCM solvent model [f = (eps-1)/eps], solve by matrix inversion
 A unrestricted SCF calculation will be
 performed using Roothaan-Hall, GDM
 SCF converges when RMS gradient is below 1.0e-06
 ---------------------------------------
  Cycle       Energy         DIIS error
 ---------------------------------------
    1   -2794.8034117531      1.60e-02  Roothaan Step
 ---------------------------------------
  Cycle       Energy        RMS Gradient
 ---------------------------------------
    1   -2791.4227711532      8.61e-01   Descent step
    2   -2791.6734882437      2.77e-01   Descent step
    3   -2791.7364451051      1.72e-01   Normal BFGS step
    4   -2791.8133817593      2.74e-02   Normal BFGS step
    5   -2791.8347705865      3.95e-02   Normal BFGS step
    6   -2791.8384030060      1.85e-02   Normal BFGS step
    7   -2791.8396140077      6.76e-03   Normal BFGS step
    8   -2791.8400631681      4.81e-03   Normal BFGS step
    9   -2791.8402564668      3.31e-03   Normal BFGS step
   10   -2791.8403163155      2.93e-03   Normal BFGS step
   11   -2791.8403444542      2.48e-03   Normal BFGS step
   12   -2791.8403645409      1.97e-03   Normal BFGS step
   13   -2791.8403802742      1.36e-03   Normal BFGS step
   14   -2791.8403901321      9.89e-04   Normal BFGS step
   15   -2791.8403968651      9.34e-04   Normal BFGS step
   16   -2791.8404015763      7.91e-04   Normal BFGS step
   17   -2791.8404041042      3.13e-04   Normal BFGS step
   18   -2791.8404049443      2.31e-04   Normal BFGS step
   19   -2791.8404051695      1.36e-04   Normal BFGS step
   20   -2791.8404052620      8.83e-05   Normal BFGS step
   21   -2791.8404053219      5.36e-05   Normal BFGS step
   22   -2791.8404053484      3.16e-05   Normal BFGS step
   23   -2791.8404053583      3.07e-05   Normal BFGS step
   24   -2791.8404053633      2.97e-05   Normal BFGS step
   25   -2791.8404053709      3.04e-05   Normal BFGS step
   26   -2791.8404053895      3.18e-05   Normal BFGS step
   27   -2791.8404054306      6.63e-05   Normal BFGS step
   28   -2791.8404054997      7.29e-05   Normal BFGS step
   29   -2791.8404056062      7.29e-05   Normal BFGS step
   30   -2791.8404057198      6.47e-05   Normal BFGS step
   31   -2791.8404057521      4.46e-05   Normal BFGS step
   32   -2791.8404057679      3.56e-05   Normal BFGS step
   33   -2791.8404057766      3.16e-05   Normal BFGS step
   34   -2791.8404057848      2.48e-05   Normal BFGS step
   35   -2791.8404057896      1.86e-05   Normal BFGS step
   36   -2791.8404057953      1.26e-05   Normal BFGS step
   37   -2791.8404057986      8.59e-06   Normal BFGS step
   38   -2791.8404057996      4.19e-06   Normal BFGS step
   39   -2791.8404057998      1.46e-06   Normal BFGS step
   40   -2791.8404057998      1.01e-06   Normal BFGS step
   41   -2791.8404057999      7.56e-07  Convergence criterion met
 ---------------------------------------
 SCF time:   CPU 10510.01s  wall 371.00s 
<S^2> =          2.006476466

************** Final PCM Free Energy Summary **************
 G_electrostatic  =      -0.01626994 hartree =     -10.20954013 kcal/mol
 G_cavitation     =       0.00000000 hartree =       0.00000000 kcal/mol
 G_dispersion     =       0.00000000 hartree =       0.00000000 kcal/mol
 G_repulsion      =       0.00000000 hartree =       0.00000000 kcal/mol
 --------------------------------------------------
 Non-electrostatic Free Energy =       0.00000000 hartree =       0.00000000 kcal/mol
 Total                         =      -0.01626994 hartree =     -10.20954013 kcal/mol
 --------------------------------------------------
 SCF Energy (H0 + V/2)                       =   -2791.84040580 
 Solute Internal Energy (H0)                 =   -2791.82413586 
 Total Free Energy (H0 + V/2 + non-elec)     =   -2791.84040580 hartree
                                             = -1751906.29615989 kcal/mol
***********************************************************

 SCF   energy in the final basis set =    -2791.8404057999
 Total energy in the final basis set =    -2791.8404057999
 
 --------------------------------------------------------------
 
                    Orbital Energies (a.u.)
 --------------------------------------------------------------
 
 Alpha MOs
 -- Occupied --
******** -89.1316 -89.1315 -36.1359 -31.4790 -31.4651 -31.4610 -14.5771
-14.5769 -14.5408 -14.5408 -14.5165 -14.5165 -10.4505 -10.4505 -10.3843
-10.3842  -8.0911  -8.0911  -6.0084  -6.0083  -6.0027  -6.0026  -6.0019
 -6.0019  -4.2849  -2.8709  -2.8398  -2.8340  -1.1160  -1.1154  -1.0591
 -1.0589  -0.9238  -0.9229  -0.8525  -0.8472  -0.7929  -0.7892  -0.7000
 -0.6992  -0.6341  -0.6330  -0.6103  -0.5998  -0.5977  -0.5959  -0.5656
 -0.5579  -0.5577  -0.5420  -0.5249  -0.5155  -0.5132  -0.4990  -0.4937
 -0.4696  -0.4689  -0.4684  -0.4643  -0.4608  -0.4574  -0.3718  -0.3608
 -0.3460  -0.3366  -0.3339  -0.3315  -0.3173  -0.2995
 -- Virtual --
  0.0353   0.0448   0.0571   0.0655   0.0681   0.0888   0.0898   0.0924
  0.0937   0.1034   0.1101   0.1219   0.1251   0.1270   0.1413   0.1513
  0.1549   0.1597   0.1604   0.1640   0.1750   0.1829   0.1855   0.1904
  0.1928   0.1982   0.1986   0.2076   0.2078   0.2161   0.2222   0.2237
  0.2273   0.2297   0.2384   0.2483   0.2549   0.2556   0.2585   0.2612
  0.2676   0.2781   0.2800   0.2849   0.2908   0.2910   0.2964   0.3042
  0.3057   0.3127   0.3211   0.3262   0.3334   0.3350   0.3400   0.3428
  0.3545   0.3546   0.3588   0.3760   0.3784   0.3789   0.3848   0.3913
  0.3939   0.3954   0.4031   0.4069   0.4105   0.4111   0.4124   0.4250
  0.4266   0.4307   0.4314   0.4353   0.4402   0.4454   0.4476   0.4540
  0.4698   0.4751   0.4788   0.4854   0.4883   0.4936   0.4990   0.5025
  0.5058   0.5084   0.5094   0.5115   0.5123   0.5160   0.5233   0.5368
  0.5436   0.5453   0.5490   0.5496   0.5568   0.5578   0.5586   0.5632
  0.5776   0.5830   0.5928   0.5944   0.6011   0.6113   0.6214   0.6265
  0.6435   0.6492   0.6629   0.6666   0.6681   0.6751   0.6841   0.6845
  0.6941   0.7002   0.7019   0.7093   0.7243   0.7277   0.7303   0.7406
  0.7494   0.7539   0.7549   0.7704   0.7779   0.7858   0.8034   0.8056
  0.8216   0.8227   0.8282   0.8418   0.8443   0.8543   0.8737   0.8845
  0.8890   0.9043   0.9136   0.9277   0.9522   0.9547   0.9656   0.9873
  0.9885   0.9939   0.9963   1.0075   1.0194   1.0345   1.0379   1.0423
  1.0425   1.0460   1.0508   1.0744   1.0749   1.1098   1.1156   1.1212
  1.1255   1.1265   1.1574   1.1582   1.1669   1.1782   1.1820   1.1965
  1.2046   1.2103   1.2310   1.2330   1.2400   1.2652   1.2686   1.3113
  1.3208   1.3548   1.3635   1.3739   1.3772   1.3955   1.4282   1.4399
  1.4503   1.4560   1.4612   1.4922   1.5114   1.5234   1.5332   1.5415
  1.5661   1.5957   1.6152   1.6218   1.6258   1.6614   1.6684   1.6731
  1.6778   1.6977   1.7039   1.7276   1.7364   1.7505   1.7519   1.7600
  1.7617   1.7952   1.8029   1.8580   1.8590   1.8594   1.8647   1.8696
  1.8782   1.8894   1.9353   1.9395   1.9530   1.9576   1.9634   1.9901
  2.0013   2.0172   2.0355   2.0572   2.0615   2.0701   2.0775   2.0855
  2.0862   2.1030   2.1130   2.1391   2.1394   2.1489   2.1503   2.1679
  2.2517   2.2724   2.2740   2.2895   2.2908   2.2961   2.2980   2.3099
  2.3186   2.3345   2.3814   2.4127   2.4163   2.4362   2.4442   2.4553
  2.4601   2.4880   2.4902   2.5010   2.5027   2.5470   2.5478   2.6204
  2.6211   2.6903   2.6952   2.7189   2.7194   2.8008   2.8055   2.8348
  2.8356   2.8554   2.8566   2.9253   2.9258   3.0193   3.0202   3.0375
  3.0406   3.1139   3.1171   3.1317   3.1323   3.1825   3.1865   3.2606
  3.2650   3.3680   3.3764   3.4592   3.4801   3.5725   3.5906   3.5919
  3.5947   3.7984   3.8132   5.5584   5.5805   5.5847   5.6069   5.6118
  5.6151   5.6367
 
 Beta MOs
 -- Occupied --
******** -89.1308 -89.1308 -36.0867 -31.4338 -31.4309 -31.4255 -14.5748
-14.5747 -14.5407 -14.5407 -14.5164 -14.5164 -10.4506 -10.4506 -10.3843
-10.3842  -8.0904  -8.0903  -6.0076  -6.0076  -6.0014  -6.0013  -6.0005
 -6.0005  -4.1928  -2.7521  -2.7479  -2.7439  -1.1149  -1.1143  -1.0580
 -1.0578  -0.9223  -0.9214  -0.8504  -0.8454  -0.7908  -0.7873  -0.6994
 -0.6984  -0.6320  -0.6313  -0.6080  -0.5981  -0.5947  -0.5897  -0.5580
 -0.5575  -0.5460  -0.5384  -0.5072  -0.4983  -0.4894  -0.4688  -0.4670
 -0.4542  -0.4501  -0.4293  -0.4194  -0.3690  -0.3600  -0.3522  -0.3411
 -0.3395  -0.3317  -0.3270  -0.3267
 -- Virtual --
 -0.0042   0.0288   0.0371   0.0447   0.0576   0.0687   0.0708   0.0909
  0.0926   0.0931   0.0952   0.1039   0.1109   0.1227   0.1256   0.1292
  0.1430   0.1523   0.1560   0.1608   0.1614   0.1649   0.1755   0.1834
  0.1856   0.1906   0.1960   0.1990   0.2008   0.2079   0.2099   0.2162
  0.2224   0.2240   0.2275   0.2317   0.2411   0.2555   0.2562   0.2565
  0.2596   0.2618   0.2690   0.2785   0.2807   0.2855   0.2921   0.2926
  0.2976   0.3053   0.3070   0.3127   0.3226   0.3265   0.3340   0.3361
  0.3413   0.3473   0.3550   0.3563   0.3596   0.3775   0.3795   0.3795
  0.3852   0.3920   0.3941   0.3977   0.4035   0.4075   0.4110   0.4117
  0.4127   0.4256   0.4267   0.4317   0.4323   0.4358   0.4411   0.4455
  0.4482   0.4543   0.4704   0.4755   0.4792   0.4861   0.4889   0.4959
  0.5000   0.5033   0.5062   0.5087   0.5099   0.5119   0.5125   0.5161
  0.5237   0.5372   0.5441   0.5456   0.5496   0.5500   0.5573   0.5585
  0.5593   0.5648   0.5778   0.5836   0.5945   0.5954   0.6024   0.6119
  0.6228   0.6280   0.6442   0.6494   0.6634   0.6680   0.6692   0.6755
  0.6849   0.6851   0.6947   0.7020   0.7035   0.7104   0.7245   0.7284
  0.7316   0.7411   0.7502   0.7542   0.7573   0.7713   0.7786   0.7862
  0.8039   0.8065   0.8222   0.8243   0.8284   0.8431   0.8457   0.8556
  0.8740   0.8871   0.8900   0.9052   0.9146   0.9285   0.9538   0.9560
  0.9695   0.9890   0.9920   0.9951   1.0004   1.0089   1.0216   1.0355
  1.0395   1.0425   1.0430   1.0463   1.0513   1.0752   1.0783   1.1110
  1.1198   1.1222   1.1271   1.1276   1.1595   1.1606   1.1687   1.1789
  1.1838   1.2034   1.2056   1.2138   1.2329   1.2351   1.2426   1.2678
  1.2695   1.3121   1.3226   1.3551   1.3679   1.3776   1.3784   1.4007
  1.4289   1.4445   1.4523   1.4563   1.4844   1.4949   1.5141   1.5355
  1.5384   1.5422   1.5693   1.5985   1.6227   1.6244   1.6303   1.6641
  1.6691   1.6732   1.6801   1.6987   1.7102   1.7309   1.7377   1.7510
  1.7521   1.7616   1.7622   1.7962   1.8039   1.8588   1.8598   1.8623
  1.8666   1.8701   1.8792   1.9042   1.9364   1.9400   1.9534   1.9578
  1.9639   1.9912   2.0016   2.0213   2.0391   2.0587   2.0617   2.0716
  2.0782   2.0861   2.0864   2.1034   2.1134   2.1395   2.1398   2.1500
  2.1515   2.1691   2.2549   2.2743   2.2745   2.2902   2.2920   2.2966
  2.3002   2.3112   2.3192   2.3358   2.3880   2.4130   2.4195   2.4383
  2.4461   2.4561   2.4605   2.4882   2.4905   2.5025   2.5043   2.5482
  2.5499   2.6210   2.6219   2.6908   2.6957   2.7192   2.7197   2.8024
  2.8066   2.8351   2.8358   2.8563   2.8577   2.9259   2.9264   3.0206
  3.0214   3.0392   3.0421   3.1166   3.1193   3.1318   3.1324   3.1827
  3.1867   3.2611   3.2655   3.3682   3.3766   3.4600   3.4809   3.5771
  3.5913   3.5925   3.5993   3.8006   3.8154   5.6370   5.6560   5.6587
  5.6831   5.6922   5.6970   5.7346
 --------------------------------------------------------------
 
          Ground-State Mulliken Net Atomic Charges

     Atom                 Charge (a.u.)    Spin (a.u.)
  --------------------------------------------------------
      1 Ni                    0.407802       1.675082
      2 S                    -0.751523       0.104309
      3 N                    -0.168393       0.063294
      4 H                     0.254963      -0.002322
      5 H                     0.261463      -0.002025
      6 N                    -0.641937       0.007775
      7 N                    -0.281781       0.003815
      8 H                    -0.374127      -0.001017
      9 C                     0.799131      -0.012152
     10 C                     1.089100       0.000344
     11 H                     0.001513       0.000199
     12 H                    -0.383498      -0.000053
     13 H                    -0.008832       0.000246
     14 S                    -0.751444       0.104405
     15 C                     0.799103      -0.012173
     16 N                    -0.641785       0.007798
     17 N                    -0.170316       0.063275
     18 H                     0.256161      -0.002318
     19 H                     0.262171      -0.002021
     20 N                    -0.279836       0.003815
     21 H                    -0.375850      -0.001010
     22 C                     1.085123       0.000344
     23 H                     0.002862       0.000199
     24 H                    -0.381846      -0.000053
     25 H                    -0.008223       0.000246
  --------------------------------------------------------
  Sum of atomic charges =     0.000000
  Sum of spin   charges =     2.000000

 -----------------------------------------------------------------
                    Cartesian Multipole Moments
 -----------------------------------------------------------------
    Charge (ESU x 10^10)
                 0.0000
    Dipole Moment (Debye)
         X      -0.0011      Y      -0.0004      Z      -0.0012
       Tot       0.0016
    Quadrupole Moments (Debye-Ang)
        XX     -94.6491     XY      -5.2859     YY     -94.7797
        XZ      -6.0793     YZ       8.8176     ZZ     -94.4221
    Octopole Moments (Debye-Ang^2)
       XXX     530.4778    XXY    -198.6314    XYY     152.6689
       YYY    -655.9982    XXZ    -462.2373    XYZ     -57.5830
       YYZ    -444.8870    XZZ     114.1052    YZZ    -127.4521
       ZZZ   -1451.2186
    Hexadecapole Moments (Debye-Ang^3)
      XXXX   -3204.4949   XXXY    1591.8984   XXYY   -1258.5804
      XYYY    1528.8590   YYYY   -5354.9850   XXXZ    3161.1811
      XXYZ   -1237.0479   XYYZ     694.3190   YYYZ   -4395.1019
      XXZZ   -3188.0835   XYZZ     -83.3062   YYZZ   -3334.1663
      XZZZ    2637.5291   YZZZ   -3772.2247   ZZZZ  -17860.2673
 -----------------------------------------------------------------
 Calculating analytic gradient of the SCF energy
 Gradient of SCF Energy
            1           2           3           4           5           6
    1  -0.0000287   0.0059005   0.0001116   0.0072227   0.0051205  -0.0188079
    2   0.0000018   0.0044897   0.0022727  -0.0056585   0.0065338  -0.0039112
    3  -0.0000028   0.0060083   0.0064540   0.0045806  -0.0074831  -0.0034733
            7           8           9          10          11          12
    1   0.0057895   0.0018191   0.0050188  -0.0015488  -0.0030921   0.0031674
    2  -0.0059591  -0.0008591   0.0112668   0.0016799  -0.0048016  -0.0014111
    3  -0.0059543  -0.0013993   0.0118008   0.0015126   0.0009263  -0.0016626
           13          14          15          16          17          18
    1  -0.0034324  -0.0058549  -0.0051280   0.0185647   0.0009527  -0.0076986
    2   0.0011521  -0.0044863  -0.0113211   0.0040157  -0.0024378   0.0059720
    3  -0.0050890  -0.0060053  -0.0118756   0.0035835  -0.0064909  -0.0049425
           19          20          21          22          23          24
    1  -0.0054161  -0.0053546  -0.0021510   0.0016255   0.0028361  -0.0029105
    2  -0.0068328   0.0061824   0.0007861  -0.0012933   0.0044590   0.0012385
    3   0.0077271   0.0062543   0.0013046  -0.0014322  -0.0007548   0.0014892
           25
    1   0.0032943
    2  -0.0010787
    3   0.0049244
 Max gradient component =       1.881E-02
 RMS gradient           =       5.780E-03
 Computing fast CPCM-SWIG gradient
 Updating gradient with PCM contributions...
 -- total gradient after adding PCM contribution --
---------------------------------------------------
  Atom         X              Y              Z     
---------------------------------------------------
   1      -0.000027       0.000002      -0.000002
   2       0.008341       0.002467       0.002974
   3       0.006828       0.005688       0.008996
   4       0.003160      -0.004595       0.003113
   5       0.001534       0.004206      -0.005810
   6      -0.016764      -0.007344      -0.007709
   7       0.002903      -0.005582      -0.005737
   8       0.002510       0.000318      -0.000203
   9       0.005901       0.011283       0.012179
  10      -0.002377       0.001834       0.001900
  11      -0.002659      -0.004273       0.000281
  12       0.004524      -0.001677      -0.002057
  13      -0.003014       0.000465      -0.004567
  14      -0.008295      -0.002465      -0.002974
  15      -0.006010      -0.011336      -0.012249
  16       0.016525       0.007446       0.007815
  17      -0.005779      -0.005850      -0.009033
  18      -0.003632       0.004906      -0.003473
  19      -0.001825      -0.004506       0.006054
  20      -0.002471       0.005810       0.006039
  21      -0.002839      -0.000394       0.000105
  22       0.002459      -0.001452      -0.001823
  23       0.002401       0.003933      -0.000110
  24      -0.004269       0.001507       0.001885
  25       0.002875      -0.000393       0.004405
---------------------------------------------------
 Number of fixed atoms: 0
 Gradient time:  CPU 2264.35 s  wall 67.91 s
 Total job time:  440.27s(wall), 12800.05s(cpu) 
 Fri Dec 23 08:32:53 2022

        *************************************************************
        *                                                           *
        *  Thank you very much for using Q-Chem.  Have a nice day.  *
        *                                                           *
        *************************************************************


