 vasp.5.4.1 24Jun15 (build Feb 01 2016 23:38:11) complex                        
  
 executed on           IFC91_impi date 2016.08.25  07:51:16
 running on   16 total cores
 distrk:  each k-point on   16 cores,    1 groups
 distr:  one band on NCORES_PER_BAND=   1 cores,   16 groups


--------------------------------------------------------------------------------------------------------


 INCAR:
 POTCAR:   PAW_PBE Si 05Jan2001                   

 ----------------------------------------------------------------------------- 
|                                                                             |
|           W    W    AA    RRRRR   N    N  II  N    N   GGGG   !!!           |
|           W    W   A  A   R    R  NN   N  II  NN   N  G    G  !!!           |
|           W    W  A    A  R    R  N N  N  II  N N  N  G       !!!           |
|           W WW W  AAAAAA  RRRRR   N  N N  II  N  N N  G  GGG   !            |
|           WW  WW  A    A  R   R   N   NN  II  N   NN  G    G                |
|           W    W  A    A  R    R  N    N  II  N    N   GGGG   !!!           |
|                                                                             |
|      For optimal performance we recommend to set                            |
|        NCORE= 4 - approx SQRT( number of cores)                             |
|      NCORE specifies how many cores store one orbital (NPAR=cpu/NCORE).     |
|      This setting can  greatly improve the performance of VASP for DFT.     |
|      The default, NPAR=number of cores might be grossly inefficient         |
|      on modern multi-core architectures or massively parallel machines.     |
|      Do your own testing !!!!                                               |
|      Unfortunately you need to use the default for GW and RPA calculations. |
|      (for HF NCORE is supported but not extensively tested yet)             |
|                                                                             |
 ----------------------------------------------------------------------------- 

 POTCAR:   PAW_PBE Si 05Jan2001                   
   VRHFIN =Si: s2p2                                                             
   LEXCH  = PE                                                                  
   EATOM  =   103.0669 eV,    7.5752 Ry                                         
                                                                                
   TITEL  = PAW_PBE Si 05Jan2001                                                
   LULTRA =        F    use ultrasoft PP ?                                      
   IUNSCR =        1    unscreen: 0-lin 1-nonlin 2-no                           
   RPACOR =    1.500    partial core radius                                     
   POMASS =   28.085; ZVAL   =    4.000    mass and valenz                      
   RCORE  =    1.900    outmost cutoff radius                                   
   RWIGS  =    2.480; RWIGS  =    1.312    wigner-seitz radius (au A)           
   ENMAX  =  245.345; ENMIN  =  184.009 eV                                      
   ICORE  =        2    local potential                                         
   LCOR   =        T    correct aug charges                                     
   LPAW   =        T    paw PP                                                  
   EAUG   =  322.069                                                            
   DEXC   =    -.007                                                            
   RMAX   =    2.944    core radius for proj-oper                               
   RAUG   =    1.300    factor for augmentation sphere                          
   RDEP   =    1.993    radius for radial grids                                 
   QCUT   =   -4.246; QGAM   =    8.493    optimization parameters              
                                                                                
   Description                                                                  
     l     E      TYP  RCUT    TYP  RCUT                                        
     0   .000     23  1.900                                                     
     0   .000     23  1.900                                                     
     1   .000     23  1.900                                                     
     1   .000     23  1.900                                                     
     2   .000      7  1.900                                                     
  local pseudopotential read in
  partial core-charges read in
  atomic valenz-charges read in
  non local Contribution for L=           0  read in
    real space projection operators read in
  non local Contribution for L=           0  read in
    real space projection operators read in
  non local Contribution for L=           1  read in
    real space projection operators read in
  non local Contribution for L=           1  read in
    real space projection operators read in
    PAW grid and wavefunctions read in
 
   number of l-projection  operators is LMAX  =           4
   number of lm-projection operators is LMMAX =           8
 

 ----------------------------------------------------------------------------- 
|                                                                             |
|  ADVICE TO THIS USER RUNNING 'VASP/VAMP'   (HEAR YOUR MASTER'S VOICE ...):  |
|                                                                             |
|      You have a (more or less) 'small supercell' and for smaller cells      |
|      it is recommended  to use the reciprocal-space projection scheme!      |
|      The real space optimization is not  efficient for small cells and it   |
|      is also less accurate ...                                              |
|      Therefore set LREAL=.FALSE. in the  INCAR file                         |
|                                                                             |
 ----------------------------------------------------------------------------- 

 Optimization of the real space projectors (new method)

 maximal supplied QI-value         = 19.84
 optimisation between [QCUT,QGAM] = [ 12.50, 25.00] = [ 43.76,175.03] Ry 
 Optimized for a Real-space Cutoff    1.16 Angstroem

   l    n(q)    QCUT    max X(q) W(low)/X(q) W(high)/X(q)  e(spline) 
   0      9    12.501     8.708    0.14E-04    0.64E-05    0.48E-08
   0      9    12.501   106.241    0.99E-04    0.81E-04    0.70E-07
   1      8    12.501     5.901    0.24E-04    0.20E-04    0.18E-07
   1      8    12.501    73.241    0.20E-03    0.24E-03    0.75E-07
 PAW_PBE Si 05Jan2001                   :
 energy of atom  1       EATOM= -103.0669
 kinetic energy error for atom=    0.0003 (will be added to EATOM!!)
 
 
 POSCAR: Si2                                     
  positions in direct lattice
  No initial velocities read in
 exchange correlation table for  LEXCH =        8
   RHO(1)=    0.500       N(1)  =     2000
   RHO(2)=  100.500       N(2)  =     4000
 


--------------------------------------------------------------------------------------------------------


 ion  position               nearest neighbor table
   1  0.999  1.000  1.000-   2 2.36   2 2.37   2 2.37   2 2.38
   2  0.751  0.500  0.750-   1 2.36   1 2.37   1 2.37   1 2.38
 
  LATTYP: Found a face centered cubic cell.
 ALAT       =     5.4694110002
  
  Lattice vectors:
  
 A1 = (   1.9337280000,   3.3493170000,   0.0000000000)
 A2 = (   0.0000000000,   2.2328760000,  -3.1577660000)
 A3 = (  -1.9337290000,   3.3493170000,   0.0000000000)


Analysis of symmetry for initial positions (statically):
=====================================================================
 Subroutine PRICEL returns:
 Original cell was already a primitive cell.
 

 Routine SETGRP: Setting up the symmetry group for a 
 face centered cubic supercell.


 Subroutine GETGRP returns: Found  2 space group operations
 (whereof  1 operations were pure point group operations)
 out of a pool of 48 trial point group operations.


The static configuration has the point symmetry C_1 .
 The point group associated with its full space group is S_2 .


Analysis of symmetry for dynamics (positions and initial velocities):
=====================================================================
 Subroutine PRICEL returns:
 Original cell was already a primitive cell.
 

 Routine SETGRP: Setting up the symmetry group for a 
 face centered cubic supercell.


 Subroutine GETGRP returns: Found  2 space group operations
 (whereof  1 operations were pure point group operations)
 out of a pool of 48 trial point group operations.


The dynamic configuration has the point symmetry C_1 .
 The point group associated with its full space group is S_2 .


Analysis of structural, dynamic, and magnetic symmetry:
=====================================================================
 Subroutine PRICEL returns:
 Original cell was already a primitive cell.
 

 Routine SETGRP: Setting up the symmetry group for a 
 face centered cubic supercell.


 Subroutine GETGRP returns: Found  2 space group operations
 (whereof  1 operations were pure point group operations)
 out of a pool of 48 trial point group operations.


The magnetic configuration has the point symmetry C_1 .
 The point group associated with its full space group is S_2 .


 Subroutine INISYM returns: Found  2 space group operations
 (whereof  1 operations are pure point group operations),
 and found     1 'primitive' translations

 
 
 KPOINTS: pymatgen generated KPOINTS with grid den

Automatic generation of k-mesh.
Space group operators:
 irot       det(A)        alpha          n_x          n_y          n_z        tau_x        tau_y        tau_z
    1     1.000000     0.000000     1.000000     0.000000     0.000000     0.000000     0.000000     0.000000
    2    -1.000000     0.000000     1.000000     0.000000     0.000000    -0.250000     0.500000    -0.250000
 
 Subroutine IBZKPT returns following result:
 ===========================================
 
 Found    666 irreducible k-points:
 
 Following reciprocal coordinates:
            Coordinates               Weight
  0.000000  0.000000  0.000000      1.000000
  0.090909  0.000000 -0.000000      2.000000
  0.181818  0.000000 -0.000000      2.000000
  0.272727  0.000000  0.000000      2.000000
  0.363636  0.000000 -0.000000      2.000000
  0.454545  0.000000  0.000000      2.000000
  0.000000  0.090909 -0.000000      2.000000
  0.090909  0.090909 -0.000000      2.000000
  0.181818  0.090909 -0.000000      2.000000
  0.272727  0.090909 -0.000000      2.000000
  0.363636  0.090909 -0.000000      2.000000
  0.454545  0.090909  0.000000      2.000000
 -0.454545  0.090909  0.000000      2.000000
 -0.363636  0.090909  0.000000      2.000000
 -0.272727  0.090909  0.000000      2.000000
 -0.181818  0.090909 -0.000000      2.000000
 -0.090909  0.090909 -0.000000      2.000000
  0.000000  0.181818 -0.000000      2.000000
  0.090909  0.181818 -0.000000      2.000000
  0.181818  0.181818 -0.000000      2.000000
  0.272727  0.181818 -0.000000      2.000000
  0.363636  0.181818 -0.000000      2.000000
  0.454545  0.181818  0.000000      2.000000
 -0.454545  0.181818 -0.000000      2.000000
 -0.363636  0.181818 -0.000000      2.000000
 -0.272727  0.181818 -0.000000      2.000000
 -0.181818  0.181818 -0.000000      2.000000
 -0.090909  0.181818  0.000000      2.000000
  0.000000  0.272727 -0.000000      2.000000
  0.090909  0.272727 -0.000000      2.000000
  0.181818  0.272727 -0.000000      2.000000
  0.272727  0.272727 -0.000000      2.000000
  0.363636  0.272727 -0.000000      2.000000
  0.454545  0.272727  0.000000      2.000000
 -0.454545  0.272727 -0.000000      2.000000
 -0.363636  0.272727 -0.000000      2.000000
 -0.272727  0.272727 -0.000000      2.000000
 -0.181818  0.272727 -0.000000      2.000000
 -0.090909  0.272727 -0.000000      2.000000
  0.000000  0.363636 -0.000000      2.000000
  0.090909  0.363636 -0.000000      2.000000
  0.181818  0.363636 -0.000000      2.000000
  0.272727  0.363636 -0.000000      2.000000
  0.363636  0.363636 -0.000000      2.000000
  0.454545  0.363636  0.000000      2.000000
 -0.454545  0.363636 -0.000000      2.000000
 -0.363636  0.363636 -0.000000      2.000000
 -0.272727  0.363636  0.000000      2.000000
 -0.181818  0.363636  0.000000      2.000000
 -0.090909  0.363636 -0.000000      2.000000
  0.000000  0.454545 -0.000000      2.000000
  0.090909  0.454545 -0.000000      2.000000
  0.181818  0.454545 -0.000000      2.000000
  0.272727  0.454545 -0.000000      2.000000
  0.363636  0.454545 -0.000000      2.000000
  0.454545  0.454545 -0.000000      2.000000
 -0.454545  0.454545 -0.000000      2.000000
 -0.363636  0.454545 -0.000000      2.000000
 -0.272727  0.454545  0.000000      2.000000
 -0.181818  0.454545 -0.000000      2.000000
 -0.090909  0.454545 -0.000000      2.000000
  0.000000  0.000000  0.090909      2.000000
  0.090909  0.000000  0.090909      2.000000
  0.181818  0.000000  0.090909      2.000000
  0.272727  0.000000  0.090909      2.000000
  0.363636  0.000000  0.090909      2.000000
  0.454545  0.000000  0.090909      2.000000
 -0.454545 -0.000000  0.090909      2.000000
 -0.363636  0.000000  0.090909      2.000000
 -0.272727 -0.000000  0.090909      2.000000
 -0.181818  0.000000  0.090909      2.000000
 -0.090909  0.000000  0.090909      2.000000
  0.000000  0.090909  0.090909      2.000000
  0.090909  0.090909  0.090909      2.000000
  0.181818  0.090909  0.090909      2.000000
  0.272727  0.090909  0.090909      2.000000
  0.363636  0.090909  0.090909      2.000000
  0.454545  0.090909  0.090909      2.000000
 -0.454545  0.090909  0.090909      2.000000
 -0.363636  0.090909  0.090909      2.000000
 -0.272727  0.090909  0.090909      2.000000
 -0.181818  0.090909  0.090909      2.000000
 -0.090909  0.090909  0.090909      2.000000
  0.000000  0.181818  0.090909      2.000000
  0.090909  0.181818  0.090909      2.000000
  0.181818  0.181818  0.090909      2.000000
  0.272727  0.181818  0.090909      2.000000
  0.363636  0.181818  0.090909      2.000000
  0.454545  0.181818  0.090909      2.000000
 -0.454545  0.181818  0.090909      2.000000
 -0.363636  0.181818  0.090909      2.000000
 -0.272727  0.181818  0.090909      2.000000
 -0.181818  0.181818  0.090909      2.000000
 -0.090909  0.181818  0.090909      2.000000
  0.000000  0.272727  0.090909      2.000000
  0.090909  0.272727  0.090909      2.000000
  0.181818  0.272727  0.090909      2.000000
  0.272727  0.272727  0.090909      2.000000
  0.363636  0.272727  0.090909      2.000000
  0.454545  0.272727  0.090909      2.000000
 -0.454545  0.272727  0.090909      2.000000
 -0.363636  0.272727  0.090909      2.000000
 -0.272727  0.272727  0.090909      2.000000
 -0.181818  0.272727  0.090909      2.000000
 -0.090909  0.272727  0.090909      2.000000
  0.000000  0.363636  0.090909      2.000000
  0.090909  0.363636  0.090909      2.000000
  0.181818  0.363636  0.090909      2.000000
  0.272727  0.363636  0.090909      2.000000
  0.363636  0.363636  0.090909      2.000000
  0.454545  0.363636  0.090909      2.000000
 -0.454545  0.363636  0.090909      2.000000
 -0.363636  0.363636  0.090909      2.000000
 -0.272727  0.363636  0.090909      2.000000
 -0.181818  0.363636  0.090909      2.000000
 -0.090909  0.363636  0.090909      2.000000
  0.000000  0.454545  0.090909      2.000000
  0.090909  0.454545  0.090909      2.000000
  0.181818  0.454545  0.090909      2.000000
  0.272727  0.454545  0.090909      2.000000
  0.363636  0.454545  0.090909      2.000000
  0.454545  0.454545  0.090909      2.000000
 -0.454545  0.454545  0.090909      2.000000
 -0.363636  0.454545  0.090909      2.000000
 -0.272727  0.454545  0.090909      2.000000
 -0.181818  0.454545  0.090909      2.000000
 -0.090909  0.454545  0.090909      2.000000
  0.000000 -0.454545  0.090909      2.000000
  0.090909 -0.454545  0.090909      2.000000
  0.181818 -0.454545  0.090909      2.000000
  0.272727 -0.454545  0.090909      2.000000
  0.363636 -0.454545  0.090909      2.000000
  0.454545 -0.454545  0.090909      2.000000
 -0.454545 -0.454545  0.090909      2.000000
 -0.363636 -0.454545  0.090909      2.000000
 -0.272727 -0.454545  0.090909      2.000000
 -0.181818 -0.454545  0.090909      2.000000
 -0.090909 -0.454545  0.090909      2.000000
  0.000000 -0.363636  0.090909      2.000000
  0.090909 -0.363636  0.090909      2.000000
  0.181818 -0.363636  0.090909      2.000000
  0.272727 -0.363636  0.090909      2.000000
  0.363636 -0.363636  0.090909      2.000000
  0.454545 -0.363636  0.090909      2.000000
 -0.454545 -0.363636  0.090909      2.000000
 -0.363636 -0.363636  0.090909      2.000000
 -0.272727 -0.363636  0.090909      2.000000
 -0.181818 -0.363636  0.090909      2.000000
 -0.090909 -0.363636  0.090909      2.000000
  0.000000 -0.272727  0.090909      2.000000
  0.090909 -0.272727  0.090909      2.000000
  0.181818 -0.272727  0.090909      2.000000
  0.272727 -0.272727  0.090909      2.000000
  0.363636 -0.272727  0.090909      2.000000
  0.454545 -0.272727  0.090909      2.000000
 -0.454545 -0.272727  0.090909      2.000000
 -0.363636 -0.272727  0.090909      2.000000
 -0.272727 -0.272727  0.090909      2.000000
 -0.181818 -0.272727  0.090909      2.000000
 -0.090909 -0.272727  0.090909      2.000000
  0.000000 -0.181818  0.090909      2.000000
  0.090909 -0.181818  0.090909      2.000000
  0.181818 -0.181818  0.090909      2.000000
  0.272727 -0.181818  0.090909      2.000000
  0.363636 -0.181818  0.090909      2.000000
  0.454545 -0.181818  0.090909      2.000000
 -0.454545 -0.181818  0.090909      2.000000
 -0.363636 -0.181818  0.090909      2.000000
 -0.272727 -0.181818  0.090909      2.000000
 -0.181818 -0.181818  0.090909      2.000000
 -0.090909 -0.181818  0.090909      2.000000
  0.000000 -0.090909  0.090909      2.000000
  0.090909 -0.090909  0.090909      2.000000
  0.181818 -0.090909  0.090909      2.000000
  0.272727 -0.090909  0.090909      2.000000
  0.363636 -0.090909  0.090909      2.000000
  0.454545 -0.090909  0.090909      2.000000
 -0.454545 -0.090909  0.090909      2.000000
 -0.363636 -0.090909  0.090909      2.000000
 -0.272727 -0.090909  0.090909      2.000000
 -0.181818 -0.090909  0.090909      2.000000
 -0.090909 -0.090909  0.090909      2.000000
  0.000000  0.000000  0.181818      2.000000
  0.090909  0.000000  0.181818      2.000000
  0.181818  0.000000  0.181818      2.000000
  0.272727  0.000000  0.181818      2.000000
  0.363636  0.000000  0.181818      2.000000
  0.454545  0.000000  0.181818      2.000000
 -0.454545 -0.000000  0.181818      2.000000
 -0.363636  0.000000  0.181818      2.000000
 -0.272727 -0.000000  0.181818      2.000000
 -0.181818  0.000000  0.181818      2.000000
 -0.090909  0.000000  0.181818      2.000000
  0.000000  0.090909  0.181818      2.000000
  0.090909  0.090909  0.181818      2.000000
  0.181818  0.090909  0.181818      2.000000
  0.272727  0.090909  0.181818      2.000000
  0.363636  0.090909  0.181818      2.000000
  0.454545  0.090909  0.181818      2.000000
 -0.454545  0.090909  0.181818      2.000000
 -0.363636  0.090909  0.181818      2.000000
 -0.272727  0.090909  0.181818      2.000000
 -0.181818  0.090909  0.181818      2.000000
 -0.090909  0.090909  0.181818      2.000000
  0.000000  0.181818  0.181818      2.000000
  0.090909  0.181818  0.181818      2.000000
  0.181818  0.181818  0.181818      2.000000
  0.272727  0.181818  0.181818      2.000000
  0.363636  0.181818  0.181818      2.000000
  0.454545  0.181818  0.181818      2.000000
 -0.454545  0.181818  0.181818      2.000000
 -0.363636  0.181818  0.181818      2.000000
 -0.272727  0.181818  0.181818      2.000000
 -0.181818  0.181818  0.181818      2.000000
 -0.090909  0.181818  0.181818      2.000000
  0.000000  0.272727  0.181818      2.000000
  0.090909  0.272727  0.181818      2.000000
  0.181818  0.272727  0.181818      2.000000
  0.272727  0.272727  0.181818      2.000000
  0.363636  0.272727  0.181818      2.000000
  0.454545  0.272727  0.181818      2.000000
 -0.454545  0.272727  0.181818      2.000000
 -0.363636  0.272727  0.181818      2.000000
 -0.272727  0.272727  0.181818      2.000000
 -0.181818  0.272727  0.181818      2.000000
 -0.090909  0.272727  0.181818      2.000000
  0.000000  0.363636  0.181818      2.000000
  0.090909  0.363636  0.181818      2.000000
  0.181818  0.363636  0.181818      2.000000
  0.272727  0.363636  0.181818      2.000000
  0.363636  0.363636  0.181818      2.000000
  0.454545  0.363636  0.181818      2.000000
 -0.454545  0.363636  0.181818      2.000000
 -0.363636  0.363636  0.181818      2.000000
 -0.272727  0.363636  0.181818      2.000000
 -0.181818  0.363636  0.181818      2.000000
 -0.090909  0.363636  0.181818      2.000000
  0.000000  0.454545  0.181818      2.000000
  0.090909  0.454545  0.181818      2.000000
  0.181818  0.454545  0.181818      2.000000
  0.272727  0.454545  0.181818      2.000000
  0.363636  0.454545  0.181818      2.000000
  0.454545  0.454545  0.181818      2.000000
 -0.454545  0.454545  0.181818      2.000000
 -0.363636  0.454545  0.181818      2.000000
 -0.272727  0.454545  0.181818      2.000000
 -0.181818  0.454545  0.181818      2.000000
 -0.090909  0.454545  0.181818      2.000000
  0.000000 -0.454545  0.181818      2.000000
  0.090909 -0.454545  0.181818      2.000000
  0.181818 -0.454545  0.181818      2.000000
  0.272727 -0.454545  0.181818      2.000000
  0.363636 -0.454545  0.181818      2.000000
  0.454545 -0.454545  0.181818      2.000000
 -0.454545 -0.454545  0.181818      2.000000
 -0.363636 -0.454545  0.181818      2.000000
 -0.272727 -0.454545  0.181818      2.000000
 -0.181818 -0.454545  0.181818      2.000000
 -0.090909 -0.454545  0.181818      2.000000
  0.000000 -0.363636  0.181818      2.000000
  0.090909 -0.363636  0.181818      2.000000
  0.181818 -0.363636  0.181818      2.000000
  0.272727 -0.363636  0.181818      2.000000
  0.363636 -0.363636  0.181818      2.000000
  0.454545 -0.363636  0.181818      2.000000
 -0.454545 -0.363636  0.181818      2.000000
 -0.363636 -0.363636  0.181818      2.000000
 -0.272727 -0.363636  0.181818      2.000000
 -0.181818 -0.363636  0.181818      2.000000
 -0.090909 -0.363636  0.181818      2.000000
  0.000000 -0.272727  0.181818      2.000000
  0.090909 -0.272727  0.181818      2.000000
  0.181818 -0.272727  0.181818      2.000000
  0.272727 -0.272727  0.181818      2.000000
  0.363636 -0.272727  0.181818      2.000000
  0.454545 -0.272727  0.181818      2.000000
 -0.454545 -0.272727  0.181818      2.000000
 -0.363636 -0.272727  0.181818      2.000000
 -0.272727 -0.272727  0.181818      2.000000
 -0.181818 -0.272727  0.181818      2.000000
 -0.090909 -0.272727  0.181818      2.000000
  0.000000 -0.181818  0.181818      2.000000
  0.090909 -0.181818  0.181818      2.000000
  0.181818 -0.181818  0.181818      2.000000
  0.272727 -0.181818  0.181818      2.000000
  0.363636 -0.181818  0.181818      2.000000
  0.454545 -0.181818  0.181818      2.000000
 -0.454545 -0.181818  0.181818      2.000000
 -0.363636 -0.181818  0.181818      2.000000
 -0.272727 -0.181818  0.181818      2.000000
 -0.181818 -0.181818  0.181818      2.000000
 -0.090909 -0.181818  0.181818      2.000000
  0.000000 -0.090909  0.181818      2.000000
  0.090909 -0.090909  0.181818      2.000000
  0.181818 -0.090909  0.181818      2.000000
  0.272727 -0.090909  0.181818      2.000000
  0.363636 -0.090909  0.181818      2.000000
  0.454545 -0.090909  0.181818      2.000000
 -0.454545 -0.090909  0.181818      2.000000
 -0.363636 -0.090909  0.181818      2.000000
 -0.272727 -0.090909  0.181818      2.000000
 -0.181818 -0.090909  0.181818      2.000000
 -0.090909 -0.090909  0.181818      2.000000
  0.000000  0.000000  0.272727      2.000000
  0.090909  0.000000  0.272727      2.000000
  0.181818  0.000000  0.272727      2.000000
  0.272727  0.000000  0.272727      2.000000
  0.363636  0.000000  0.272727      2.000000
  0.454545  0.000000  0.272727      2.000000
 -0.454545 -0.000000  0.272727      2.000000
 -0.363636  0.000000  0.272727      2.000000
 -0.272727 -0.000000  0.272727      2.000000
 -0.181818  0.000000  0.272727      2.000000
 -0.090909  0.000000  0.272727      2.000000
  0.000000  0.090909  0.272727      2.000000
  0.090909  0.090909  0.272727      2.000000
  0.181818  0.090909  0.272727      2.000000
  0.272727  0.090909  0.272727      2.000000
  0.363636  0.090909  0.272727      2.000000
  0.454545  0.090909  0.272727      2.000000
 -0.454545  0.090909  0.272727      2.000000
 -0.363636  0.090909  0.272727      2.000000
 -0.272727  0.090909  0.272727      2.000000
 -0.181818  0.090909  0.272727      2.000000
 -0.090909  0.090909  0.272727      2.000000
  0.000000  0.181818  0.272727      2.000000
  0.090909  0.181818  0.272727      2.000000
  0.181818  0.181818  0.272727      2.000000
  0.272727  0.181818  0.272727      2.000000
  0.363636  0.181818  0.272727      2.000000
  0.454545  0.181818  0.272727      2.000000
 -0.454545  0.181818  0.272727      2.000000
 -0.363636  0.181818  0.272727      2.000000
 -0.272727  0.181818  0.272727      2.000000
 -0.181818  0.181818  0.272727      2.000000
 -0.090909  0.181818  0.272727      2.000000
  0.000000  0.272727  0.272727      2.000000
  0.090909  0.272727  0.272727      2.000000
  0.181818  0.272727  0.272727      2.000000
  0.272727  0.272727  0.272727      2.000000
  0.363636  0.272727  0.272727      2.000000
  0.454545  0.272727  0.272727      2.000000
 -0.454545  0.272727  0.272727      2.000000
 -0.363636  0.272727  0.272727      2.000000
 -0.272727  0.272727  0.272727      2.000000
 -0.181818  0.272727  0.272727      2.000000
 -0.090909  0.272727  0.272727      2.000000
  0.000000  0.363636  0.272727      2.000000
  0.090909  0.363636  0.272727      2.000000
  0.181818  0.363636  0.272727      2.000000
  0.272727  0.363636  0.272727      2.000000
  0.363636  0.363636  0.272727      2.000000
  0.454545  0.363636  0.272727      2.000000
 -0.454545  0.363636  0.272727      2.000000
 -0.363636  0.363636  0.272727      2.000000
 -0.272727  0.363636  0.272727      2.000000
 -0.181818  0.363636  0.272727      2.000000
 -0.090909  0.363636  0.272727      2.000000
  0.000000  0.454545  0.272727      2.000000
  0.090909  0.454545  0.272727      2.000000
  0.181818  0.454545  0.272727      2.000000
  0.272727  0.454545  0.272727      2.000000
  0.363636  0.454545  0.272727      2.000000
  0.454545  0.454545  0.272727      2.000000
 -0.454545  0.454545  0.272727      2.000000
 -0.363636  0.454545  0.272727      2.000000
 -0.272727  0.454545  0.272727      2.000000
 -0.181818  0.454545  0.272727      2.000000
 -0.090909  0.454545  0.272727      2.000000
  0.000000 -0.454545  0.272727      2.000000
  0.090909 -0.454545  0.272727      2.000000
  0.181818 -0.454545  0.272727      2.000000
  0.272727 -0.454545  0.272727      2.000000
  0.363636 -0.454545  0.272727      2.000000
  0.454545 -0.454545  0.272727      2.000000
 -0.454545 -0.454545  0.272727      2.000000
 -0.363636 -0.454545  0.272727      2.000000
 -0.272727 -0.454545  0.272727      2.000000
 -0.181818 -0.454545  0.272727      2.000000
 -0.090909 -0.454545  0.272727      2.000000
  0.000000 -0.363636  0.272727      2.000000
  0.090909 -0.363636  0.272727      2.000000
  0.181818 -0.363636  0.272727      2.000000
  0.272727 -0.363636  0.272727      2.000000
  0.363636 -0.363636  0.272727      2.000000
  0.454545 -0.363636  0.272727      2.000000
 -0.454545 -0.363636  0.272727      2.000000
 -0.363636 -0.363636  0.272727      2.000000
 -0.272727 -0.363636  0.272727      2.000000
 -0.181818 -0.363636  0.272727      2.000000
 -0.090909 -0.363636  0.272727      2.000000
  0.000000 -0.272727  0.272727      2.000000
  0.090909 -0.272727  0.272727      2.000000
  0.181818 -0.272727  0.272727      2.000000
  0.272727 -0.272727  0.272727      2.000000
  0.363636 -0.272727  0.272727      2.000000
  0.454545 -0.272727  0.272727      2.000000
 -0.454545 -0.272727  0.272727      2.000000
 -0.363636 -0.272727  0.272727      2.000000
 -0.272727 -0.272727  0.272727      2.000000
 -0.181818 -0.272727  0.272727      2.000000
 -0.090909 -0.272727  0.272727      2.000000
  0.000000 -0.181818  0.272727      2.000000
  0.090909 -0.181818  0.272727      2.000000
  0.181818 -0.181818  0.272727      2.000000
  0.272727 -0.181818  0.272727      2.000000
  0.363636 -0.181818  0.272727      2.000000
  0.454545 -0.181818  0.272727      2.000000
 -0.454545 -0.181818  0.272727      2.000000
 -0.363636 -0.181818  0.272727      2.000000
 -0.272727 -0.181818  0.272727      2.000000
 -0.181818 -0.181818  0.272727      2.000000
 -0.090909 -0.181818  0.272727      2.000000
  0.000000 -0.090909  0.272727      2.000000
  0.090909 -0.090909  0.272727      2.000000
  0.181818 -0.090909  0.272727      2.000000
  0.272727 -0.090909  0.272727      2.000000
  0.363636 -0.090909  0.272727      2.000000
  0.454545 -0.090909  0.272727      2.000000
 -0.454545 -0.090909  0.272727      2.000000
 -0.363636 -0.090909  0.272727      2.000000
 -0.272727 -0.090909  0.272727      2.000000
 -0.181818 -0.090909  0.272727      2.000000
 -0.090909 -0.090909  0.272727      2.000000
  0.000000  0.000000  0.363636      2.000000
  0.090909  0.000000  0.363636      2.000000
  0.181818  0.000000  0.363636      2.000000
  0.272727  0.000000  0.363636      2.000000
  0.363636  0.000000  0.363636      2.000000
  0.454545  0.000000  0.363636      2.000000
 -0.454545 -0.000000  0.363636      2.000000
 -0.363636  0.000000  0.363636      2.000000
 -0.272727 -0.000000  0.363636      2.000000
 -0.181818  0.000000  0.363636      2.000000
 -0.090909  0.000000  0.363636      2.000000
  0.000000  0.090909  0.363636      2.000000
  0.090909  0.090909  0.363636      2.000000
  0.181818  0.090909  0.363636      2.000000
  0.272727  0.090909  0.363636      2.000000
  0.363636  0.090909  0.363636      2.000000
  0.454545  0.090909  0.363636      2.000000
 -0.454545  0.090909  0.363636      2.000000
 -0.363636  0.090909  0.363636      2.000000
 -0.272727  0.090909  0.363636      2.000000
 -0.181818  0.090909  0.363636      2.000000
 -0.090909  0.090909  0.363636      2.000000
  0.000000  0.181818  0.363636      2.000000
  0.090909  0.181818  0.363636      2.000000
  0.181818  0.181818  0.363636      2.000000
  0.272727  0.181818  0.363636      2.000000
  0.363636  0.181818  0.363636      2.000000
  0.454545  0.181818  0.363636      2.000000
 -0.454545  0.181818  0.363636      2.000000
 -0.363636  0.181818  0.363636      2.000000
 -0.272727  0.181818  0.363636      2.000000
 -0.181818  0.181818  0.363636      2.000000
 -0.090909  0.181818  0.363636      2.000000
  0.000000  0.272727  0.363636      2.000000
  0.090909  0.272727  0.363636      2.000000
  0.181818  0.272727  0.363636      2.000000
  0.272727  0.272727  0.363636      2.000000
  0.363636  0.272727  0.363636      2.000000
  0.454545  0.272727  0.363636      2.000000
 -0.454545  0.272727  0.363636      2.000000
 -0.363636  0.272727  0.363636      2.000000
 -0.272727  0.272727  0.363636      2.000000
 -0.181818  0.272727  0.363636      2.000000
 -0.090909  0.272727  0.363636      2.000000
  0.000000  0.363636  0.363636      2.000000
  0.090909  0.363636  0.363636      2.000000
  0.181818  0.363636  0.363636      2.000000
  0.272727  0.363636  0.363636      2.000000
  0.363636  0.363636  0.363636      2.000000
  0.454545  0.363636  0.363636      2.000000
 -0.454545  0.363636  0.363636      2.000000
 -0.363636  0.363636  0.363636      2.000000
 -0.272727  0.363636  0.363636      2.000000
 -0.181818  0.363636  0.363636      2.000000
 -0.090909  0.363636  0.363636      2.000000
  0.000000  0.454545  0.363636      2.000000
  0.090909  0.454545  0.363636      2.000000
  0.181818  0.454545  0.363636      2.000000
  0.272727  0.454545  0.363636      2.000000
  0.363636  0.454545  0.363636      2.000000
  0.454545  0.454545  0.363636      2.000000
 -0.454545  0.454545  0.363636      2.000000
 -0.363636  0.454545  0.363636      2.000000
 -0.272727  0.454545  0.363636      2.000000
 -0.181818  0.454545  0.363636      2.000000
 -0.090909  0.454545  0.363636      2.000000
  0.000000 -0.454545  0.363636      2.000000
  0.090909 -0.454545  0.363636      2.000000
  0.181818 -0.454545  0.363636      2.000000
  0.272727 -0.454545  0.363636      2.000000
  0.363636 -0.454545  0.363636      2.000000
  0.454545 -0.454545  0.363636      2.000000
 -0.454545 -0.454545  0.363636      2.000000
 -0.363636 -0.454545  0.363636      2.000000
 -0.272727 -0.454545  0.363636      2.000000
 -0.181818 -0.454545  0.363636      2.000000
 -0.090909 -0.454545  0.363636      2.000000
  0.000000 -0.363636  0.363636      2.000000
  0.090909 -0.363636  0.363636      2.000000
  0.181818 -0.363636  0.363636      2.000000
  0.272727 -0.363636  0.363636      2.000000
  0.363636 -0.363636  0.363636      2.000000
  0.454545 -0.363636  0.363636      2.000000
 -0.454545 -0.363636  0.363636      2.000000
 -0.363636 -0.363636  0.363636      2.000000
 -0.272727 -0.363636  0.363636      2.000000
 -0.181818 -0.363636  0.363636      2.000000
 -0.090909 -0.363636  0.363636      2.000000
  0.000000 -0.272727  0.363636      2.000000
  0.090909 -0.272727  0.363636      2.000000
  0.181818 -0.272727  0.363636      2.000000
  0.272727 -0.272727  0.363636      2.000000
  0.363636 -0.272727  0.363636      2.000000
  0.454545 -0.272727  0.363636      2.000000
 -0.454545 -0.272727  0.363636      2.000000
 -0.363636 -0.272727  0.363636      2.000000
 -0.272727 -0.272727  0.363636      2.000000
 -0.181818 -0.272727  0.363636      2.000000
 -0.090909 -0.272727  0.363636      2.000000
  0.000000 -0.181818  0.363636      2.000000
  0.090909 -0.181818  0.363636      2.000000
  0.181818 -0.181818  0.363636      2.000000
  0.272727 -0.181818  0.363636      2.000000
  0.363636 -0.181818  0.363636      2.000000
  0.454545 -0.181818  0.363636      2.000000
 -0.454545 -0.181818  0.363636      2.000000
 -0.363636 -0.181818  0.363636      2.000000
 -0.272727 -0.181818  0.363636      2.000000
 -0.181818 -0.181818  0.363636      2.000000
 -0.090909 -0.181818  0.363636      2.000000
  0.000000 -0.090909  0.363636      2.000000
  0.090909 -0.090909  0.363636      2.000000
  0.181818 -0.090909  0.363636      2.000000
  0.272727 -0.090909  0.363636      2.000000
  0.363636 -0.090909  0.363636      2.000000
  0.454545 -0.090909  0.363636      2.000000
 -0.454545 -0.090909  0.363636      2.000000
 -0.363636 -0.090909  0.363636      2.000000
 -0.272727 -0.090909  0.363636      2.000000
 -0.181818 -0.090909  0.363636      2.000000
 -0.090909 -0.090909  0.363636      2.000000
  0.000000  0.000000  0.454545      2.000000
  0.090909  0.000000  0.454545      2.000000
  0.181818  0.000000  0.454545      2.000000
  0.272727  0.000000  0.454545      2.000000
  0.363636  0.000000  0.454545      2.000000
  0.454545  0.000000  0.454545      2.000000
 -0.454545 -0.000000  0.454545      2.000000
 -0.363636  0.000000  0.454545      2.000000
 -0.272727 -0.000000  0.454545      2.000000
 -0.181818  0.000000  0.454545      2.000000
 -0.090909  0.000000  0.454545      2.000000
  0.000000  0.090909  0.454545      2.000000
  0.090909  0.090909  0.454545      2.000000
  0.181818  0.090909  0.454545      2.000000
  0.272727  0.090909  0.454545      2.000000
  0.363636  0.090909  0.454545      2.000000
  0.454545  0.090909  0.454545      2.000000
 -0.454545  0.090909  0.454545      2.000000
 -0.363636  0.090909  0.454545      2.000000
 -0.272727  0.090909  0.454545      2.000000
 -0.181818  0.090909  0.454545      2.000000
 -0.090909  0.090909  0.454545      2.000000
  0.000000  0.181818  0.454545      2.000000
  0.090909  0.181818  0.454545      2.000000
  0.181818  0.181818  0.454545      2.000000
  0.272727  0.181818  0.454545      2.000000
  0.363636  0.181818  0.454545      2.000000
  0.454545  0.181818  0.454545      2.000000
 -0.454545  0.181818  0.454545      2.000000
 -0.363636  0.181818  0.454545      2.000000
 -0.272727  0.181818  0.454545      2.000000
 -0.181818  0.181818  0.454545      2.000000
 -0.090909  0.181818  0.454545      2.000000
  0.000000  0.272727  0.454545      2.000000
  0.090909  0.272727  0.454545      2.000000
  0.181818  0.272727  0.454545      2.000000
  0.272727  0.272727  0.454545      2.000000
  0.363636  0.272727  0.454545      2.000000
  0.454545  0.272727  0.454545      2.000000
 -0.454545  0.272727  0.454545      2.000000
 -0.363636  0.272727  0.454545      2.000000
 -0.272727  0.272727  0.454545      2.000000
 -0.181818  0.272727  0.454545      2.000000
 -0.090909  0.272727  0.454545      2.000000
  0.000000  0.363636  0.454545      2.000000
  0.090909  0.363636  0.454545      2.000000
  0.181818  0.363636  0.454545      2.000000
  0.272727  0.363636  0.454545      2.000000
  0.363636  0.363636  0.454545      2.000000
  0.454545  0.363636  0.454545      2.000000
 -0.454545  0.363636  0.454545      2.000000
 -0.363636  0.363636  0.454545      2.000000
 -0.272727  0.363636  0.454545      2.000000
 -0.181818  0.363636  0.454545      2.000000
 -0.090909  0.363636  0.454545      2.000000
  0.000000  0.454545  0.454545      2.000000
  0.090909  0.454545  0.454545      2.000000
  0.181818  0.454545  0.454545      2.000000
  0.272727  0.454545  0.454545      2.000000
  0.363636  0.454545  0.454545      2.000000
  0.454545  0.454545  0.454545      2.000000
 -0.454545  0.454545  0.454545      2.000000
 -0.363636  0.454545  0.454545      2.000000
 -0.272727  0.454545  0.454545      2.000000
 -0.181818  0.454545  0.454545      2.000000
 -0.090909  0.454545  0.454545      2.000000
  0.000000 -0.454545  0.454545      2.000000
  0.090909 -0.454545  0.454545      2.000000
  0.181818 -0.454545  0.454545      2.000000
  0.272727 -0.454545  0.454545      2.000000
  0.363636 -0.454545  0.454545      2.000000
  0.454545 -0.454545  0.454545      2.000000
 -0.454545 -0.454545  0.454545      2.000000
 -0.363636 -0.454545  0.454545      2.000000
 -0.272727 -0.454545  0.454545      2.000000
 -0.181818 -0.454545  0.454545      2.000000
 -0.090909 -0.454545  0.454545      2.000000
  0.000000 -0.363636  0.454545      2.000000
  0.090909 -0.363636  0.454545      2.000000
  0.181818 -0.363636  0.454545      2.000000
  0.272727 -0.363636  0.454545      2.000000
  0.363636 -0.363636  0.454545      2.000000
  0.454545 -0.363636  0.454545      2.000000
 -0.454545 -0.363636  0.454545      2.000000
 -0.363636 -0.363636  0.454545      2.000000
 -0.272727 -0.363636  0.454545      2.000000
 -0.181818 -0.363636  0.454545      2.000000
 -0.090909 -0.363636  0.454545      2.000000
  0.000000 -0.272727  0.454545      2.000000
  0.090909 -0.272727  0.454545      2.000000
  0.181818 -0.272727  0.454545      2.000000
  0.272727 -0.272727  0.454545      2.000000
  0.363636 -0.272727  0.454545      2.000000
  0.454545 -0.272727  0.454545      2.000000
 -0.454545 -0.272727  0.454545      2.000000
 -0.363636 -0.272727  0.454545      2.000000
 -0.272727 -0.272727  0.454545      2.000000
 -0.181818 -0.272727  0.454545      2.000000
 -0.090909 -0.272727  0.454545      2.000000
  0.000000 -0.181818  0.454545      2.000000
  0.090909 -0.181818  0.454545      2.000000
  0.181818 -0.181818  0.454545      2.000000
  0.272727 -0.181818  0.454545      2.000000
  0.363636 -0.181818  0.454545      2.000000
  0.454545 -0.181818  0.454545      2.000000
 -0.454545 -0.181818  0.454545      2.000000
 -0.363636 -0.181818  0.454545      2.000000
 -0.272727 -0.181818  0.454545      2.000000
 -0.181818 -0.181818  0.454545      2.000000
 -0.090909 -0.181818  0.454545      2.000000
  0.000000 -0.090909  0.454545      2.000000
  0.090909 -0.090909  0.454545      2.000000
  0.181818 -0.090909  0.454545      2.000000
  0.272727 -0.090909  0.454545      2.000000
  0.363636 -0.090909  0.454545      2.000000
  0.454545 -0.090909  0.454545      2.000000
 -0.454545 -0.090909  0.454545      2.000000
 -0.363636 -0.090909  0.454545      2.000000
 -0.272727 -0.090909  0.454545      2.000000
 -0.181818 -0.090909  0.454545      2.000000
 -0.090909 -0.090909  0.454545      2.000000
 
 Following cartesian coordinates:
            Coordinates               Weight
  0.000000  0.000000  0.000000      1.000000
  0.023506 -0.013571 -0.009596      2.000000
  0.047012 -0.027143 -0.019193      2.000000
  0.070519 -0.040714 -0.028789      2.000000
  0.094025 -0.054285 -0.038385      2.000000
  0.117531 -0.067856 -0.047982      2.000000
  0.000000  0.027143  0.019193      2.000000
  0.023506  0.013571  0.009596      2.000000
  0.047012  0.000000  0.000000      2.000000
  0.070519 -0.013571 -0.009596      2.000000
  0.094025 -0.027143 -0.019193      2.000000
  0.117531 -0.040714 -0.028789      2.000000
 -0.117531  0.094999  0.067174      2.000000
 -0.094025  0.081428  0.057578      2.000000
 -0.070519  0.067856  0.047982      2.000000
 -0.047012  0.054285  0.038385      2.000000
 -0.023506  0.040714  0.028789      2.000000
  0.000000  0.054285  0.038385      2.000000
  0.023506  0.040714  0.028789      2.000000
  0.047012  0.027143  0.019193      2.000000
  0.070519  0.013571  0.009596      2.000000
  0.094025  0.000000  0.000000      2.000000
  0.117531 -0.013571 -0.009596      2.000000
 -0.117531  0.122142  0.086367      2.000000
 -0.094025  0.108570  0.076771      2.000000
 -0.070519  0.094999  0.067174      2.000000
 -0.047012  0.081428  0.057578      2.000000
 -0.023506  0.067856  0.047982      2.000000
  0.000000  0.081428  0.057578      2.000000
  0.023506  0.067856  0.047982      2.000000
  0.047012  0.054285  0.038385      2.000000
  0.070519  0.040714  0.028789      2.000000
  0.094025  0.027143  0.019193      2.000000
  0.117531  0.013571  0.009596      2.000000
 -0.117531  0.149284  0.105560      2.000000
 -0.094025  0.135713  0.095963      2.000000
 -0.070519  0.122142  0.086367      2.000000
 -0.047012  0.108570  0.076771      2.000000
 -0.023506  0.094999  0.067174      2.000000
  0.000000  0.108570  0.076771      2.000000
  0.023506  0.094999  0.067174      2.000000
  0.047012  0.081428  0.057578      2.000000
  0.070519  0.067856  0.047982      2.000000
  0.094025  0.054285  0.038385      2.000000
  0.117531  0.040714  0.028789      2.000000
 -0.117531  0.176427  0.124752      2.000000
 -0.094025  0.162855  0.115156      2.000000
 -0.070519  0.149284  0.105560      2.000000
 -0.047012  0.135713  0.095963      2.000000
 -0.023506  0.122142  0.086367      2.000000
  0.000000  0.135713  0.095963      2.000000
  0.023506  0.122142  0.086367      2.000000
  0.047012  0.108570  0.076771      2.000000
  0.070519  0.094999  0.067174      2.000000
  0.094025  0.081428  0.057578      2.000000
  0.117531  0.067856  0.047982      2.000000
 -0.117531  0.203569  0.143945      2.000000
 -0.094025  0.189998  0.134349      2.000000
 -0.070519  0.176427  0.124752      2.000000
 -0.047012  0.162855  0.115156      2.000000
 -0.023506  0.149284  0.105560      2.000000
  0.000000  0.000000  0.028789      2.000000
  0.023506 -0.013571  0.019193      2.000000
  0.047012 -0.027143  0.009596      2.000000
  0.070519 -0.040714  0.000000      2.000000
  0.094025 -0.054285 -0.009596      2.000000
  0.117531 -0.067856 -0.019193      2.000000
 -0.117531  0.067856  0.076771      2.000000
 -0.094025  0.054285  0.067174      2.000000
 -0.070519  0.040714  0.057578      2.000000
 -0.047012  0.027143  0.047982      2.000000
 -0.023506  0.013571  0.038385      2.000000
  0.000000  0.027143  0.047982      2.000000
  0.023506  0.013571  0.038385      2.000000
  0.047012  0.000000  0.028789      2.000000
  0.070519 -0.013571  0.019193      2.000000
  0.094025 -0.027143  0.009596      2.000000
  0.117531 -0.040714  0.000000      2.000000
 -0.117531  0.094999  0.095963      2.000000
 -0.094025  0.081428  0.086367      2.000000
 -0.070519  0.067856  0.076771      2.000000
 -0.047012  0.054285  0.067174      2.000000
 -0.023506  0.040714  0.057578      2.000000
  0.000000  0.054285  0.067174      2.000000
  0.023506  0.040714  0.057578      2.000000
  0.047012  0.027143  0.047982      2.000000
  0.070519  0.013571  0.038385      2.000000
  0.094025  0.000000  0.028789      2.000000
  0.117531 -0.013571  0.019193      2.000000
 -0.117531  0.122142  0.115156      2.000000
 -0.094025  0.108570  0.105560      2.000000
 -0.070519  0.094999  0.095963      2.000000
 -0.047012  0.081428  0.086367      2.000000
 -0.023506  0.067856  0.076771      2.000000
  0.000000  0.081428  0.086367      2.000000
  0.023506  0.067856  0.076771      2.000000
  0.047012  0.054285  0.067174      2.000000
  0.070519  0.040714  0.057578      2.000000
  0.094025  0.027143  0.047982      2.000000
  0.117531  0.013571  0.038385      2.000000
 -0.117531  0.149284  0.134349      2.000000
 -0.094025  0.135713  0.124752      2.000000
 -0.070519  0.122142  0.115156      2.000000
 -0.047012  0.108570  0.105560      2.000000
 -0.023506  0.094999  0.095963      2.000000
  0.000000  0.108570  0.105560      2.000000
  0.023506  0.094999  0.095963      2.000000
  0.047012  0.081428  0.086367      2.000000
  0.070519  0.067856  0.076771      2.000000
  0.094025  0.054285  0.067174      2.000000
  0.117531  0.040714  0.057578      2.000000
 -0.117531  0.176427  0.153541      2.000000
 -0.094025  0.162855  0.143945      2.000000
 -0.070519  0.149284  0.134349      2.000000
 -0.047012  0.135713  0.124752      2.000000
 -0.023506  0.122142  0.115156      2.000000
  0.000000  0.135713  0.124752      2.000000
  0.023506  0.122142  0.115156      2.000000
  0.047012  0.108570  0.105560      2.000000
  0.070519  0.094999  0.095963      2.000000
  0.094025  0.081428  0.086367      2.000000
  0.117531  0.067856  0.076771      2.000000
 -0.117531  0.203569  0.172734      2.000000
 -0.094025  0.189998  0.163138      2.000000
 -0.070519  0.176427  0.153541      2.000000
 -0.047012  0.162855  0.143945      2.000000
 -0.023506  0.149284  0.134349      2.000000
  0.000000 -0.135713 -0.067174      2.000000
  0.023506 -0.149284 -0.076771      2.000000
  0.047012 -0.162855 -0.086367      2.000000
  0.070519 -0.176427 -0.095963      2.000000
  0.094025 -0.189998 -0.105560      2.000000
  0.117531 -0.203569 -0.115156      2.000000
 -0.117531 -0.067856 -0.019193      2.000000
 -0.094025 -0.081428 -0.028789      2.000000
 -0.070519 -0.094999 -0.038385      2.000000
 -0.047012 -0.108570 -0.047982      2.000000
 -0.023506 -0.122142 -0.057578      2.000000
  0.000000 -0.108570 -0.047982      2.000000
  0.023506 -0.122142 -0.057578      2.000000
  0.047012 -0.135713 -0.067174      2.000000
  0.070519 -0.149284 -0.076771      2.000000
  0.094025 -0.162855 -0.086367      2.000000
  0.117531 -0.176427 -0.095963      2.000000
 -0.117531 -0.040714  0.000000      2.000000
 -0.094025 -0.054285 -0.009596      2.000000
 -0.070519 -0.067856 -0.019193      2.000000
 -0.047012 -0.081428 -0.028789      2.000000
 -0.023506 -0.094999 -0.038385      2.000000
  0.000000 -0.081428 -0.028789      2.000000
  0.023506 -0.094999 -0.038385      2.000000
  0.047012 -0.108570 -0.047982      2.000000
  0.070519 -0.122142 -0.057578      2.000000
  0.094025 -0.135713 -0.067174      2.000000
  0.117531 -0.149284 -0.076771      2.000000
 -0.117531 -0.013571  0.019193      2.000000
 -0.094025 -0.027143  0.009596      2.000000
 -0.070519 -0.040714  0.000000      2.000000
 -0.047012 -0.054285 -0.009596      2.000000
 -0.023506 -0.067856 -0.019193      2.000000
  0.000000 -0.054285 -0.009596      2.000000
  0.023506 -0.067856 -0.019193      2.000000
  0.047012 -0.081428 -0.028789      2.000000
  0.070519 -0.094999 -0.038385      2.000000
  0.094025 -0.108570 -0.047982      2.000000
  0.117531 -0.122142 -0.057578      2.000000
 -0.117531  0.013571  0.038385      2.000000
 -0.094025 -0.000000  0.028789      2.000000
 -0.070519 -0.013571  0.019193      2.000000
 -0.047012 -0.027143  0.009596      2.000000
 -0.023506 -0.040714  0.000000      2.000000
  0.000000 -0.027143  0.009596      2.000000
  0.023506 -0.040714  0.000000      2.000000
  0.047012 -0.054285 -0.009596      2.000000
  0.070519 -0.067856 -0.019193      2.000000
  0.094025 -0.081428 -0.028789      2.000000
  0.117531 -0.094999 -0.038385      2.000000
 -0.117531  0.040714  0.057578      2.000000
 -0.094025  0.027143  0.047982      2.000000
 -0.070519  0.013571  0.038385      2.000000
 -0.047012 -0.000000  0.028789      2.000000
 -0.023506 -0.013571  0.019193      2.000000
  0.000000  0.000000  0.057578      2.000000
  0.023506 -0.013571  0.047982      2.000000
  0.047012 -0.027143  0.038385      2.000000
  0.070519 -0.040714  0.028789      2.000000
  0.094025 -0.054285  0.019193      2.000000
  0.117531 -0.067856  0.009596      2.000000
 -0.117531  0.067856  0.105560      2.000000
 -0.094025  0.054285  0.095963      2.000000
 -0.070519  0.040714  0.086367      2.000000
 -0.047012  0.027143  0.076771      2.000000
 -0.023506  0.013571  0.067174      2.000000
  0.000000  0.027143  0.076771      2.000000
  0.023506  0.013571  0.067174      2.000000
  0.047012  0.000000  0.057578      2.000000
  0.070519 -0.013571  0.047982      2.000000
  0.094025 -0.027143  0.038385      2.000000
  0.117531 -0.040714  0.028789      2.000000
 -0.117531  0.094999  0.124752      2.000000
 -0.094025  0.081428  0.115156      2.000000
 -0.070519  0.067856  0.105560      2.000000
 -0.047012  0.054285  0.095963      2.000000
 -0.023506  0.040714  0.086367      2.000000
  0.000000  0.054285  0.095963      2.000000
  0.023506  0.040714  0.086367      2.000000
  0.047012  0.027143  0.076771      2.000000
  0.070519  0.013571  0.067174      2.000000
  0.094025  0.000000  0.057578      2.000000
  0.117531 -0.013571  0.047982      2.000000
 -0.117531  0.122142  0.143945      2.000000
 -0.094025  0.108570  0.134349      2.000000
 -0.070519  0.094999  0.124752      2.000000
 -0.047012  0.081428  0.115156      2.000000
 -0.023506  0.067856  0.105560      2.000000
  0.000000  0.081428  0.115156      2.000000
  0.023506  0.067856  0.105560      2.000000
  0.047012  0.054285  0.095963      2.000000
  0.070519  0.040714  0.086367      2.000000
  0.094025  0.027143  0.076771      2.000000
  0.117531  0.013571  0.067174      2.000000
 -0.117531  0.149284  0.163138      2.000000
 -0.094025  0.135713  0.153542      2.000000
 -0.070519  0.122142  0.143945      2.000000
 -0.047012  0.108570  0.134349      2.000000
 -0.023506  0.094999  0.124752      2.000000
  0.000000  0.108570  0.134349      2.000000
  0.023506  0.094999  0.124753      2.000000
  0.047012  0.081428  0.115156      2.000000
  0.070519  0.067856  0.105560      2.000000
  0.094025  0.054285  0.095963      2.000000
  0.117531  0.040714  0.086367      2.000000
 -0.117531  0.176427  0.182331      2.000000
 -0.094025  0.162855  0.172734      2.000000
 -0.070519  0.149284  0.163138      2.000000
 -0.047012  0.135713  0.153542      2.000000
 -0.023506  0.122142  0.143945      2.000000
  0.000000  0.135713  0.153542      2.000000
  0.023506  0.122142  0.143945      2.000000
  0.047012  0.108570  0.134349      2.000000
  0.070519  0.094999  0.124753      2.000000
  0.094025  0.081428  0.115156      2.000000
  0.117531  0.067856  0.105560      2.000000
 -0.117531  0.203569  0.201523      2.000000
 -0.094025  0.189998  0.191927      2.000000
 -0.070519  0.176427  0.182331      2.000000
 -0.047012  0.162855  0.172734      2.000000
 -0.023506  0.149284  0.163138      2.000000
  0.000000 -0.135713 -0.038385      2.000000
  0.023506 -0.149284 -0.047982      2.000000
  0.047012 -0.162855 -0.057578      2.000000
  0.070519 -0.176427 -0.067174      2.000000
  0.094025 -0.189998 -0.076771      2.000000
  0.117531 -0.203569 -0.086367      2.000000
 -0.117531 -0.067856  0.009596      2.000000
 -0.094025 -0.081428  0.000000      2.000000
 -0.070519 -0.094999 -0.009596      2.000000
 -0.047012 -0.108570 -0.019193      2.000000
 -0.023506 -0.122142 -0.028789      2.000000
  0.000000 -0.108570 -0.019193      2.000000
  0.023506 -0.122142 -0.028789      2.000000
  0.047012 -0.135713 -0.038385      2.000000
  0.070519 -0.149284 -0.047982      2.000000
  0.094025 -0.162855 -0.057578      2.000000
  0.117531 -0.176427 -0.067174      2.000000
 -0.117531 -0.040714  0.028789      2.000000
 -0.094025 -0.054285  0.019193      2.000000
 -0.070519 -0.067856  0.009596      2.000000
 -0.047012 -0.081428  0.000000      2.000000
 -0.023506 -0.094999 -0.009596      2.000000
  0.000000 -0.081428  0.000000      2.000000
  0.023506 -0.094999 -0.009596      2.000000
  0.047012 -0.108570 -0.019193      2.000000
  0.070519 -0.122142 -0.028789      2.000000
  0.094025 -0.135713 -0.038385      2.000000
  0.117531 -0.149284 -0.047982      2.000000
 -0.117531 -0.013571  0.047982      2.000000
 -0.094025 -0.027143  0.038385      2.000000
 -0.070519 -0.040714  0.028789      2.000000
 -0.047012 -0.054285  0.019193      2.000000
 -0.023506 -0.067856  0.009596      2.000000
  0.000000 -0.054285  0.019193      2.000000
  0.023506 -0.067856  0.009596      2.000000
  0.047012 -0.081428  0.000000      2.000000
  0.070519 -0.094999 -0.009596      2.000000
  0.094025 -0.108570 -0.019193      2.000000
  0.117531 -0.122142 -0.028789      2.000000
 -0.117531  0.013571  0.067174      2.000000
 -0.094025 -0.000000  0.057578      2.000000
 -0.070519 -0.013571  0.047982      2.000000
 -0.047012 -0.027143  0.038385      2.000000
 -0.023506 -0.040714  0.028789      2.000000
  0.000000 -0.027143  0.038385      2.000000
  0.023506 -0.040714  0.028789      2.000000
  0.047012 -0.054285  0.019193      2.000000
  0.070519 -0.067856  0.009596      2.000000
  0.094025 -0.081428  0.000000      2.000000
  0.117531 -0.094999 -0.009596      2.000000
 -0.117531  0.040714  0.086367      2.000000
 -0.094025  0.027143  0.076771      2.000000
 -0.070519  0.013571  0.067174      2.000000
 -0.047012 -0.000000  0.057578      2.000000
 -0.023506 -0.013571  0.047982      2.000000
  0.000000  0.000000  0.086367      2.000000
  0.023506 -0.013571  0.076771      2.000000
  0.047012 -0.027143  0.067174      2.000000
  0.070519 -0.040714  0.057578      2.000000
  0.094025 -0.054285  0.047982      2.000000
  0.117531 -0.067856  0.038385      2.000000
 -0.117531  0.067856  0.134349      2.000000
 -0.094025  0.054285  0.124753      2.000000
 -0.070519  0.040714  0.115156      2.000000
 -0.047012  0.027143  0.105560      2.000000
 -0.023506  0.013571  0.095963      2.000000
  0.000000  0.027143  0.105560      2.000000
  0.023506  0.013571  0.095964      2.000000
  0.047012  0.000000  0.086367      2.000000
  0.070519 -0.013571  0.076771      2.000000
  0.094025 -0.027143  0.067174      2.000000
  0.117531 -0.040714  0.057578      2.000000
 -0.117531  0.094999  0.153542      2.000000
 -0.094025  0.081428  0.143945      2.000000
 -0.070519  0.067856  0.134349      2.000000
 -0.047012  0.054285  0.124753      2.000000
 -0.023506  0.040714  0.115156      2.000000
  0.000000  0.054285  0.124753      2.000000
  0.023506  0.040714  0.115156      2.000000
  0.047012  0.027143  0.105560      2.000000
  0.070519  0.013571  0.095964      2.000000
  0.094025  0.000000  0.086367      2.000000
  0.117531 -0.013571  0.076771      2.000000
 -0.117531  0.122142  0.172734      2.000000
 -0.094025  0.108570  0.163138      2.000000
 -0.070519  0.094999  0.153542      2.000000
 -0.047012  0.081428  0.143945      2.000000
 -0.023506  0.067856  0.134349      2.000000
  0.000000  0.081428  0.143945      2.000000
  0.023506  0.067856  0.134349      2.000000
  0.047012  0.054285  0.124753      2.000000
  0.070519  0.040714  0.115156      2.000000
  0.094025  0.027143  0.105560      2.000000
  0.117531  0.013571  0.095964      2.000000
 -0.117531  0.149284  0.191927      2.000000
 -0.094025  0.135713  0.182331      2.000000
 -0.070519  0.122142  0.172734      2.000000
 -0.047012  0.108570  0.163138      2.000000
 -0.023506  0.094999  0.153542      2.000000
  0.000000  0.108570  0.163138      2.000000
  0.023506  0.094999  0.153542      2.000000
  0.047012  0.081428  0.143945      2.000000
  0.070519  0.067856  0.134349      2.000000
  0.094025  0.054285  0.124753      2.000000
  0.117531  0.040714  0.115156      2.000000
 -0.117531  0.176427  0.211120      2.000000
 -0.094025  0.162855  0.201523      2.000000
 -0.070519  0.149284  0.191927      2.000000
 -0.047012  0.135713  0.182331      2.000000
 -0.023506  0.122142  0.172734      2.000000
  0.000000  0.135713  0.182331      2.000000
  0.023506  0.122142  0.172734      2.000000
  0.047012  0.108570  0.163138      2.000000
  0.070519  0.094999  0.153542      2.000000
  0.094025  0.081428  0.143945      2.000000
  0.117531  0.067856  0.134349      2.000000
 -0.117531  0.203569  0.230312      2.000000
 -0.094025  0.189998  0.220716      2.000000
 -0.070519  0.176427  0.211120      2.000000
 -0.047012  0.162855  0.201523      2.000000
 -0.023506  0.149284  0.191927      2.000000
  0.000000 -0.135713 -0.009596      2.000000
  0.023506 -0.149284 -0.019193      2.000000
  0.047012 -0.162855 -0.028789      2.000000
  0.070519 -0.176427 -0.038385      2.000000
  0.094025 -0.189998 -0.047982      2.000000
  0.117531 -0.203569 -0.057578      2.000000
 -0.117531 -0.067856  0.038385      2.000000
 -0.094025 -0.081428  0.028789      2.000000
 -0.070519 -0.094999  0.019193      2.000000
 -0.047012 -0.108570  0.009596      2.000000
 -0.023506 -0.122142  0.000000      2.000000
  0.000000 -0.108570  0.009596      2.000000
  0.023506 -0.122142  0.000000      2.000000
  0.047012 -0.135713 -0.009596      2.000000
  0.070519 -0.149284 -0.019193      2.000000
  0.094025 -0.162855 -0.028789      2.000000
  0.117531 -0.176427 -0.038385      2.000000
 -0.117531 -0.040714  0.057578      2.000000
 -0.094025 -0.054285  0.047982      2.000000
 -0.070519 -0.067856  0.038385      2.000000
 -0.047012 -0.081428  0.028789      2.000000
 -0.023506 -0.094999  0.019193      2.000000
  0.000000 -0.081428  0.028789      2.000000
  0.023506 -0.094999  0.019193      2.000000
  0.047012 -0.108570  0.009596      2.000000
  0.070519 -0.122142  0.000000      2.000000
  0.094025 -0.135713 -0.009596      2.000000
  0.117531 -0.149284 -0.019193      2.000000
 -0.117531 -0.013571  0.076771      2.000000
 -0.094025 -0.027143  0.067174      2.000000
 -0.070519 -0.040714  0.057578      2.000000
 -0.047012 -0.054285  0.047982      2.000000
 -0.023506 -0.067856  0.038385      2.000000
  0.000000 -0.054285  0.047982      2.000000
  0.023506 -0.067856  0.038385      2.000000
  0.047012 -0.081428  0.028789      2.000000
  0.070519 -0.094999  0.019193      2.000000
  0.094025 -0.108570  0.009596      2.000000
  0.117531 -0.122142  0.000000      2.000000
 -0.117531  0.013571  0.095963      2.000000
 -0.094025 -0.000000  0.086367      2.000000
 -0.070519 -0.013571  0.076771      2.000000
 -0.047012 -0.027143  0.067174      2.000000
 -0.023506 -0.040714  0.057578      2.000000
  0.000000 -0.027143  0.067174      2.000000
  0.023506 -0.040714  0.057578      2.000000
  0.047012 -0.054285  0.047982      2.000000
  0.070519 -0.067856  0.038385      2.000000
  0.094025 -0.081428  0.028789      2.000000
  0.117531 -0.094999  0.019193      2.000000
 -0.117531  0.040714  0.115156      2.000000
 -0.094025  0.027143  0.105560      2.000000
 -0.070519  0.013571  0.095963      2.000000
 -0.047012 -0.000000  0.086367      2.000000
 -0.023506 -0.013571  0.076771      2.000000
  0.000000  0.000000  0.115156      2.000000
  0.023506 -0.013571  0.105560      2.000000
  0.047012 -0.027143  0.095964      2.000000
  0.070519 -0.040714  0.086367      2.000000
  0.094025 -0.054285  0.076771      2.000000
  0.117531 -0.067856  0.067175      2.000000
 -0.117531  0.067856  0.163138      2.000000
 -0.094025  0.054285  0.153542      2.000000
 -0.070519  0.040714  0.143945      2.000000
 -0.047012  0.027143  0.134349      2.000000
 -0.023506  0.013571  0.124753      2.000000
  0.000000  0.027143  0.134349      2.000000
  0.023506  0.013571  0.124753      2.000000
  0.047012  0.000000  0.115156      2.000000
  0.070519 -0.013571  0.105560      2.000000
  0.094025 -0.027143  0.095964      2.000000
  0.117531 -0.040714  0.086367      2.000000
 -0.117531  0.094999  0.182331      2.000000
 -0.094025  0.081428  0.172734      2.000000
 -0.070519  0.067856  0.163138      2.000000
 -0.047012  0.054285  0.153542      2.000000
 -0.023506  0.040714  0.143945      2.000000
  0.000000  0.054285  0.153542      2.000000
  0.023506  0.040714  0.143945      2.000000
  0.047012  0.027143  0.134349      2.000000
  0.070519  0.013571  0.124753      2.000000
  0.094025  0.000000  0.115156      2.000000
  0.117531 -0.013571  0.105560      2.000000
 -0.117531  0.122142  0.201523      2.000000
 -0.094025  0.108570  0.191927      2.000000
 -0.070519  0.094999  0.182331      2.000000
 -0.047012  0.081428  0.172734      2.000000
 -0.023506  0.067856  0.163138      2.000000
  0.000000  0.081428  0.172734      2.000000
  0.023506  0.067856  0.163138      2.000000
  0.047012  0.054285  0.153542      2.000000
  0.070519  0.040714  0.143945      2.000000
  0.094025  0.027143  0.134349      2.000000
  0.117531  0.013571  0.124753      2.000000
 -0.117531  0.149284  0.220716      2.000000
 -0.094025  0.135713  0.211120      2.000000
 -0.070519  0.122142  0.201523      2.000000
 -0.047012  0.108570  0.191927      2.000000
 -0.023506  0.094999  0.182331      2.000000
  0.000000  0.108570  0.191927      2.000000
  0.023506  0.094999  0.182331      2.000000
  0.047012  0.081428  0.172734      2.000000
  0.070519  0.067856  0.163138      2.000000
  0.094025  0.054285  0.153542      2.000000
  0.117531  0.040714  0.143945      2.000000
 -0.117531  0.176427  0.239909      2.000000
 -0.094025  0.162855  0.230312      2.000000
 -0.070519  0.149284  0.220716      2.000000
 -0.047012  0.135713  0.211120      2.000000
 -0.023506  0.122142  0.201523      2.000000
  0.000000  0.135713  0.211120      2.000000
  0.023506  0.122142  0.201523      2.000000
  0.047012  0.108570  0.191927      2.000000
  0.070519  0.094999  0.182331      2.000000
  0.094025  0.081428  0.172734      2.000000
  0.117531  0.067856  0.163138      2.000000
 -0.117531  0.203569  0.259101      2.000000
 -0.094025  0.189998  0.249505      2.000000
 -0.070519  0.176427  0.239909      2.000000
 -0.047012  0.162855  0.230312      2.000000
 -0.023506  0.149284  0.220716      2.000000
  0.000000 -0.135713  0.019193      2.000000
  0.023506 -0.149284  0.009596      2.000000
  0.047012 -0.162855  0.000000      2.000000
  0.070519 -0.176427 -0.009596      2.000000
  0.094025 -0.189998 -0.019193      2.000000
  0.117531 -0.203569 -0.028789      2.000000
 -0.117531 -0.067856  0.067174      2.000000
 -0.094025 -0.081428  0.057578      2.000000
 -0.070519 -0.094999  0.047982      2.000000
 -0.047012 -0.108570  0.038385      2.000000
 -0.023506 -0.122142  0.028789      2.000000
  0.000000 -0.108570  0.038385      2.000000
  0.023506 -0.122142  0.028789      2.000000
  0.047012 -0.135713  0.019193      2.000000
  0.070519 -0.149284  0.009596      2.000000
  0.094025 -0.162855  0.000000      2.000000
  0.117531 -0.176427 -0.009596      2.000000
 -0.117531 -0.040714  0.086367      2.000000
 -0.094025 -0.054285  0.076771      2.000000
 -0.070519 -0.067856  0.067174      2.000000
 -0.047012 -0.081428  0.057578      2.000000
 -0.023506 -0.094999  0.047982      2.000000
  0.000000 -0.081428  0.057578      2.000000
  0.023506 -0.094999  0.047982      2.000000
  0.047012 -0.108570  0.038385      2.000000
  0.070519 -0.122142  0.028789      2.000000
  0.094025 -0.135713  0.019193      2.000000
  0.117531 -0.149284  0.009596      2.000000
 -0.117531 -0.013571  0.105560      2.000000
 -0.094025 -0.027143  0.095964      2.000000
 -0.070519 -0.040714  0.086367      2.000000
 -0.047012 -0.054285  0.076771      2.000000
 -0.023506 -0.067856  0.067174      2.000000
  0.000000 -0.054285  0.076771      2.000000
  0.023506 -0.067856  0.067175      2.000000
  0.047012 -0.081428  0.057578      2.000000
  0.070519 -0.094999  0.047982      2.000000
  0.094025 -0.108570  0.038385      2.000000
  0.117531 -0.122142  0.028789      2.000000
 -0.117531  0.013571  0.124753      2.000000
 -0.094025 -0.000000  0.115156      2.000000
 -0.070519 -0.013571  0.105560      2.000000
 -0.047012 -0.027143  0.095964      2.000000
 -0.023506 -0.040714  0.086367      2.000000
  0.000000 -0.027143  0.095964      2.000000
  0.023506 -0.040714  0.086367      2.000000
  0.047012 -0.054285  0.076771      2.000000
  0.070519 -0.067856  0.067175      2.000000
  0.094025 -0.081428  0.057578      2.000000
  0.117531 -0.094999  0.047982      2.000000
 -0.117531  0.040714  0.143945      2.000000
 -0.094025  0.027143  0.134349      2.000000
 -0.070519  0.013571  0.124753      2.000000
 -0.047012 -0.000000  0.115156      2.000000
 -0.023506 -0.013571  0.105560      2.000000
  0.000000  0.000000  0.143945      2.000000
  0.023506 -0.013571  0.134349      2.000000
  0.047012 -0.027143  0.124753      2.000000
  0.070519 -0.040714  0.115156      2.000000
  0.094025 -0.054285  0.105560      2.000000
  0.117531 -0.067856  0.095964      2.000000
 -0.117531  0.067856  0.191927      2.000000
 -0.094025  0.054285  0.182331      2.000000
 -0.070519  0.040714  0.172734      2.000000
 -0.047012  0.027143  0.163138      2.000000
 -0.023506  0.013571  0.153542      2.000000
  0.000000  0.027143  0.163138      2.000000
  0.023506  0.013571  0.153542      2.000000
  0.047012  0.000000  0.143945      2.000000
  0.070519 -0.013571  0.134349      2.000000
  0.094025 -0.027143  0.124753      2.000000
  0.117531 -0.040714  0.115156      2.000000
 -0.117531  0.094999  0.211120      2.000000
 -0.094025  0.081428  0.201523      2.000000
 -0.070519  0.067856  0.191927      2.000000
 -0.047012  0.054285  0.182331      2.000000
 -0.023506  0.040714  0.172734      2.000000
  0.000000  0.054285  0.182331      2.000000
  0.023506  0.040714  0.172734      2.000000
  0.047012  0.027143  0.163138      2.000000
  0.070519  0.013571  0.153542      2.000000
  0.094025  0.000000  0.143945      2.000000
  0.117531 -0.013571  0.134349      2.000000
 -0.117531  0.122142  0.230312      2.000000
 -0.094025  0.108570  0.220716      2.000000
 -0.070519  0.094999  0.211120      2.000000
 -0.047012  0.081428  0.201523      2.000000
 -0.023506  0.067856  0.191927      2.000000
  0.000000  0.081428  0.201523      2.000000
  0.023506  0.067856  0.191927      2.000000
  0.047012  0.054285  0.182331      2.000000
  0.070519  0.040714  0.172734      2.000000
  0.094025  0.027143  0.163138      2.000000
  0.117531  0.013571  0.153542      2.000000
 -0.117531  0.149284  0.249505      2.000000
 -0.094025  0.135713  0.239909      2.000000
 -0.070519  0.122142  0.230312      2.000000
 -0.047012  0.108570  0.220716      2.000000
 -0.023506  0.094999  0.211120      2.000000
  0.000000  0.108570  0.220716      2.000000
  0.023506  0.094999  0.211120      2.000000
  0.047012  0.081428  0.201523      2.000000
  0.070519  0.067856  0.191927      2.000000
  0.094025  0.054285  0.182331      2.000000
  0.117531  0.040714  0.172734      2.000000
 -0.117531  0.176427  0.268698      2.000000
 -0.094025  0.162855  0.259101      2.000000
 -0.070519  0.149284  0.249505      2.000000
 -0.047012  0.135713  0.239909      2.000000
 -0.023506  0.122142  0.230312      2.000000
  0.000000  0.135713  0.239909      2.000000
  0.023506  0.122142  0.230312      2.000000
  0.047012  0.108570  0.220716      2.000000
  0.070519  0.094999  0.211120      2.000000
  0.094025  0.081428  0.201523      2.000000
  0.117531  0.067856  0.191927      2.000000
 -0.117531  0.203569  0.287890      2.000000
 -0.094025  0.189998  0.278294      2.000000
 -0.070519  0.176427  0.268698      2.000000
 -0.047012  0.162855  0.259101      2.000000
 -0.023506  0.149284  0.249505      2.000000
  0.000000 -0.135713  0.047982      2.000000
  0.023506 -0.149284  0.038386      2.000000
  0.047012 -0.162855  0.028789      2.000000
  0.070519 -0.176427  0.019193      2.000000
  0.094025 -0.189998  0.009596      2.000000
  0.117531 -0.203569  0.000000      2.000000
 -0.117531 -0.067856  0.095964      2.000000
 -0.094025 -0.081428  0.086367      2.000000
 -0.070519 -0.094999  0.076771      2.000000
 -0.047012 -0.108570  0.067175      2.000000
 -0.023506 -0.122142  0.057578      2.000000
  0.000000 -0.108570  0.067175      2.000000
  0.023506 -0.122142  0.057578      2.000000
  0.047012 -0.135713  0.047982      2.000000
  0.070519 -0.149284  0.038386      2.000000
  0.094025 -0.162855  0.028789      2.000000
  0.117531 -0.176427  0.019193      2.000000
 -0.117531 -0.040714  0.115156      2.000000
 -0.094025 -0.054285  0.105560      2.000000
 -0.070519 -0.067856  0.095964      2.000000
 -0.047012 -0.081428  0.086367      2.000000
 -0.023506 -0.094999  0.076771      2.000000
  0.000000 -0.081428  0.086367      2.000000
  0.023506 -0.094999  0.076771      2.000000
  0.047012 -0.108570  0.067175      2.000000
  0.070519 -0.122142  0.057578      2.000000
  0.094025 -0.135713  0.047982      2.000000
  0.117531 -0.149284  0.038386      2.000000
 -0.117531 -0.013571  0.134349      2.000000
 -0.094025 -0.027143  0.124753      2.000000
 -0.070519 -0.040714  0.115156      2.000000
 -0.047012 -0.054285  0.105560      2.000000
 -0.023506 -0.067856  0.095964      2.000000
  0.000000 -0.054285  0.105560      2.000000
  0.023506 -0.067856  0.095964      2.000000
  0.047012 -0.081428  0.086367      2.000000
  0.070519 -0.094999  0.076771      2.000000
  0.094025 -0.108570  0.067175      2.000000
  0.117531 -0.122142  0.057578      2.000000
 -0.117531  0.013571  0.153542      2.000000
 -0.094025 -0.000000  0.143945      2.000000
 -0.070519 -0.013571  0.134349      2.000000
 -0.047012 -0.027143  0.124753      2.000000
 -0.023506 -0.040714  0.115156      2.000000
  0.000000 -0.027143  0.124753      2.000000
  0.023506 -0.040714  0.115156      2.000000
  0.047012 -0.054285  0.105560      2.000000
  0.070519 -0.067856  0.095964      2.000000
  0.094025 -0.081428  0.086367      2.000000
  0.117531 -0.094999  0.076771      2.000000
 -0.117531  0.040714  0.172734      2.000000
 -0.094025  0.027143  0.163138      2.000000
 -0.070519  0.013571  0.153542      2.000000
 -0.047012 -0.000000  0.143945      2.000000
 -0.023506 -0.013571  0.134349      2.000000
 
 TETIRR: Found   3990 inequivalent tetrahedra from     7986
 
 Subroutine IBZKPT_HF returns following result:
 ==============================================
 
 Found   1331 k-points in 1st BZ
 the following   1331 k-points will be used (e.g. in the exchange kernel)
 Following reciprocal coordinates:   # in IRBZ
  0.000000  0.000000  0.000000    0.00075131   1 t-inv F
  0.090909  0.000000 -0.000000    0.00075131   2 t-inv F
  0.181818  0.000000 -0.000000    0.00075131   3 t-inv F
  0.272727  0.000000  0.000000    0.00075131   4 t-inv F
  0.363636  0.000000 -0.000000    0.00075131   5 t-inv F
  0.454545  0.000000  0.000000    0.00075131   6 t-inv F
  0.000000  0.090909 -0.000000    0.00075131   7 t-inv F
  0.090909  0.090909 -0.000000    0.00075131   8 t-inv F
  0.181818  0.090909 -0.000000    0.00075131   9 t-inv F
  0.272727  0.090909 -0.000000    0.00075131  10 t-inv F
  0.363636  0.090909 -0.000000    0.00075131  11 t-inv F
  0.454545  0.090909  0.000000    0.00075131  12 t-inv F
 -0.454545  0.090909  0.000000    0.00075131  13 t-inv F
 -0.363636  0.090909  0.000000    0.00075131  14 t-inv F
 -0.272727  0.090909  0.000000    0.00075131  15 t-inv F
 -0.181818  0.090909 -0.000000    0.00075131  16 t-inv F
 -0.090909  0.090909 -0.000000    0.00075131  17 t-inv F
  0.000000  0.181818 -0.000000    0.00075131  18 t-inv F
  0.090909  0.181818 -0.000000    0.00075131  19 t-inv F
  0.181818  0.181818 -0.000000    0.00075131  20 t-inv F
  0.272727  0.181818 -0.000000    0.00075131  21 t-inv F
  0.363636  0.181818 -0.000000    0.00075131  22 t-inv F
  0.454545  0.181818  0.000000    0.00075131  23 t-inv F
 -0.454545  0.181818 -0.000000    0.00075131  24 t-inv F
 -0.363636  0.181818 -0.000000    0.00075131  25 t-inv F
 -0.272727  0.181818 -0.000000    0.00075131  26 t-inv F
 -0.181818  0.181818 -0.000000    0.00075131  27 t-inv F
 -0.090909  0.181818  0.000000    0.00075131  28 t-inv F
  0.000000  0.272727 -0.000000    0.00075131  29 t-inv F
  0.090909  0.272727 -0.000000    0.00075131  30 t-inv F
  0.181818  0.272727 -0.000000    0.00075131  31 t-inv F
  0.272727  0.272727 -0.000000    0.00075131  32 t-inv F
  0.363636  0.272727 -0.000000    0.00075131  33 t-inv F
  0.454545  0.272727  0.000000    0.00075131  34 t-inv F
 -0.454545  0.272727 -0.000000    0.00075131  35 t-inv F
 -0.363636  0.272727 -0.000000    0.00075131  36 t-inv F
 -0.272727  0.272727 -0.000000    0.00075131  37 t-inv F
 -0.181818  0.272727 -0.000000    0.00075131  38 t-inv F
 -0.090909  0.272727 -0.000000    0.00075131  39 t-inv F
  0.000000  0.363636 -0.000000    0.00075131  40 t-inv F
  0.090909  0.363636 -0.000000    0.00075131  41 t-inv F
  0.181818  0.363636 -0.000000    0.00075131  42 t-inv F
  0.272727  0.363636 -0.000000    0.00075131  43 t-inv F
  0.363636  0.363636 -0.000000    0.00075131  44 t-inv F
  0.454545  0.363636  0.000000    0.00075131  45 t-inv F
 -0.454545  0.363636 -0.000000    0.00075131  46 t-inv F
 -0.363636  0.363636 -0.000000    0.00075131  47 t-inv F
 -0.272727  0.363636  0.000000    0.00075131  48 t-inv F
 -0.181818  0.363636  0.000000    0.00075131  49 t-inv F
 -0.090909  0.363636 -0.000000    0.00075131  50 t-inv F
  0.000000  0.454545 -0.000000    0.00075131  51 t-inv F
  0.090909  0.454545 -0.000000    0.00075131  52 t-inv F
  0.181818  0.454545 -0.000000    0.00075131  53 t-inv F
  0.272727  0.454545 -0.000000    0.00075131  54 t-inv F
  0.363636  0.454545 -0.000000    0.00075131  55 t-inv F
  0.454545  0.454545 -0.000000    0.00075131  56 t-inv F
 -0.454545  0.454545 -0.000000    0.00075131  57 t-inv F
 -0.363636  0.454545 -0.000000    0.00075131  58 t-inv F
 -0.272727  0.454545  0.000000    0.00075131  59 t-inv F
 -0.181818  0.454545 -0.000000    0.00075131  60 t-inv F
 -0.090909  0.454545 -0.000000    0.00075131  61 t-inv F
  0.000000  0.000000  0.090909    0.00075131  62 t-inv F
  0.090909  0.000000  0.090909    0.00075131  63 t-inv F
  0.181818  0.000000  0.090909    0.00075131  64 t-inv F
  0.272727  0.000000  0.090909    0.00075131  65 t-inv F
  0.363636  0.000000  0.090909    0.00075131  66 t-inv F
  0.454545  0.000000  0.090909    0.00075131  67 t-inv F
 -0.454545 -0.000000  0.090909    0.00075131  68 t-inv F
 -0.363636  0.000000  0.090909    0.00075131  69 t-inv F
 -0.272727 -0.000000  0.090909    0.00075131  70 t-inv F
 -0.181818  0.000000  0.090909    0.00075131  71 t-inv F
 -0.090909  0.000000  0.090909    0.00075131  72 t-inv F
  0.000000  0.090909  0.090909    0.00075131  73 t-inv F
  0.090909  0.090909  0.090909    0.00075131  74 t-inv F
  0.181818  0.090909  0.090909    0.00075131  75 t-inv F
  0.272727  0.090909  0.090909    0.00075131  76 t-inv F
  0.363636  0.090909  0.090909    0.00075131  77 t-inv F
  0.454545  0.090909  0.090909    0.00075131  78 t-inv F
 -0.454545  0.090909  0.090909    0.00075131  79 t-inv F
 -0.363636  0.090909  0.090909    0.00075131  80 t-inv F
 -0.272727  0.090909  0.090909    0.00075131  81 t-inv F
 -0.181818  0.090909  0.090909    0.00075131  82 t-inv F
 -0.090909  0.090909  0.090909    0.00075131  83 t-inv F
  0.000000  0.181818  0.090909    0.00075131  84 t-inv F
  0.090909  0.181818  0.090909    0.00075131  85 t-inv F
  0.181818  0.181818  0.090909    0.00075131  86 t-inv F
  0.272727  0.181818  0.090909    0.00075131  87 t-inv F
  0.363636  0.181818  0.090909    0.00075131  88 t-inv F
  0.454545  0.181818  0.090909    0.00075131  89 t-inv F
 -0.454545  0.181818  0.090909    0.00075131  90 t-inv F
 -0.363636  0.181818  0.090909    0.00075131  91 t-inv F
 -0.272727  0.181818  0.090909    0.00075131  92 t-inv F
 -0.181818  0.181818  0.090909    0.00075131  93 t-inv F
 -0.090909  0.181818  0.090909    0.00075131  94 t-inv F
  0.000000  0.272727  0.090909    0.00075131  95 t-inv F
  0.090909  0.272727  0.090909    0.00075131  96 t-inv F
  0.181818  0.272727  0.090909    0.00075131  97 t-inv F
  0.272727  0.272727  0.090909    0.00075131  98 t-inv F
  0.363636  0.272727  0.090909    0.00075131  99 t-inv F
  0.454545  0.272727  0.090909    0.00075131 100 t-inv F
 -0.454545  0.272727  0.090909    0.00075131 101 t-inv F
 -0.363636  0.272727  0.090909    0.00075131 102 t-inv F
 -0.272727  0.272727  0.090909    0.00075131 103 t-inv F
 -0.181818  0.272727  0.090909    0.00075131 104 t-inv F
 -0.090909  0.272727  0.090909    0.00075131 105 t-inv F
  0.000000  0.363636  0.090909    0.00075131 106 t-inv F
  0.090909  0.363636  0.090909    0.00075131 107 t-inv F
  0.181818  0.363636  0.090909    0.00075131 108 t-inv F
  0.272727  0.363636  0.090909    0.00075131 109 t-inv F
  0.363636  0.363636  0.090909    0.00075131 110 t-inv F
  0.454545  0.363636  0.090909    0.00075131 111 t-inv F
 -0.454545  0.363636  0.090909    0.00075131 112 t-inv F
 -0.363636  0.363636  0.090909    0.00075131 113 t-inv F
 -0.272727  0.363636  0.090909    0.00075131 114 t-inv F
 -0.181818  0.363636  0.090909    0.00075131 115 t-inv F
 -0.090909  0.363636  0.090909    0.00075131 116 t-inv F
  0.000000  0.454545  0.090909    0.00075131 117 t-inv F
  0.090909  0.454545  0.090909    0.00075131 118 t-inv F
  0.181818  0.454545  0.090909    0.00075131 119 t-inv F
  0.272727  0.454545  0.090909    0.00075131 120 t-inv F
  0.363636  0.454545  0.090909    0.00075131 121 t-inv F
  0.454545  0.454545  0.090909    0.00075131 122 t-inv F
 -0.454545  0.454545  0.090909    0.00075131 123 t-inv F
 -0.363636  0.454545  0.090909    0.00075131 124 t-inv F
 -0.272727  0.454545  0.090909    0.00075131 125 t-inv F
 -0.181818  0.454545  0.090909    0.00075131 126 t-inv F
 -0.090909  0.454545  0.090909    0.00075131 127 t-inv F
  0.000000 -0.454545  0.090909    0.00075131 128 t-inv F
  0.090909 -0.454545  0.090909    0.00075131 129 t-inv F
  0.181818 -0.454545  0.090909    0.00075131 130 t-inv F
  0.272727 -0.454545  0.090909    0.00075131 131 t-inv F
  0.363636 -0.454545  0.090909    0.00075131 132 t-inv F
  0.454545 -0.454545  0.090909    0.00075131 133 t-inv F
 -0.454545 -0.454545  0.090909    0.00075131 134 t-inv F
 -0.363636 -0.454545  0.090909    0.00075131 135 t-inv F
 -0.272727 -0.454545  0.090909    0.00075131 136 t-inv F
 -0.181818 -0.454545  0.090909    0.00075131 137 t-inv F
 -0.090909 -0.454545  0.090909    0.00075131 138 t-inv F
  0.000000 -0.363636  0.090909    0.00075131 139 t-inv F
  0.090909 -0.363636  0.090909    0.00075131 140 t-inv F
  0.181818 -0.363636  0.090909    0.00075131 141 t-inv F
  0.272727 -0.363636  0.090909    0.00075131 142 t-inv F
  0.363636 -0.363636  0.090909    0.00075131 143 t-inv F
  0.454545 -0.363636  0.090909    0.00075131 144 t-inv F
 -0.454545 -0.363636  0.090909    0.00075131 145 t-inv F
 -0.363636 -0.363636  0.090909    0.00075131 146 t-inv F
 -0.272727 -0.363636  0.090909    0.00075131 147 t-inv F
 -0.181818 -0.363636  0.090909    0.00075131 148 t-inv F
 -0.090909 -0.363636  0.090909    0.00075131 149 t-inv F
  0.000000 -0.272727  0.090909    0.00075131 150 t-inv F
  0.090909 -0.272727  0.090909    0.00075131 151 t-inv F
  0.181818 -0.272727  0.090909    0.00075131 152 t-inv F
  0.272727 -0.272727  0.090909    0.00075131 153 t-inv F
  0.363636 -0.272727  0.090909    0.00075131 154 t-inv F
  0.454545 -0.272727  0.090909    0.00075131 155 t-inv F
 -0.454545 -0.272727  0.090909    0.00075131 156 t-inv F
 -0.363636 -0.272727  0.090909    0.00075131 157 t-inv F
 -0.272727 -0.272727  0.090909    0.00075131 158 t-inv F
 -0.181818 -0.272727  0.090909    0.00075131 159 t-inv F
 -0.090909 -0.272727  0.090909    0.00075131 160 t-inv F
  0.000000 -0.181818  0.090909    0.00075131 161 t-inv F
  0.090909 -0.181818  0.090909    0.00075131 162 t-inv F
  0.181818 -0.181818  0.090909    0.00075131 163 t-inv F
  0.272727 -0.181818  0.090909    0.00075131 164 t-inv F
  0.363636 -0.181818  0.090909    0.00075131 165 t-inv F
  0.454545 -0.181818  0.090909    0.00075131 166 t-inv F
 -0.454545 -0.181818  0.090909    0.00075131 167 t-inv F
[...]
     12       0.4156      0.00000
     13      -1.2251      0.00000
     14       0.6549      0.00000
     15       0.1657      0.00000
     16      -1.1895      0.00000

 k-point 657 :       0.0909   -0.0909    0.4545
  band No.  band energies     occupation 
      1       0.7915      0.00000
      2      -3.2304      0.00000
      3       1.2646      0.00000
      4       1.3164      0.00000
      5       1.3495      0.00000
      6       1.2017      0.00000
      7       1.0977      0.00000
      8      -1.2961      0.00000
      9      -1.4880      0.00000
     10      -1.0098      0.00000
     11      -2.4874      0.00000
     12       0.9129      0.00000
     13      -0.1047      0.00000
     14      -0.1939      0.00000
     15      -0.9585      0.00000
     16      -0.6248      0.00000

 k-point 658 :       0.1818   -0.0909    0.4545
  band No.  band energies     occupation 
      1       0.5231      0.00000
      2      -2.5985      0.00000
      3       1.0343      0.00000
      4       1.3116      0.00000
      5       0.9077      0.00000
      6      -1.3477      0.00000
      7       1.3538      0.00000
      8       1.1049      0.00000
      9      -1.6565      0.00000
     10      -1.0065      0.00000
     11      -2.1443      0.00000
     12       1.3188      0.00000
     13      -0.3794      0.00000
     14      -0.0593      0.00000
     15       0.0055      0.00000
     16      -0.6501      0.00000

 k-point 659 :       0.2727   -0.0909    0.4545
  band No.  band energies     occupation 
      1       0.2553      0.00000
      2      -1.0532      0.00000
      3       0.2202      0.00000
      4       0.8573      0.00000
      5      -0.2993      0.00000
      6      -0.0417      0.00000
      7       1.4422      0.00000
      8      -0.0795      0.00000
      9      -0.3095      0.00000
     10      -1.3837      0.00000
     11      -1.5730      0.00000
     12       0.4669      0.00000
     13      -0.0850      0.00000
     14       0.9199      0.00000
     15      -0.2460      0.00000
     16       1.2684      0.00000

 k-point 660 :       0.3636   -0.0909    0.4545
  band No.  band energies     occupation 
      1      -0.0376      0.00000
      2       0.0485      0.00000
      3       1.0509      0.00000
      4      -0.9931      0.00000
      5      -0.9744      0.00000
      6       0.9100      0.00000
      7      -0.9858      0.00000
      8       1.1658      0.00000
      9      -0.1768      0.00000
     10      -1.6131      0.00000
     11       0.2460      0.00000
     12       1.6007      0.00000
     13      -0.5571      0.00000
     14       0.3147      0.00000
     15      -0.2176      0.00000
     16       0.8858      0.00000

 k-point 661 :       0.4545   -0.0909    0.4545
  band No.  band energies     occupation 
      1      -0.3249      0.00000
      2       0.5461      0.00000
      3       0.3747      0.00000
      4      -0.6627      0.00000
      5       0.4775      0.00000
      6      -0.3749      0.00000
      7      -1.2138      0.00000
      8      -0.2501      0.00000
      9       1.8075      0.00000
     10      -0.3735      0.00000
     11       0.2126      0.00000
     12       0.2239      0.00000
     13       1.7482      0.00000
     14      -2.1802      0.00000
     15      -1.3962      0.00000
     16       1.1654      0.00000

 k-point 662 :      -0.4545   -0.0909    0.4545
  band No.  band energies     occupation 
      1       1.6361      0.00000
      2      -1.7957      0.00000
      3      -0.9467      0.00000
      4       1.0925      0.00000
      5       1.4029      0.00000
      6      -1.3517      0.00000
      7      -0.5579      0.00000
      8       0.3351      0.00000
      9       0.0268      0.00000
     10       0.3299      0.00000
     11      -0.1867      0.00000
     12      -0.3293      0.00000
     13      -0.0674      0.00000
     14       0.9835      0.00000
     15       1.4851      0.00000
     16      -1.4147      0.00000

 k-point 663 :      -0.3636   -0.0909    0.4545
  band No.  band energies     occupation 
      1       1.9863      0.00000
      2      -3.2856      0.00000
      3       0.2159      0.00000
      4       1.1243      0.00000
      5       1.3763      0.00000
      6      -1.0928      0.00000
      7       0.5678      0.00000
      8      -1.2265      0.00000
      9       1.2480      0.00000
     10      -0.9137      0.00000
     11      -1.8920      0.00000
     12       2.1025      0.00000
     13      -1.4734      0.00000
     14       0.8675      0.00000
     15      -0.8228      0.00000
     16       2.5023      0.00000

 k-point 664 :      -0.2727   -0.0909    0.4545
  band No.  band energies     occupation 
      1       1.9251      0.00000
      2      -4.1607      0.00000
      3       1.1541      0.00000
      4       1.1314      0.00000
      5       1.3919      0.00000
      6       1.2880      0.00000
      7       1.0605      0.00000
      8      -3.0101      0.00000
      9       0.1799      0.00000
     10      -1.1418      0.00000
     11       0.0309      0.00000
     12      -0.1291      0.00000
     13      -1.1412      0.00000
     14      -4.0537      0.00000
     15      -0.1489      0.00000
     16       1.4247      0.00000

 k-point 665 :      -0.1818   -0.0909    0.4545
  band No.  band energies     occupation 
      1       1.7000      0.00000
      2      -4.0624      0.00000
      3       1.2647      0.00000
      4       1.0874      0.00000
      5       1.3179      0.00000
      6       1.3590      0.00000
      7       1.3199      0.00000
      8      -1.4064      0.00000
      9      -0.8060      0.00000
     10      -2.2312      0.00000
     11       0.4029      0.00000
     12      -1.4928      0.00000
     13      -1.4314      0.00000
     14      -1.1252      0.00000
     15      -0.0931      0.00000
     16      -0.7554      0.00000

 k-point 666 :      -0.0909   -0.0909    0.4545
  band No.  band energies     occupation 
      1       1.3917      0.00000
      2      -3.7175      0.00000
      3       1.2481      0.00000
      4       0.9691      0.00000
      5       1.3010      0.00000
      6       1.3017      0.00000
      7       1.6481      0.00000
      8      -0.8249      0.00000
      9      -0.1863      0.00000
     10      -3.2871      0.00000
     11      -3.6362      0.00000
     12      -0.5700      0.00000
     13       1.4449      0.00000
     14      -0.3048      0.00000
     15       0.7058      0.00000
     16      -2.0302      0.00000


------------------------ aborting loop because EDIFF is reached ----------------------------------------


 FEWALD executed in parallel
    FORLOC:  cpu time    0.0000: real time    0.0006
    FORNL :  cpu time    4.9063: real time    4.9070
    STRESS:  cpu time   14.8267: real time   14.8302
    FORCOR:  cpu time    0.0240: real time    0.0229
    OFIELD:  cpu time    0.0000: real time    0.0001
 FEWALD executed in parallel
    FORLOC:  cpu time    0.0010: real time    0.0007
    FORNL :  cpu time    4.9053: real time    4.9060
    STRESS:  cpu time   14.8067: real time   14.8109
    FORCOR:  cpu time    0.0230: real time    0.0229
    OFIELD:  cpu time    0.0000: real time    0.0001
 FEWALD executed in parallel
    FORLOC:  cpu time    0.0000: real time    0.0006
    FORNL :  cpu time    4.9063: real time    4.9069
    STRESS:  cpu time   14.8247: real time   14.8404
    FORCOR:  cpu time    0.0240: real time    0.0229
    OFIELD:  cpu time    0.0000: real time    0.0001
 FEWALD executed in parallel
    FORLOC:  cpu time    0.0010: real time    0.0007
    FORNL :  cpu time    4.9043: real time    4.9064
    STRESS:  cpu time   14.8137: real time   14.8171
    FORCOR:  cpu time    0.0230: real time    0.0229
    OFIELD:  cpu time    0.0000: real time    0.0001

 INTERNAL STRAIN TENSOR  FOR ION    1  DIRECTION 3   (eV/Angst):
 -----------------------------------------------------------------------------
    -5.10938  0.26690  1.53936
    -0.21706 -4.63712  0.26548
     1.54322  1.05071 11.02163


 POSITION                   FORCE-CONSTANT FOR ION    1 DIRECTION 3 (eV/Angst/Angst)
 -----------------------------------------------------------------------------------
      5.79628      1.11620      3.15685        -0.192614     -0.004776    -13.687496
      3.87237      0.00025      2.36924         0.192614      0.004776     13.687496
 -----------------------------------------------------------------------------------
    total drift:                                0.000000      0.000000      0.000000


 BORN EFFECTIVE CHARGE FOR ION    1 DIRECTION 3 :   0.000   0.000  -0.015
                   rigid augmentation           :  -0.000  -0.000   0.229
                   ionic contribution           :  -0.000  -0.000   4.000
                   Berry contribution           :   0.000   0.000  -4.245


--------------------------------------------------------------------------------------------------------


  LATTYP: Found a face centered cubic cell.
 ALAT       =     5.4694110002
  
  Lattice vectors:
  
 A1 = (   1.9337280000,   3.3493170000,   0.0000000000)
 A2 = (   0.0000000000,   2.2328760000,  -3.1577660000)
 A3 = (  -1.9337290000,   3.3493170000,   0.0000000000)


Analysis of symmetry for initial positions (statically):
=====================================================================
 Subroutine PRICEL returns:
 Original cell was already a primitive cell.
 

 Routine SETGRP: Setting up the symmetry group for a 
 face centered cubic supercell.


 Subroutine GETGRP returns: Found  2 space group operations
 (whereof  1 operations were pure point group operations)
 out of a pool of 48 trial point group operations.


The static configuration has the point symmetry C_1 .
 The point group associated with its full space group is S_2 .


Analysis of symmetry for dynamics (positions and initial velocities):
=====================================================================
 Subroutine PRICEL returns:
 Original cell was already a primitive cell.
 

 Routine SETGRP: Setting up the symmetry group for a 
 face centered cubic supercell.


 Subroutine GETGRP returns: Found  2 space group operations
 (whereof  1 operations were pure point group operations)
 out of a pool of 48 trial point group operations.


The dynamic configuration has the point symmetry C_1 .
 The point group associated with its full space group is S_2 .


Analysis of structural, dynamic, and magnetic symmetry:
=====================================================================
 Subroutine PRICEL returns:
 Original cell was already a primitive cell.
 

 Routine SETGRP: Setting up the symmetry group for a 
 face centered cubic supercell.


 Subroutine GETGRP returns: Found  2 space group operations
 (whereof  1 operations were pure point group operations)
 out of a pool of 48 trial point group operations.


The magnetic configuration has the point symmetry C_1 .
 The point group associated with its full space group is S_2 .


 Subroutine INISYM returns: Found  2 space group operations
 (whereof  1 operations are pure point group operations),
 and found     1 'primitive' translations



--------------------------------------------------------------------------------------------------------




 MACROSCOPIC STATIC DIELECTRIC TENSOR (including local field effects in DFT)
 ------------------------------------------------------
          13.228511    -0.056881    -0.039808
          -0.056880    13.230224    -0.001542
          -0.039808    -0.001541    13.249960
 ------------------------------------------------------


 PIEZOELECTRIC TENSOR  for field in x, y, z        (e  Angst)
          XX          YY          ZZ          XY          YZ          ZX
  --------------------------------------------------------------------------------
  x     0.00038    -0.00021    -0.00019    -0.00035     0.00011     0.00105
  y     0.00032    -0.00104     0.00111     0.00036     0.00161    -0.00021
  z    -0.00056    -0.00266     0.00266    -0.00017    -0.00064     0.00058

 PIEZOELECTRIC TENSOR  for field in x, y, z        (C/m^2)
          XX          YY          ZZ          XY          YZ          ZX
  --------------------------------------------------------------------------------
  x     0.00000     0.00000     0.00000     0.00000     0.00000     0.00000
  y     0.00000     0.00000     0.00000     0.00000     0.00000     0.00000
  z     0.00000     0.00000     0.00000     0.00000     0.00000     0.00000
 
 BORN EFFECTIVE CHARGES (in e, cummulative output)
 -------------------------------------------------
 ion    1
    1    -0.01522     0.00019     0.00010
    2     0.00049    -0.01524     0.00003
    3     0.00037     0.00002    -0.01604
 ion    2
    1    -0.01533     0.00009     0.00009
    2     0.00048    -0.01578     0.00001
    3     0.00035    -0.00006    -0.01489

 INTERNAL STRAIN TENSOR FOR ION    1 for displacements in x,y,z  (eV/Angst):
          X           Y           Z          XY          YZ          ZX
  --------------------------------------------------------------------------------
  x     1.26598     0.06299     1.23177    -6.08300     0.10663    -5.04500
  y    -6.64438     8.18360     0.58889    -0.23560    -4.35428     0.64266
  z    -5.10938    -4.63712    11.02163    -0.21706     1.05071     1.53936

 INTERNAL STRAIN TENSOR FOR ION    2 for displacements in x,y,z  (eV/Angst):
          X           Y           Z          XY          YZ          ZX
  --------------------------------------------------------------------------------
  x    -1.26598    -0.06299    -1.23177     6.08300    -0.10663     5.04500
  y     6.64438    -8.18360    -0.58889     0.23560     4.35428    -0.64266
  z     5.10938     4.63712   -11.02163     0.21706    -1.05071    -1.53936


--------------------------------------------------------------------------------------------------------


 
 SECOND DERIVATIVES (NOT SYMMETRIZED)
 ------------------------------------
               1X          1Y          1Z          2X          2Y          2Z 
  1X   -13.799634   -0.270569   -0.192648   13.799634    0.270569    0.192648
  1Y    -0.270539  -13.780919   -0.004711    0.270539   13.780919    0.004711
  1Z    -0.192614   -0.004776  -13.687496    0.192614    0.004776   13.687496
  2X    13.799634    0.270569    0.192648  -13.799634   -0.270569   -0.192648
  2Y     0.270539   13.780919    0.004711   -0.270539  -13.780919   -0.004711
  2Z     0.192614    0.004776   13.687496   -0.192614   -0.004776  -13.687496
 
 
 Eigenvectors and eigenvalues of the dynamical matrix
 ----------------------------------------------------
 
 
   1 f  =   15.671855 THz    98.469168 2PiTHz  522.756790 cm-1    64.813605 meV
             X         Y         Z           dx          dy          dz
      5.796275  1.116196  3.156847    -0.513824   -0.423496   -0.237983  
      3.872366  0.000246  2.369243     0.513824    0.423496    0.237983  
 
   2 f  =   15.450410 THz    97.077791 2PiTHz  515.370196 cm-1    63.897784 meV
             X         Y         Z           dx          dy          dz
      5.796275  1.116196  3.156847     0.092520   -0.425381    0.557217  
      3.872366  0.000246  2.369243    -0.092520    0.425381   -0.557217  
 
   3 f  =   15.294444 THz    96.097828 2PiTHz  510.167733 cm-1    63.252760 meV
             X         Y         Z           dx          dy          dz
      5.796275  1.116196  3.156847    -0.476891    0.373767    0.364517  
      3.872366  0.000246  2.369243     0.476891   -0.373767   -0.364517  
 
   4 f  =    0.000000 THz     0.000002 2PiTHz    0.000012 cm-1     0.000002 meV
             X         Y         Z           dx          dy          dz
      5.796275  1.116196  3.156847     0.002027   -0.095325    0.700649  
      3.872366  0.000246  2.369243     0.002027   -0.095325    0.700649  
 
   5 f/i=    0.000000 THz     0.000000 2PiTHz    0.000001 cm-1     0.000000 meV
             X         Y         Z           dx          dy          dz
      5.796275  1.116196  3.156847     0.707042    0.009529   -0.000749  
      3.872366  0.000246  2.369243     0.707042    0.009529   -0.000749  
 
   6 f/i=    0.000000 THz     0.000001 2PiTHz    0.000006 cm-1     0.000001 meV
             X         Y         Z           dx          dy          dz
      5.796275  1.116196  3.156847    -0.009341    0.700587    0.095344  
      3.872366  0.000246  2.369243    -0.009341    0.700587    0.095344  
 


--------------------------------------------------------------------------------------------------------




 MACROSCOPIC STATIC DIELECTRIC TENSOR IONIC CONTRIBUTION
 ------------------------------------------------------
           0.000000     0.000000     0.000000
           0.000000     0.000000     0.000000
           0.000000     0.000000     0.000000
 ------------------------------------------------------


 ELASTIC MODULI IONIC CONTR (kBar)
 Direction    XX          YY          ZZ          XY          YZ          ZX
 --------------------------------------------------------------------------------
 XX        -206.2444     86.8727    167.7577     17.7136    -67.5937     55.8119
 YY          86.8727   -251.9655    132.7443      2.0400    115.2696      5.0210
 ZZ         167.7577    132.7443   -351.8248     25.6168    -26.4349    -34.2543
 XY          17.7136      2.0400     25.6168   -105.1192      0.7969    -86.2543
 YZ         -67.5937    115.2696    -26.4349      0.7969    -57.1471      5.8770
 ZX          55.8119      5.0210    -34.2543    -86.2543      5.8770    -81.2247
 --------------------------------------------------------------------------------


 PIEZOELECTRIC TENSOR IONIC CONTR  for field in x, y, z        (C/m^2)
          XX          YY          ZZ          XY          YZ          ZX
  --------------------------------------------------------------------------------
  x    -0.00001     0.00001     0.00000    -0.00001    -0.00001    -0.00001
  y    -0.00005     0.00006     0.00001    -0.00000    -0.00003     0.00000
  z     0.00008     0.00009    -0.00018    -0.00000    -0.00002    -0.00003


--------------------------------------------------------------------------------------------------------


     LOOP+:  cpu time 2743.6679: real time 2744.8010
    4ORBIT:  cpu time    0.0000: real time    0.0000
 


 total charge     
 
# of ion     s       p       d       tot
----------------------------------------
  1        0.751   0.928   0.000   1.679
  2        0.751   0.928   0.000   1.679
------------------------------------------------
tot        1.502   1.855   0.000   3.357
 


 magnetization (x)
 
# of ion     s       p       d       tot
----------------------------------------
  1       -0.000  -0.000   0.000  -0.000
  2       -0.000  -0.000   0.000  -0.000
------------------------------------------------
tot       -0.000  -0.000   0.000  -0.000
 
 BZINTS: Fermi energy:  5.679941;  8.000000 electrons
         Band energy:   4.899061;  BLOECHL correction:  0.000000

 total amount of memory used by VASP on root node    65479. kBytes
========================================================================

   base      :      30000. kBytes
   nonlr-proj:        896. kBytes
   fftplans  :        702. kBytes
   grid      :       3862. kBytes
   one-center:         12. kBytes
   wavefun   :      30007. kBytes
 
  
  
 General timing and accounting informations for this job:
 ========================================================
  
                  Total CPU time used (sec):     2753.768
                            User time (sec):     2751.793
                          System time (sec):        1.976
                         Elapsed time (sec):     2755.386
  
                   Maximum memory used (kb):      276532.
                   Average memory used (kb):           0.
  
                          Minor page faults:       256299
                          Major page faults:            0
                 Voluntary context switches:        26232
