 vasp.5.3.5 31Mar14 (build Oct 24 2014 12:38:34) complex                        
  
 executed on             LinuxIFC date 2016.10.20  19:24:47
 running on    8 total cores
 distrk:  each k-point on    8 cores,    1 groups
 distr:  one band on NCORES_PER_BAND=   1 cores,    8 groups


--------------------------------------------------------------------------------------------------------


 INCAR:
 POTCAR:    PAW_PBE Ba_sv 06Sep2000               
 POTCAR:    PAW_PBE Ti_pv 07Sep2000               
 POTCAR:    PAW_PBE O 08Apr2002                   

 ----------------------------------------------------------------------------- 
|                                                                             |
|           W    W    AA    RRRRR   N    N  II  N    N   GGGG   !!!           |
|           W    W   A  A   R    R  NN   N  II  NN   N  G    G  !!!           |
|           W    W  A    A  R    R  N N  N  II  N N  N  G       !!!           |
|           W WW W  AAAAAA  RRRRR   N  N N  II  N  N N  G  GGG   !            |
|           WW  WW  A    A  R   R   N   NN  II  N   NN  G    G                |
|           W    W  A    A  R    R  N    N  II  N    N   GGGG   !!!           |
|                                                                             |
|      For optimal performance we recommend to set                            |
|        NCORE= 4 - approx SQRT( number of cores)                             |
|      NCORE specifies how many cores store one orbital (NPAR=cpu/NCORE).     |
|      This setting can  greatly improve the performance of VASP for DFT.     |
|      The default, NPAR=number of cores might be grossly inefficient         |
|      on modern multi-core architectures or massively parallel machines.     |
|      Do your own testing !!!!                                               |
|      Unfortunately you need to use the default for GW and RPA calculations. |
|      (for HF NCORE is supported but not extensively tested yet)             |
|                                                                             |
 ----------------------------------------------------------------------------- 

 POTCAR:    PAW_PBE Ba_sv 06Sep2000               
   VRHFIN =Ba: 5s5p6s                                                           
   LEXCH  = PE                                                                  
   EATOM  =   700.8560 eV,   51.5115 Ry                                         
                                                                                
   TITEL  = PAW_PBE Ba_sv 06Sep2000                                             
   LULTRA =        F    use ultrasoft PP ?                                      
   IUNSCR =        1    unscreen: 0-lin 1-nonlin 2-no                           
   RPACOR =    2.400    partial core radius                                     
   POMASS =  137.327; ZVAL   =   10.000    mass and valenz                      
   RCORE  =    2.800    outmost cutoff radius                                   
   RWIGS  =    3.740; RWIGS  =    1.979    wigner-seitz radius (au A)           
   ENMAX  =  187.181; ENMIN  =  140.386 eV                                      
   RCLOC  =    2.516    cutoff for local pot                                    
   LCOR   =        T    correct aug charges                                     
   LPAW   =        T    paw PP                                                  
   EAUG   =  351.165                                                            
   DEXC   =    0.000                                                            
   RMAX   =    2.865    core radius for proj-oper                               
   RAUG   =    1.300    factor for augmentation sphere                          
   RDEP   =    2.976    radius for radial grids                                 
   RDEPT  =    2.289    core radius for aug-charge                              
                                                                                
   Atomic configuration                                                         
   13 entries                                                                   
     n  l   j            E        occ.                                          
     1  0  0.50    -37249.5946   2.0000                                         
     2  0  0.50     -5887.1925   2.0000                                         
     2  1  1.50     -5278.3977   6.0000                                         
     3  0  0.50     -1242.7293   2.0000                                         
     3  1  1.50     -1047.6609   6.0000                                         
     3  2  2.50      -764.6158  10.0000                                         
     4  0  0.50      -243.8228   2.0000                                         
     4  1  1.50      -180.9218   6.0000                                         
     4  2  2.50       -89.6477  10.0000                                         
     5  0  0.50       -33.6549   2.0000                                         
     6  0  0.50        -3.2247   1.9900                                         
     5  1  1.50       -18.7193   6.0000                                         
     5  2  2.50        -2.0115   0.0100                                         
   Description                                                                  
     l       E           TYP  RCUT    TYP  RCUT                                 
     0    -33.6549039     23  2.800                                             
     0     -3.2246942     23  2.800                                             
     1    -18.7193050     23  2.700                                             
     1     27.2116520     23  2.700                                             
     2     -2.0115002     23  2.700                                             
     2      0.3057420     23  2.700                                             
  local pseudopotential read in
  partial core-charges read in
  partial kinetic energy density read in
  atomic valenz-charges read in
  non local Contribution for L=           0  read in
    real space projection operators read in
  non local Contribution for L=           0  read in
    real space projection operators read in
  non local Contribution for L=           1  read in
    real space projection operators read in
  non local Contribution for L=           1  read in
    real space projection operators read in
  non local Contribution for L=           2  read in
    real space projection operators read in
  non local Contribution for L=           2  read in
    real space projection operators read in
    PAW grid and wavefunctions read in
 
   number of l-projection  operators is LMAX  =           6
   number of lm-projection operators is LMMAX =          18
 
 POTCAR:    PAW_PBE Ti_pv 07Sep2000               
   VRHFIN =Ti: d3 s1                                                            
   LEXCH  = PE                                                                  
   EATOM  =  1042.5995 eV,   76.6289 Ry                                         
                                                                                
   TITEL  = PAW_PBE Ti_pv 07Sep2000                                             
   LULTRA =        F    use ultrasoft PP ?                                      
   IUNSCR =        1    unscreen: 0-lin 1-nonlin 2-no                           
   RPACOR =    2.200    partial core radius                                     
   POMASS =   47.880; ZVAL   =   10.000    mass and valenz                      
   RCORE  =    2.500    outmost cutoff radius                                   
   RWIGS  =    2.500; RWIGS  =    1.323    wigner-seitz radius (au A)           
   ENMAX  =  222.335; ENMIN  =  166.751 eV                                      
   RCLOC  =    1.701    cutoff for local pot                                    
   LCOR   =        T    correct aug charges                                     
   LPAW   =        T    paw PP                                                  
   EAUG   =  482.848                                                            
   DEXC   =    0.000                                                            
   RMAX   =    2.564    core radius for proj-oper                               
   RAUG   =    1.300    factor for augmentation sphere                          
   RDEP   =    2.538    radius for radial grids                                 
   RDEPT  =    1.952    core radius for aug-charge                              
                                                                                
   Atomic configuration                                                         
    8 entries                                                                   
     n  l   j            E        occ.                                          
     1  0  0.50     -4865.3608   2.0000                                         
     2  0  0.50      -533.1368   2.0000                                         
     2  1  1.50      -440.5031   6.0000                                         
     3  0  0.50       -59.3186   2.0000                                         
     3  1  1.50       -35.7012   6.0000                                         
     3  2  2.50        -1.9157   3.0000                                         
     4  0  0.50        -3.7291   1.0000                                         
     4  3  2.50        -1.3606   0.0000                                         
   Description                                                                  
     l       E           TYP  RCUT    TYP  RCUT                                 
     1    -35.7012140     23  2.300                                             
     1     -1.3605826     23  2.300                                             
     2     -1.9156996     23  2.500                                             
     2     -0.4063033     23  2.500                                             
     0     -3.7290856     23  2.500                                             
     0     20.4087390     23  2.500                                             
  local pseudopotential read in
  partial core-charges read in
  partial kinetic energy density read in
  atomic valenz-charges read in
  non local Contribution for L=           1  read in
    real space projection operators read in
  non local Contribution for L=           1  read in
    real space projection operators read in
  non local Contribution for L=           2  read in
    real space projection operators read in
  non local Contribution for L=           2  read in
    real space projection operators read in
  non local Contribution for L=           0  read in
    real space projection operators read in
  non local Contribution for L=           0  read in
    real space projection operators read in
    PAW grid and wavefunctions read in
 
   number of l-projection  operators is LMAX  =           6
   number of lm-projection operators is LMMAX =          18
 
 POTCAR:    PAW_PBE O 08Apr2002                   
   VRHFIN =O: s2p4                                                              
   LEXCH  = PE                                                                  
   EATOM  =   432.3788 eV,   31.7789 Ry                                         
                                                                                
   TITEL  = PAW_PBE O 08Apr2002                                                 
   LULTRA =        F    use ultrasoft PP ?                                      
   IUNSCR =        1    unscreen: 0-lin 1-nonlin 2-no                           
   RPACOR =    1.200    partial core radius                                     
   POMASS =   16.000; ZVAL   =    6.000    mass and valenz                      
   RCORE  =    1.520    outmost cutoff radius                                   
   RWIGS  =    1.550; RWIGS  =    0.820    wigner-seitz radius (au A)           
   ENMAX  =  400.000; ENMIN  =  300.000 eV                                      
   ICORE  =        2    local potential                                         
   LCOR   =        T    correct aug charges                                     
   LPAW   =        T    paw PP                                                  
   EAUG   =  605.392                                                            
   DEXC   =    0.000                                                            
   RMAX   =    1.553    core radius for proj-oper                               
   RAUG   =    1.300    factor for augmentation sphere                          
   RDEP   =    1.550    radius for radial grids                                 
   RDEPT  =    1.329    core radius for aug-charge                              
                                                                                
   Atomic configuration                                                         
    4 entries                                                                   
     n  l   j            E        occ.                                          
     1  0  0.50      -514.6923   2.0000                                         
     2  0  0.50       -23.9615   2.0000                                         
     2  1  0.50        -9.0305   4.0000                                         
     3  2  1.50        -9.5241   0.0000                                         
   Description                                                                  
     l       E           TYP  RCUT    TYP  RCUT                                 
     0    -23.9615318     23  1.200                                             
     0     -9.5240782     23  1.200                                             
     1     -9.0304911     23  1.520                                             
     1      8.1634956     23  1.520                                             
     2     -9.5240782      7  1.500                                             
  local pseudopotential read in
  partial core-charges read in
  partial kinetic energy density read in
  kinetic energy density of atom read in
  atomic valenz-charges read in
  non local Contribution for L=           0  read in
    real space projection operators read in
  non local Contribution for L=           0  read in
    real space projection operators read in
  non local Contribution for L=           1  read in
    real space projection operators read in
  non local Contribution for L=           1  read in
    real space projection operators read in
    PAW grid and wavefunctions read in
 
   number of l-projection  operators is LMAX  =           4
   number of lm-projection operators is LMMAX =           8
 

 ----------------------------------------------------------------------------- 
|                                                                             |
|  ADVICE TO THIS USER RUNNING 'VASP/VAMP'   (HEAR YOUR MASTER'S VOICE ...):  |
|                                                                             |
|      You have a (more or less) 'small supercell' and for smaller cells      |
|      it is recommended  to use the reciprocal-space projection scheme!      |
|      The real space optimization is not  efficient for small cells and it   |
|      is also less accurate ...                                              |
|      Therefore set LREAL=.FALSE. in the  INCAR file                         |
|                                                                             |
 ----------------------------------------------------------------------------- 

 Optimization of the real space projectors (new method)

 maximal supplied QI-value         = 13.42
 optimisation between [QCUT,QGAM] = [ 11.67, 23.35] = [ 38.16,152.62] Ry 
 Optimized for a Real-space Cutoff    1.68 Angstroem

   l    n(q)    QCUT    max X(q) W(low)/X(q) W(high)/X(q)  e(spline) 
   0     12    11.673    13.244    0.27E-04    0.53E-05    0.55E-07
   0     12    11.673    14.240    0.39E-04    0.74E-05    0.11E-06
   1     11    11.673     4.828    0.65E-05    0.14E-04    0.51E-07
   1     11    11.673     3.934    0.16E-04    0.58E-04    0.38E-06
   2     11    11.673    87.714    0.23E-03    0.16E-03    0.84E-06
   2     11    11.673    59.874    0.22E-03    0.15E-03    0.81E-06
 Optimization of the real space projectors (new method)

 maximal supplied QI-value         = 15.12
 optimisation between [QCUT,QGAM] = [ 11.64, 23.28] = [ 37.95,151.78] Ry 
 Optimized for a Real-space Cutoff    1.49 Angstroem

   l    n(q)    QCUT    max X(q) W(low)/X(q) W(high)/X(q)  e(spline) 
   1     10    11.641     4.216    0.17E-04    0.40E-04    0.50E-07
   1     10    11.641     5.422    0.66E-04    0.10E-03    0.13E-06
   2      9    11.641    72.084    0.68E-04    0.13E-03    0.50E-06
   2      9    11.641    65.965    0.66E-04    0.13E-03    0.50E-06
   0     10    11.641    41.531    0.10E-03    0.87E-04    0.31E-06
   0     10    11.641    16.290    0.75E-04    0.66E-04    0.24E-06
 Optimization of the real space projectors (new method)

 maximal supplied QI-value         = 24.76
 optimisation between [QCUT,QGAM] = [ 11.64, 23.27] = [ 37.91,151.63] Ry 
 Optimized for a Real-space Cutoff    1.14 Angstroem

   l    n(q)    QCUT    max X(q) W(low)/X(q) W(high)/X(q)  e(spline) 
   0      8    11.635    20.381    0.10E-03    0.33E-03    0.24E-06
   0      8    11.635    15.268    0.11E-03    0.35E-03    0.26E-06
   1      7    11.635     5.964    0.24E-03    0.31E-03    0.30E-06
   1      7    11.635     5.382    0.22E-03    0.25E-03    0.26E-06
  PAW_PBE Ba_sv 06Sep2000               :
 energy of atom  1       EATOM= -700.8560
 kinetic energy error for atom=    0.0005 (will be added to EATOM!!)
  PAW_PBE Ti_pv 07Sep2000               :
 energy of atom  2       EATOM=-1042.5995
 kinetic energy error for atom=    0.0019 (will be added to EATOM!!)
  PAW_PBE O 08Apr2002                   :
 energy of atom  3       EATOM= -432.3788
 kinetic energy error for atom=    0.0208 (will be added to EATOM!!)
 
 
 POSCAR: Ba1 Ti1 O3                              
  positions in direct lattice
  velocities in cartesian coordinates
 exchange correlation table for  LEXCH =        8
   RHO(1)=    0.500       N(1)  =     2000
   RHO(2)=  100.500       N(2)  =     4000
 


--------------------------------------------------------------------------------------------------------


 ion  position               nearest neighbor table
   1  0.000  0.000  0.016-   3 2.83   4 2.83   3 2.83   4 2.83   5 2.84   5 2.84   5 2.84   5 2.84
                             3 2.96   4 2.96   4 2.96   3 2.96   2 3.48   2 3.48   2 3.48   2 3.48
   2  0.500  0.500  0.531-   5 1.87   4 2.01   3 2.01   4 2.01   3 2.01   5 2.31   1 3.48   1 3.48
                             1 3.48   1 3.48   1 3.56   1 3.56   1 3.56   1 3.56
   3  0.000  0.500  0.494-   2 2.01   2 2.01   1 2.83   1 2.83   1 2.96   1 2.96
   4  0.500  0.000  0.494-   2 2.01   2 2.01   1 2.83   1 2.83   1 2.96   1 2.96
   5  0.500  0.500  0.978-   2 1.87   2 2.31   1 2.84   1 2.84   1 2.84   1 2.84
 
  LATTYP: Found a simple tetragonal cell.
 ALAT       =     4.0084070000
 C/A-ratio  =     1.0415968239
  
  Lattice vectors:
  
 A1 = (   4.0084070000,   0.0000000000,   0.0000000000)
 A2 = (   0.0000000000,   4.0084070000,   0.0000000000)
 A3 = (   0.0000000000,   0.0000000000,   4.1751440000)


Analysis of symmetry for initial positions (statically):
=====================================================================
 Subroutine PRICEL returns:
 Original cell was already a primitive cell.
 

 Routine SETGRP: Setting up the symmetry group for a 
 simple tetragonal supercell.


 Subroutine GETGRP returns: Found  8 space group operations
 (whereof  8 operations were pure point group operations)
 out of a pool of 16 trial point group operations.


The static configuration has the point symmetry C_4v.


Analysis of symmetry for dynamics (positions and initial velocities):
=====================================================================
 Subroutine PRICEL returns:
 Original cell was already a primitive cell.
 

 Routine SETGRP: Setting up the symmetry group for a 
 simple tetragonal supercell.


 Subroutine GETGRP returns: Found  8 space group operations
 (whereof  8 operations were pure point group operations)
 out of a pool of 16 trial point group operations.


The dynamic configuration has the point symmetry C_4v.


Analysis of magnetic symmetry:
=====================================================================
 Subroutine PRICEL returns:
 Original cell was already a primitive cell.
 

 Subroutine MAGSYM returns: Found  8 space group operations
 (whereof  8 operations were pure point group operations)
 out of a pool of  8 trial space group operations
 (whereof  8 operations were pure point group operations)
 and found also     1 'primitive' translations


The magnetic configuration has the point symmetry C_4v.
 
 
 KPOINTS: pymatgen generated KPOINTS with grid den

Automatic generation of k-mesh.
Space group operators:
 irot       det(A)        alpha          n_x          n_y          n_z        tau_x        tau_y        tau_z
    1     1.000000     0.000000     1.000000     0.000000     0.000000     0.000000     0.000000     0.000000
    2     1.000000    90.000000     0.000000     0.000000    -1.000000     0.000000     0.000000     0.000000
    3     1.000000   180.000000     0.000000     0.000000     1.000000     0.000000     0.000000     0.000000
    4     1.000000    90.000000     0.000000     0.000000     1.000000     0.000000     0.000000     0.000000
    5    -1.000000   180.000000     0.000000     1.000000     0.000000     0.000000     0.000000     0.000000
    6    -1.000000   180.000000     0.707107     0.707107     0.000000     0.000000     0.000000     0.000000
    7    -1.000000   180.000000     1.000000     0.000000     0.000000     0.000000     0.000000     0.000000
    8    -1.000000   180.000000     0.707107    -0.707107     0.000000     0.000000     0.000000     0.000000
 
 Subroutine IBZKPT returns following result:
 ===========================================
 
 Found     40 irreducible k-points:
 
 Following reciprocal coordinates:
            Coordinates               Weight
  0.062500  0.062500  0.062500      8.000000
  0.187500  0.062500  0.062500     16.000000
  0.312500  0.062500  0.062500     16.000000
  0.437500  0.062500  0.062500     16.000000
  0.187500  0.187500  0.062500      8.000000
  0.312500  0.187500  0.062500     16.000000
  0.437500  0.187500  0.062500     16.000000
  0.312500  0.312500  0.062500      8.000000
  0.437500  0.312500  0.062500     16.000000
  0.437500  0.437500  0.062500      8.000000
  0.062500  0.062500  0.187500      8.000000
  0.187500  0.062500  0.187500     16.000000
  0.312500  0.062500  0.187500     16.000000
  0.437500  0.062500  0.187500     16.000000
  0.187500  0.187500  0.187500      8.000000
  0.312500  0.187500  0.187500     16.000000
  0.437500  0.187500  0.187500     16.000000
  0.312500  0.312500  0.187500      8.000000
  0.437500  0.312500  0.187500     16.000000
  0.437500  0.437500  0.187500      8.000000
  0.062500  0.062500  0.312500      8.000000
  0.187500  0.062500  0.312500     16.000000
  0.312500  0.062500  0.312500     16.000000
  0.437500  0.062500  0.312500     16.000000
  0.187500  0.187500  0.312500      8.000000
  0.312500  0.187500  0.312500     16.000000
  0.437500  0.187500  0.312500     16.000000
  0.312500  0.312500  0.312500      8.000000
  0.437500  0.312500  0.312500     16.000000
  0.437500  0.437500  0.312500      8.000000
  0.062500  0.062500  0.437500      8.000000
  0.187500  0.062500  0.437500     16.000000
  0.312500  0.062500  0.437500     16.000000
  0.437500  0.062500  0.437500     16.000000
  0.187500  0.187500  0.437500      8.000000
  0.312500  0.187500  0.437500     16.000000
  0.437500  0.187500  0.437500     16.000000
  0.312500  0.312500  0.437500      8.000000
  0.437500  0.312500  0.437500     16.000000
  0.437500  0.437500  0.437500      8.000000
 
 Following cartesian coordinates:
            Coordinates               Weight
  0.015592  0.015592  0.014970      8.000000
  0.046777  0.015592  0.014970     16.000000
  0.077961  0.015592  0.014970     16.000000
  0.109146  0.015592  0.014970     16.000000
  0.046777  0.046777  0.014970      8.000000
  0.077961  0.046777  0.014970     16.000000
  0.109146  0.046777  0.014970     16.000000
  0.077961  0.077961  0.014970      8.000000
  0.109146  0.077961  0.014970     16.000000
  0.109146  0.109146  0.014970      8.000000
  0.015592  0.015592  0.044909      8.000000
  0.046777  0.015592  0.044909     16.000000
  0.077961  0.015592  0.044909     16.000000
  0.109146  0.015592  0.044909     16.000000
  0.046777  0.046777  0.044909      8.000000
  0.077961  0.046777  0.044909     16.000000
  0.109146  0.046777  0.044909     16.000000
  0.077961  0.077961  0.044909      8.000000
  0.109146  0.077961  0.044909     16.000000
  0.109146  0.109146  0.044909      8.000000
  0.015592  0.015592  0.074848      8.000000
  0.046777  0.015592  0.074848     16.000000
  0.077961  0.015592  0.074848     16.000000
  0.109146  0.015592  0.074848     16.000000
  0.046777  0.046777  0.074848      8.000000
  0.077961  0.046777  0.074848     16.000000
  0.109146  0.046777  0.074848     16.000000
  0.077961  0.077961  0.074848      8.000000
  0.109146  0.077961  0.074848     16.000000
  0.109146  0.109146  0.074848      8.000000
  0.015592  0.015592  0.104787      8.000000
  0.046777  0.015592  0.104787     16.000000
  0.077961  0.015592  0.104787     16.000000
  0.109146  0.015592  0.104787     16.000000
  0.046777  0.046777  0.104787      8.000000
  0.077961  0.046777  0.104787     16.000000
  0.109146  0.046777  0.104787     16.000000
  0.077961  0.077961  0.104787      8.000000
  0.109146  0.077961  0.104787     16.000000
  0.109146  0.109146  0.104787      8.000000
 
 TETIRR: Found    703 inequivalent tetrahedra from     3072


--------------------------------------------------------------------------------------------------------




 Dimension of arrays:
   k-points           NKPTS =     40   k-points in BZ     NKDIM =     40   number of bands    NBANDS=     32
   number of dos      NEDOS =    301   number of ions     NIONS =      5
   non local maximal  LDIM  =      6   non local SUM 2l+1 LMDIM =     18
   total plane-waves  NPLWV =  28800
   max r-space proj   IRMAX =   8516   max aug-charges    IRDMAX=  27070
   dimension x,y,z NGX =    30 NGY =   30 NGZ =   32
   dimension x,y,z NGXF=    60 NGYF=   60 NGZF=   64
   support grid    NGXF=    60 NGYF=   60 NGZF=   64
   ions per type =               1   1   3
 NGX,Y,Z   is equivalent  to a cutoff of  12.44, 12.44, 12.74 a.u.
 NGXF,Y,Z  is equivalent  to a cutoff of  24.88, 24.88, 25.48 a.u.


 I would recommend the setting:
   dimension x,y,z NGX =    30 NGY =   30 NGZ =   31
 SYSTEM =  unknown system                          
 POSCAR =  Ba1 Ti1 O3                              

 Startparameter for this run:
   NWRITE =      2    write-flag & timer
   PREC   = accura    normal or accurate (medium, high low for compatibility)
   ISTART =      0    job   : 0-new  1-cont  2-samecut
   ICHARG =      0    charge: 1-file 2-atom 10-const
   ISPIN  =      2    spin polarized calculation?
   LNONCOLLINEAR =      F non collinear calculations
   LSORBIT =      F    spin-orbit coupling
   INIWAV =      1    electr: 0-lowe 1-rand  2-diag
   LASPH  =      F    aspherical Exc in radial PAW
   METAGGA=      F    non-selfconsistent MetaGGA calc.

 Electronic Relaxation 1
   ENCUT  =  520.0 eV  38.22 Ry    6.18 a.u.   7.45  7.45  7.76*2*pi/ulx,y,z
   ENINI  =  520.0     initial cutoff
   ENAUG  =  605.4 eV  augmentation charge cutoff
   NELM   =    100;   NELMIN=  2; NELMDL= -5     # of ELM steps 
   EDIFF  = 0.3E-03   stopping-criterion for ELM
   LREAL  =      T    real-space projection
   NLSPLINE    = F    spline interpolate recip. space projectors
   LCOMPAT=      F    compatible to vasp.4.4
   GGA_COMPAT  = T    GGA compatible to vasp.4.4-vasp.4.6
   LMAXPAW     = -100 max onsite density
   LMAXMIX     =    2 max onsite mixed and CHGCAR
   VOSKOWN=      0    Vosko Wilk Nusair interpolation
   ROPT   =   -0.00025  -0.00025  -0.00025
 Ionic relaxation
   EDIFFG = 0.3E-02   stopping-criterion for IOM
   NSW    =      0    number of steps for IOM
   NBLOCK =      1;   KBLOCK =      1    inner block; outer block 
   IBRION =     -1    ionic relax: 0-MD 1-quasi-New 2-CG
   NFREE  =      0    steps in history (QN), initial steepest desc. (CG)
   ISIF   =      3    stress and relaxation
   IWAVPR =     10    prediction:  0-non 1-charg 2-wave 3-comb
   ISYM   =      2    0-nonsym 1-usesym 2-fastsym
   LCORR  =      T    Harris-Foulkes like correction to forces

   POTIM  = 0.5000    time-step for ionic-motion
   TEIN   =    0.0    initial temperature
   TEBEG  =    0.0;   TEEND  =   0.0 temperature during run
   SMASS  =  -3.00    Nose mass-parameter (am)
   estimated Nose-frequenzy (Omega)   =  0.10E-29 period in steps =****** mass=  -0.367E-27a.u.
   SCALEE = 1.0000    scale energy and forces
   NPACO  =    256;   APACO  = 16.0  distance and # of slots for P.C.
   PSTRESS=    0.0 pullay stress

  Mass of Ions in am
   POMASS = 137.33 47.88 16.00
  Ionic Valenz
   ZVAL   =  10.00 10.00  6.00
  Atomic Wigner-Seitz radii
   RWIGS  =  -1.00 -1.00 -1.00
  virtual crystal weights 
   VCA    =   1.00  1.00  1.00
   NELECT =      38.0000    total number of electrons
   NUPDOWN=      -1.0000    fix difference up-down

 DOS related values:
   EMIN   =  10.00;   EMAX   =-10.00  energy-range for DOS
   EFERMI =   0.00
   ISMEAR =    -5;   SIGMA  =   0.05  broadening in eV -4-tet -1-fermi 0-gaus

 Electronic relaxation 2 (details)
   IALGO  =     38    algorithm
   LDIAG  =      T    sub-space diagonalisation (order eigenvalues)
   LSUBROT=      F    optimize rotation matrix (better conditioning)
   TURBO    =      0    0=normal 1=particle mesh
   IRESTART =      0    0=no restart 2=restart with 2 vectors
   NREBOOT  =      0    no. of reboots
   NMIN     =      0    reboot dimension
   EREF     =   0.00    reference energy to select bands
   IMIX   =      4    mixing-type and parameters
     AMIX     =   0.40;   BMIX     =  1.00
     AMIX_MAG =   1.60;   BMIX_MAG =  1.00
     AMIN     =   0.10
     WC   =   100.;   INIMIX=   1;  MIXPRE=   1;  MAXMIX= -45

 Intra band minimization:
   WEIMIN = 0.0000     energy-eigenvalue tresh-hold
   EBREAK =  0.20E-05  absolut break condition
   DEPER  =   0.30     relativ break condition  

   TIME   =   0.40     timestep for ELM

  volume/ion in A,a.u.               =      13.42        90.54
  Fermi-wavevector in a.u.,A,eV,Ry     =   1.354558  2.559744 24.964349  1.834828
  Thomas-Fermi vector in A             =   2.481720
 
 Write flags
   LWAVE  =      T    write WAVECAR
   LCHARG =      T    write CHGCAR
   LVTOT  =      F    write LOCPOT, total local potential
   LVHAR  =      T    write LOCPOT, Hartree potential only
   LELF   =      F    write electronic localiz. function (ELF)
   LORBIT =     11    0 simple, 1 ext, 2 COOP (PROOUT)


 Dipole corrections
   LMONO  =      F    monopole corrections only (constant potential shift)
   LDIPOL =      F    correct potential (dipole corrections)
   IDIPOL =      0    1-x, 2-y, 3-z, 4-all directions 
   EPSILON=  1.0000000 bulk dielectric constant

 Exchange correlation treatment:
   GGA     =    --    GGA type
   LEXCH   =     8    internal setting for exchange type
   VOSKOWN=      0    Vosko Wilk Nusair interpolation
   LHFCALC =     F    Hartree Fock is set to
   LHFONE  =     F    Hartree Fock one center treatment
   AEXX    =    0.0000 exact exchange contribution

 Linear response parameters
   LEPSILON=     F    determine dielectric tensor
   LRPA    =     F    only Hartree local field effects (RPA)
   LNABLA  =     F    use nabla operator in PAW spheres
   LVEL    =     F    velocity operator in full k-point grid
   LINTERFAST=   F  fast interpolation
   KINTER  =     0    interpolate to denser k-point grid
   CSHIFT  =0.1000    complex shift for real part using Kramers Kronig
   OMEGAMAX=  -1.0    maximum frequency
   DEG_THRESHOLD= 0.2000000E-02 threshold for treating states as degnerate
   RTIME   =    0.100 relaxation time in fs

 Orbital magnetization related:
   ORBITALMAG=     F  switch on orbital magnetization
   LCHIMAG   =     F  perturbation theory with respect to B field
   DQ        =  0.001000  dq finite difference perturbation B field



--------------------------------------------------------------------------------------------------------


 Static calculation
 charge density and potential will be updated during run
 spin polarized calculation
 Variant of blocked Davidson
 Davidson routine will perform the subspace rotation
 perform sub-space diagonalisation
    after iterative eigenvector-optimisation
 modified Broyden-mixing scheme, WC =      100.0
 initial mixing is a Kerker type mixing with AMIX =  0.4000 and BMIX =      1.0000
 Hartree-type preconditioning will be used
 using additional bands           13
 real space projection scheme for non local part
 use partial core corrections
 calculate Harris-corrections to forces 
   (improved forces if not selfconsistent)
 use gradient corrections 
 use of overlap-Matrix (Vanderbilt PP)
 Fermi weights with tetrahedron method with Bloechl corrections


--------------------------------------------------------------------------------------------------------


  energy-cutoff  :      520.00
  volume of cell :       67.08
      direct lattice vectors                 reciprocal lattice vectors
     4.008407000  0.000000000  0.000000000     0.249475665  0.000000000  0.000000000
     0.000000000  4.008407000  0.000000000     0.000000000  0.249475665  0.000000000
     0.000000000  0.000000000  4.175144000     0.000000000  0.000000000  0.239512697

  length of vectors
     4.008407000  4.008407000  4.175144000     0.249475665  0.249475665  0.239512697


 
 k-points in units of 2pi/SCALE and weight: pymatgen generated KPOINTS with grid den
   0.01559223  0.01559223  0.01496954       0.016
   0.04677669  0.01559223  0.01496954       0.031
   0.07796115  0.01559223  0.01496954       0.031
   0.10914560  0.01559223  0.01496954       0.031
   0.04677669  0.04677669  0.01496954       0.016
   0.07796115  0.04677669  0.01496954       0.031
   0.10914560  0.04677669  0.01496954       0.031
   0.07796115  0.07796115  0.01496954       0.016
   0.10914560  0.07796115  0.01496954       0.031
   0.10914560  0.10914560  0.01496954       0.016
   0.01559223  0.01559223  0.04490863       0.016
   0.04677669  0.01559223  0.04490863       0.031
   0.07796115  0.01559223  0.04490863       0.031
   0.10914560  0.01559223  0.04490863       0.031
   0.04677669  0.04677669  0.04490863       0.016
   0.07796115  0.04677669  0.04490863       0.031
   0.10914560  0.04677669  0.04490863       0.031
   0.07796115  0.07796115  0.04490863       0.016
   0.10914560  0.07796115  0.04490863       0.031
   0.10914560  0.10914560  0.04490863       0.016
   0.01559223  0.01559223  0.07484772       0.016
   0.04677669  0.01559223  0.07484772       0.031
   0.07796115  0.01559223  0.07484772       0.031
   0.10914560  0.01559223  0.07484772       0.031
   0.04677669  0.04677669  0.07484772       0.016
   0.07796115  0.04677669  0.07484772       0.031
   0.10914560  0.04677669  0.07484772       0.031
   0.07796115  0.07796115  0.07484772       0.016
   0.10914560  0.07796115  0.07484772       0.031
   0.10914560  0.10914560  0.07484772       0.016
   0.01559223  0.01559223  0.10478680       0.016
   0.04677669  0.01559223  0.10478680       0.031
   0.07796115  0.01559223  0.10478680       0.031
   0.10914560  0.01559223  0.10478680       0.031
   0.04677669  0.04677669  0.10478680       0.016
   0.07796115  0.04677669  0.10478680       0.031
   0.10914560  0.04677669  0.10478680       0.031
   0.07796115  0.07796115  0.10478680       0.016
   0.10914560  0.07796115  0.10478680       0.031
   0.10914560  0.10914560  0.10478680       0.016
 
 k-points in reciprocal lattice and weights: pymatgen generated KPOINTS with grid den
   0.06250000  0.06250000  0.06250000       0.016
   0.18750000  0.06250000  0.06250000       0.031
   0.31250000  0.06250000  0.06250000       0.031
   0.43750000  0.06250000  0.06250000       0.031
   0.18750000  0.18750000  0.06250000       0.016
   0.31250000  0.18750000  0.06250000       0.031
   0.43750000  0.18750000  0.06250000       0.031
   0.31250000  0.31250000  0.06250000       0.016
   0.43750000  0.31250000  0.06250000       0.031
   0.43750000  0.43750000  0.06250000       0.016
   0.06250000  0.06250000  0.18750000       0.016
   0.18750000  0.06250000  0.18750000       0.031
   0.31250000  0.06250000  0.18750000       0.031
   0.43750000  0.06250000  0.18750000       0.031
   0.18750000  0.18750000  0.18750000       0.016
   0.31250000  0.18750000  0.18750000       0.031
   0.43750000  0.18750000  0.18750000       0.031
   0.31250000  0.31250000  0.18750000       0.016
   0.43750000  0.31250000  0.18750000       0.031
   0.43750000  0.43750000  0.18750000       0.016
   0.06250000  0.06250000  0.31250000       0.016
   0.18750000  0.06250000  0.31250000       0.031
   0.31250000  0.06250000  0.31250000       0.031
   0.43750000  0.06250000  0.31250000       0.031
   0.18750000  0.18750000  0.31250000       0.016
   0.31250000  0.18750000  0.31250000       0.031
   0.43750000  0.18750000  0.31250000       0.031
   0.31250000  0.31250000  0.31250000       0.016
   0.43750000  0.31250000  0.31250000       0.031
   0.43750000  0.43750000  0.31250000       0.016
   0.06250000  0.06250000  0.43750000       0.016
   0.18750000  0.06250000  0.43750000       0.031
   0.31250000  0.06250000  0.43750000       0.031
   0.43750000  0.06250000  0.43750000       0.031
   0.18750000  0.18750000  0.43750000       0.016
   0.31250000  0.18750000  0.43750000       0.031
   0.43750000  0.18750000  0.43750000       0.031
   0.31250000  0.31250000  0.43750000       0.016
   0.43750000  0.31250000  0.43750000       0.031
   0.43750000  0.43750000  0.43750000       0.016
 
 position of ions in fractional coordinates (direct lattice) 
   0.00000000  0.00000000  0.01639000
   0.50000000  0.50000000  0.53084000
   0.00000000  0.50000000  0.49441700
   0.50000000  0.00000000  0.49441700
   0.50000000  0.50000000  0.97793400
 
 position of ions in cartesian coordinates  (Angst):
   0.00000000  0.00000000  0.06843061
   2.00420350  2.00420350  2.21633344
   0.00000000  2.00420350  2.06426217
   2.00420350  0.00000000  2.06426217
   2.00420350  2.00420350  4.08301527
 


--------------------------------------------------------------------------------------------------------


 k-point  1 :   0.0625 0.0625 0.0625  plane waves:    1820
 k-point  2 :   0.1875 0.0625 0.0625  plane waves:    1811
 k-point  3 :   0.3125 0.0625 0.0625  plane waves:    1808
 k-point  4 :   0.4375 0.0625 0.0625  plane waves:    1804
 k-point  5 :   0.1875 0.1875 0.0625  plane waves:    1803
 k-point  6 :   0.3125 0.1875 0.0625  plane waves:    1806
 k-point  7 :   0.4375 0.1875 0.0625  plane waves:    1808
 k-point  8 :   0.3125 0.3125 0.0625  plane waves:    1814
 k-point  9 :   0.4375 0.3125 0.0625  plane waves:    1803
 k-point 10 :   0.4375 0.4375 0.0625  plane waves:    1790
 k-point 11 :   0.0625 0.0625 0.1875  plane waves:    1819
 k-point 12 :   0.1875 0.0625 0.1875  plane waves:    1807
 k-point 13 :   0.3125 0.0625 0.1875  plane waves:    1807
 k-point 14 :   0.4375 0.0625 0.1875  plane waves:    1800
 k-point 15 :   0.1875 0.1875 0.1875  plane waves:    1798
 k-point 16 :   0.3125 0.1875 0.1875  plane waves:    1811
 k-point 17 :   0.4375 0.1875 0.1875  plane waves:    1802
 k-point 18 :   0.3125 0.3125 0.1875  plane waves:    1808
 k-point 19 :   0.4375 0.3125 0.1875  plane waves:    1799
 k-point 20 :   0.4375 0.4375 0.1875  plane waves:    1795
 k-point 21 :   0.0625 0.0625 0.3125  plane waves:    1824
 k-point 22 :   0.1875 0.0625 0.3125  plane waves:    1820
 k-point 23 :   0.3125 0.0625 0.3125  plane waves:    1808
 k-point 24 :   0.4375 0.0625 0.3125  plane waves:    1799
 k-point 25 :   0.1875 0.1875 0.3125  plane waves:    1813
 k-point 26 :   0.3125 0.1875 0.3125  plane waves:    1806
 k-point 27 :   0.4375 0.1875 0.3125  plane waves:    1799
 k-point 28 :   0.3125 0.3125 0.3125  plane waves:    1804
 k-point 29 :   0.4375 0.3125 0.3125  plane waves:    1804
 k-point 30 :   0.4375 0.4375 0.3125  plane waves:    1794
 k-point 31 :   0.0625 0.0625 0.4375  plane waves:    1821
 k-point 32 :   0.1875 0.0625 0.4375  plane waves:    1820
 k-point 33 :   0.3125 0.0625 0.4375  plane waves:    1809
 k-point 34 :   0.4375 0.0625 0.4375  plane waves:    1799
 k-point 35 :   0.1875 0.1875 0.4375  plane waves:    1810
 k-point 36 :   0.3125 0.1875 0.4375  plane waves:    1806
 k-point 37 :   0.4375 0.1875 0.4375  plane waves:    1800
 k-point 38 :   0.3125 0.3125 0.4375  plane waves:    1792
 k-point 39 :   0.4375 0.3125 0.4375  plane waves:    1801
 k-point 40 :   0.4375 0.4375 0.4375  plane waves:    1811

 maximum and minimum number of plane-waves per node :      1824     1790

 maximum number of plane-waves:      1824
 maximum index in each direction: 
   IXMAX=    7   IYMAX=    7   IZMAX=    7
   IXMIN=   -7   IYMIN=   -7   IZMIN=   -8

 NGX is ok and might be reduce to  30
 NGY is ok and might be reduce to  30
 NGZ is ok and might be reduce to  32

 serial   3D FFT for wavefunctions
 parallel 3D FFT for charge:
    minimum data exchange during FFTs selected (reduces bandwidth)


 total amount of memory used by VASP on root node    49576. kBytes
========================================================================

   base      :      30000. kBytes
   nonlr-proj:       3488. kBytes
   fftplans  :       1162. kBytes
   grid      :       5105. kBytes
   one-center:        155. kBytes
   wavefun   :       9666. kBytes
 
     INWAV:  cpu time    0.00: real time    0.00
 Broyden mixing: mesh for mixing (old mesh)
   NGX = 15   NGY = 15   NGZ = 15
  (NGX  = 60   NGY  = 60   NGZ  = 64)
  gives a total of   3375 points

 charge density for first step will be calculated from the start-wavefunctions


--------------------------------------------------------------------------------------------------------


 Maximum index for non-local projection operator         8230
 Maximum index for augmentation-charges         3812 (set IRDMAX)


--------------------------------------------------------------------------------------------------------


 initial charge from wavefunction
 First call to EWALD:  gamma=   0.436
 Maximum number of real-space cells 3x 3x 3
 Maximum number of reciprocal cells 3x 3x 3

 FEWALD executed in parallel
    FEWALD:  cpu time    0.00: real time    0.00


----------------------------------------- Iteration    1(   1)  ---------------------------------------


    POTLOK:  cpu time    0.30: real time    0.30
    SETDIJ:  cpu time    0.02: real time    0.02
     EDDAV:  cpu time   10.19: real time   10.20
 BZINTS: Fermi energy:-25.791966; 38.000000 electrons
         Band energy:***********;  BLOECHL correction: -1.220361
       DOS:  cpu time    0.09: real time    0.09
    --------------------------------------------
      LOOP:  cpu time   10.60: real time   10.61

 eigenvalue-minimisations  :  6264
 total energy-change (2. order) :-0.9130569E+03  (-0.3445347E+04)
 number of electron      37.9999998 magnetization      -0.0000000
 augmentation part       -1.2405018 magnetization       0.0160715

 Free energy of the ion-electron system (eV)
  ---------------------------------------------------
  alpha Z        PSCENC =       249.78219263
  Ewald energy   TEWEN  =     -2480.38962821
  -Hartree energ DENC   =       -62.31177582
  -exchange      EXHF   =         0.00000000
  -V(xc)+E(xc)   XCENC  =       115.15758405
  PAW double counting   =    111420.13104627  -111419.52244384
  entropy T*S    EENTRO =         0.00000000
  eigenvalues    EBANDS =     -1776.43085090
  atomic energy  EATOM  =      3040.52701931
  ---------------------------------------------------
  free energy    TOTEN  =      -913.05685653 eV

  energy without entropy =     -913.05685653  energy(sigma->0) =     -913.05685653


--------------------------------------------------------------------------------------------------------




----------------------------------------- Iteration    1(   2)  ---------------------------------------


     EDDAV:  cpu time    8.77: real time    8.77
 BZINTS: Fermi energy:-42.139586; 38.000000 electrons
         Band energy:***********;  BLOECHL correction:  0.000000
       DOS:  cpu time    0.02: real time    0.02
    --------------------------------------------
      LOOP:  cpu time    8.80: real time    9.32

 eigenvalue-minimisations  :  5200
 total energy-change (2. order) :-0.4180930E+03  (-0.3988070E+03)
 number of electron      37.9999998 magnetization      -0.0000000
 augmentation part       -1.2405018 magnetization       0.0160715

 Free energy of the ion-electron system (eV)
  ---------------------------------------------------
  alpha Z        PSCENC =       249.78219263
  Ewald energy   TEWEN  =     -2480.38962821
  -Hartree energ DENC   =       -62.31177582
  -exchange      EXHF   =         0.00000000
  -V(xc)+E(xc)   XCENC  =       115.15758405
  PAW double counting   =    111420.13104627  -111419.52244384
  entropy T*S    EENTRO =         0.00000000
  eigenvalues    EBANDS =     -2194.52381988
  atomic energy  EATOM  =      3040.52701931
  ---------------------------------------------------
  free energy    TOTEN  =     -1331.14982551 eV

  energy without entropy =    -1331.14982551  energy(sigma->0) =    -1331.14982551


--------------------------------------------------------------------------------------------------------




----------------------------------------- Iteration    1(   3)  ---------------------------------------


     EDDAV:  cpu time   10.17: real time   10.17
 BZINTS: Fermi energy:-44.131339; 38.000000 electrons
         Band energy:***********;  BLOECHL correction:  0.000000
       DOS:  cpu time    0.01: real time    0.01
    --------------------------------------------
      LOOP:  cpu time   10.19: real time   10.19

 eigenvalue-minimisations  :  6240
 total energy-change (2. order) :-0.2634691E+02  (-0.2617993E+02)
 number of electron      37.9999998 magnetization      -0.0000000
 augmentation part       -1.2405018 magnetization       0.0160715

 Free energy of the ion-electron system (eV)
  ---------------------------------------------------
  alpha Z        PSCENC =       249.78219263
  Ewald energy   TEWEN  =     -2480.38962821
  -Hartree energ DENC   =       -62.31177582
  -exchange      EXHF   =         0.00000000
  -V(xc)+E(xc)   XCENC  =       115.15758405
  PAW double counting   =    111420.13104627  -111419.52244384
  entropy T*S    EENTRO =         0.00000000
  eigenvalues    EBANDS =     -2220.87072794
  atomic energy  EATOM  =      3040.52701931
  ---------------------------------------------------
  free energy    TOTEN  =     -1357.49673357 eV

  energy without entropy =    -1357.49673357  energy(sigma->0) =    -1357.49673357


--------------------------------------------------------------------------------------------------------




----------------------------------------- Iteration    1(   4)  ---------------------------------------


     EDDAV:  cpu time   10.98: real time   10.97
 BZINTS: Fermi energy:-44.185943; 38.000000 electrons
         Band energy:***********;  BLOECHL correction:  0.000000
       DOS:  cpu time    0.02: real time    0.02
    --------------------------------------------
      LOOP:  cpu time   11.00: real time   11.01

 eigenvalue-minimisations  :  6840
 total energy-change (2. order) :-0.8449695E+00  (-0.8446912E+00)
 number of electron      37.9999998 magnetization      -0.0000000
 augmentation part       -1.2405018 magnetization       0.0160715

 Free energy of the ion-electron system (eV)
  ---------------------------------------------------
  alpha Z        PSCENC =       249.78219263
  Ewald energy   TEWEN  =     -2480.38962821
  -Hartree energ DENC   =       -62.31177582
  -exchange      EXHF   =         0.00000000
  -V(xc)+E(xc)   XCENC  =       115.15758405
  PAW double counting   =    111420.13104627  -111419.52244384
  entropy T*S    EENTRO =         0.00000000
  eigenvalues    EBANDS =     -2221.71569748
  atomic energy  EATOM  =      3040.52701931
  ---------------------------------------------------
  free energy    TOTEN  =     -1358.34170311 eV

  energy without entropy =    -1358.34170311  energy(sigma->0) =    -1358.34170311


--------------------------------------------------------------------------------------------------------




----------------------------------------- Iteration    1(   5)  ---------------------------------------


     EDDAV:  cpu time   12.45: real time   12.45
 BZINTS: Fermi energy:-44.275455; 38.000000 electrons
         Band energy:***********;  BLOECHL correction:  0.000000
       DOS:  cpu time    0.01: real time    0.01
    CHARGE:  cpu time    0.46: real time    0.46
    MIXING:  cpu time    0.00: real time    0.00
    --------------------------------------------
      LOOP:  cpu time   12.93: real time   12.94

 eigenvalue-minimisations  :  7976
 total energy-change (2. order) :-0.3404258E-01  (-0.3404186E-01)
 number of electron      37.9999970 magnetization      -0.0000000
 augmentation part       15.8145623 magnetization      -0.0002620

 Broyden mixing:
  rms(total) = 0.39236E+02    rms(broyden)= 0.39227E+02
  rms(prec ) = 0.57203E+02
  weight for this iteration     100.00

 Free energy of the ion-electron system (eV)
  ---------------------------------------------------
  alpha Z        PSCENC =       249.78219263
  Ewald energy   TEWEN  =     -2480.38962821
  -Hartree energ DENC   =       -62.31177582
  -exchange      EXHF   =         0.00000000
  -V(xc)+E(xc)   XCENC  =       115.15758405
  PAW double counting   =    111420.13104627  -111419.52244384
  entropy T*S    EENTRO =         0.00000000
  eigenvalues    EBANDS =     -2221.74974006
  atomic energy  EATOM  =      3040.52701931
  ---------------------------------------------------
  free energy    TOTEN  =     -1358.37574569 eV

  energy without entropy =    -1358.37574569  energy(sigma->0) =    -1358.37574569


--------------------------------------------------------------------------------------------------------




----------------------------------------- Iteration    1(   6)  ---------------------------------------


    POTLOK:  cpu time    0.09: real time    0.09
    SETDIJ:  cpu time    0.02: real time    0.02
     EDDAV:  cpu time   13.25: real time   13.25
 BZINTS: Fermi energy: -3.154246; 38.000000 electrons
         Band energy:-680.223122;  BLOECHL correction:  0.000000
       DOS:  cpu time    0.02: real time    0.02
    CHARGE:  cpu time    0.46: real time    0.46
    MIXING:  cpu time    0.00: real time    0.00
    --------------------------------------------
      LOOP:  cpu time   13.84: real time   13.84

 eigenvalue-minimisations  :  8560
 total energy-change (2. order) : 0.1119757E+04  (-0.3492452E+03)
 number of electron      37.9999960 magnetization      -0.0000000
 augmentation part        6.8371853 magnetization       0.0026125

 Broyden mixing:
  rms(total) = 0.25154E+02    rms(broyden)= 0.25152E+02
  rms(prec ) = 0.29535E+02
  weight for this iteration     100.00

 eigenvalues of (default mixing * dielectric matrix)
  average eigenvalue GAMMA=   0.6483
  0.6483

 Free energy of the ion-electron system (eV)
  ---------------------------------------------------
  alpha Z        PSCENC =       249.78219263
  Ewald energy   TEWEN  =     -2480.38962821
  -Hartree energ DENC   =      -480.10148523
  -exchange      EXHF   =         0.00000000
  -V(xc)+E(xc)   XCENC  =       136.39921157
  PAW double counting   =    204905.14018349  -204929.75322649
  entropy T*S    EENTRO =         0.00000000
  eigenvalues    EBANDS =      -680.22312174
  atomic energy  EATOM  =      3040.52701931
  ---------------------------------------------------
  free energy    TOTEN  =      -238.61885467 eV

  energy without entropy =     -238.61885467  energy(sigma->0) =     -238.61885467


--------------------------------------------------------------------------------------------------------




----------------------------------------- Iteration    1(   7)  ---------------------------------------


    POTLOK:  cpu time    0.09: real time    0.09
    SETDIJ:  cpu time    0.02: real time    0.02
     EDDAV:  cpu time    9.78: real time    9.77
 BZINTS: Fermi energy:  0.975828; 38.000000 electrons
         Band energy:-463.534177;  BLOECHL correction:  0.000000
       DOS:  cpu time    0.02: real time    0.02
    CHARGE:  cpu time    0.46: real time    0.46
    MIXING:  cpu time    0.00: real time    0.00
    --------------------------------------------
      LOOP:  cpu time   10.37: real time   10.38

 eigenvalue-minimisations  :  5968
 total energy-change (2. order) : 0.1499140E+03  (-0.3699577E+02)
 number of electron      37.9999971 magnetization       0.0000000
 augmentation part        5.2797621 magnetization      -0.0017531

 Broyden mixing:
  rms(total) = 0.16425E+02    rms(broyden)= 0.16425E+02
  rms(prec ) = 0.18475E+02
  weight for this iteration     100.00

 eigenvalues of (default mixing * dielectric matrix)
  average eigenvalue GAMMA=   1.3345
  1.1580  1.5111

 Free energy of the ion-electron system (eV)
  ---------------------------------------------------
  alpha Z        PSCENC =       249.78219263
  Ewald energy   TEWEN  =     -2480.38962821
  -Hartree energ DENC   =      -553.51973422
  -exchange      EXHF   =         0.00000000
  -V(xc)+E(xc)   XCENC  =       141.85469222
  PAW double counting   =    105665.21446409  -105688.63971097
  entropy T*S    EENTRO =         0.00000000
  eigenvalues    EBANDS =      -463.53417682
  atomic energy  EATOM  =      3040.52701931
  ---------------------------------------------------
  free energy    TOTEN  =       -88.70488197 eV

  energy without entropy =      -88.70488197  energy(sigma->0) =      -88.70488197


--------------------------------------------------------------------------------------------------------




----------------------------------------- Iteration    1(   8)  ---------------------------------------


    POTLOK:  cpu time    0.09: real time    0.09
    SETDIJ:  cpu time    0.02: real time    0.02
     EDDAV:  cpu time   11.15: real time   11.15
 BZINTS: Fermi energy:  3.243527; 38.000000 electrons
         Band energy:-371.056276;  BLOECHL correction: -0.051949
       DOS:  cpu time    0.10: real time    0.10
    CHARGE:  cpu time    0.46: real time    0.46
    MIXING:  cpu time    0.00: real time    0.00
    --------------------------------------------
      LOOP:  cpu time   11.82: real time   11.83

 eigenvalue-minimisations  :  6496
 total energy-change (2. order) : 0.2778744E+02  (-0.2357241E+02)
 number of electron      37.9999995 magnetization      -0.0021831
 augmentation part        7.5661701 magnetization       0.0228503

 Broyden mixing:
  rms(total) = 0.80243E+01    rms(broyden)= 0.80232E+01
  rms(prec ) = 0.14682E+02
  weight for this iteration     100.00

 eigenvalues of (default mixing * dielectric matrix)
  average eigenvalue GAMMA=   1.0042
  1.5346  1.1770  0.3011

 Free energy of the ion-electron system (eV)
  ---------------------------------------------------
  alpha Z        PSCENC =       249.78219263
  Ewald energy   TEWEN  =     -2480.38962821
  -Hartree energ DENC   =      -630.18962633
  -exchange      EXHF   =         0.00000000
  -V(xc)+E(xc)   XCENC  =       146.06680641
  PAW double counting   =     22924.18582088   -22939.84374879
  entropy T*S    EENTRO =         0.00000000
  eigenvalues    EBANDS =      -371.05627582
  atomic energy  EATOM  =      3040.52701931
  ---------------------------------------------------
  free energy    TOTEN  =       -60.91743992 eV

  energy without entropy =      -60.91743992  energy(sigma->0) =      -60.91743992


--------------------------------------------------------------------------------------------------------




----------------------------------------- Iteration    1(   9)  ---------------------------------------


    POTLOK:  cpu time    0.18: real time    0.18
    SETDIJ:  cpu time    0.02: real time    0.02
     EDDAV:  cpu time   10.54: real time   10.56
 BZINTS: Fermi energy:  3.458780; 38.000000 electrons
         Band energy:-364.420872;  BLOECHL correction: -0.041157
       DOS:  cpu time    0.09: real time    0.10
    CHARGE:  cpu time    0.46: real time    0.46
    MIXING:  cpu time    0.00: real time    0.00
    --------------------------------------------
      LOOP:  cpu time   11.30: real time   11.32

 eigenvalue-minimisations  :  6232
 total energy-change (2. order) : 0.4374863E+01  (-0.3164924E+01)
 number of electron      37.9999993 magnetization       0.0798952
 augmentation part        6.7561347 magnetization       0.0889716

 Broyden mixing:
  rms(total) = 0.78656E+01    rms(broyden)= 0.78655E+01
  rms(prec ) = 0.12902E+02
  weight for this iteration     100.00

 eigenvalues of (default mixing * dielectric matrix)
  average eigenvalue GAMMA=   0.8966
  1.4201  1.4201  0.3732  0.3732

 Free energy of the ion-electron system (eV)
  ---------------------------------------------------
  alpha Z        PSCENC =       249.78219263
  Ewald energy   TEWEN  =     -2480.38962821
  -Hartree energ DENC   =      -632.73282133
  -exchange      EXHF   =         0.00000000
  -V(xc)+E(xc)   XCENC  =       146.08624953
  PAW double counting   =     22328.17700228   -22343.57171894
  entropy T*S    EENTRO =         0.00000000
  eigenvalues    EBANDS =      -364.42087193
  atomic energy  EATOM  =      3040.52701931
  ---------------------------------------------------
  free energy    TOTEN  =       -56.54257665 eV

  energy without entropy =      -56.54257665  energy(sigma->0) =      -56.54257665


--------------------------------------------------------------------------------------------------------




----------------------------------------- Iteration    1(  10)  ---------------------------------------


    POTLOK:  cpu time    0.09: real time    0.09
    SETDIJ:  cpu time    0.02: real time    0.02
     EDDAV:  cpu time    9.77: real time    9.76
 BZINTS: Fermi energy:  1.018888; 38.000000 electrons
         Band energy:-452.422051;  BLOECHL correction: -0.038382
       DOS:  cpu time    0.09: real time    0.09
    CHARGE:  cpu time    0.46: real time    0.46
    MIXING:  cpu time    0.00: real time    0.00
    --------------------------------------------
      LOOP:  cpu time   10.43: real time   10.43

 eigenvalue-minimisations  :  5952
 total energy-change (2. order) :-0.1105977E+02  (-0.5447457E+01)
 number of electron      37.9999991 magnetization       0.1812030
 augmentation part        8.6075989 magnetization       0.1329749

 Broyden mixing:
  rms(total) = 0.68433E+01    rms(broyden)= 0.68426E+01
  rms(prec ) = 0.16055E+02
  weight for this iteration     100.00

 eigenvalues of (default mixing * dielectric matrix)
  average eigenvalue GAMMA=   1.0730
  1.9195  1.9195  0.8527  0.3792  0.2939

 Free energy of the ion-electron system (eV)
  ---------------------------------------------------
  alpha Z        PSCENC =       249.78219263
  Ewald energy   TEWEN  =     -2480.38962821
  -Hartree energ DENC   =      -554.38021745
  -exchange      EXHF   =         0.00000000
  -V(xc)+E(xc)   XCENC  =       140.93096371
  PAW double counting   =     17885.95248421   -17897.60311053
  entropy T*S    EENTRO =         0.00000000
  eigenvalues    EBANDS =      -452.42205085
  atomic energy  EATOM  =      3040.52701931
  ---------------------------------------------------
  free energy    TOTEN  =       -67.60234718 eV

  energy without entropy =      -67.60234718  energy(sigma->0) =      -67.60234718


--------------------------------------------------------------------------------------------------------




----------------------------------------- Iteration    1(  11)  ---------------------------------------


    POTLOK:  cpu time    0.09: real time    0.09
    SETDIJ:  cpu time    0.02: real time    0.02
     EDDAV:  cpu time   11.14: real time   11.15
 BZINTS: Fermi energy: -1.129498; 38.000000 electrons
         Band energy:-484.005849;  BLOECHL correction: -0.002162
       DOS:  cpu time    0.09: real time    0.09
    CHARGE:  cpu time    0.46: real time    0.46
    MIXING:  cpu time    0.00: real time    0.00
    --------------------------------------------
      LOOP:  cpu time   11.81: real time   13.34

 eigenvalue-minimisations  :  6944
 total energy-change (2. order) : 0.1128300E+02  (-0.1339279E+02)
 number of electron      37.9999979 magnetization       0.0699345
 augmentation part        6.1459648 magnetization       0.0641412

 Broyden mixing:
  rms(total) = 0.41043E+01    rms(broyden)= 0.41029E+01
  rms(prec ) = 0.65070E+01
  weight for this iteration     100.00

 eigenvalues of (default mixing * dielectric matrix)
  average eigenvalue GAMMA=   0.9927
  2.6101  0.9755  0.9408  0.9408  0.2588  0.2304

 Free energy of the ion-electron system (eV)
  ---------------------------------------------------
  alpha Z        PSCENC =       249.78219263
  Ewald energy   TEWEN  =     -2480.38962821
  -Hartree energ DENC   =      -512.46964952
  -exchange      EXHF   =         0.00000000
  -V(xc)+E(xc)   XCENC  =       137.27101604
  PAW double counting   =     11332.78950291   -11339.82395077
  entropy T*S    EENTRO =         0.00000000
  eigenvalues    EBANDS =      -484.00584948
  atomic energy  EATOM  =      3040.52701931
  ---------------------------------------------------
  free energy    TOTEN  =       -56.31934710 eV

  energy without entropy =      -56.31934710  energy(sigma->0) =      -56.31934710


--------------------------------------------------------------------------------------------------------




----------------------------------------- Iteration    1(  12)  ---------------------------------------


    POTLOK:  cpu time    0.09: real time    0.09
    SETDIJ:  cpu time    0.02: real time    0.02
     EDDAV:  cpu time   10.97: real time   10.98
 BZINTS: Fermi energy:  0.926222; 38.000000 electrons
         Band energy:-424.787838;  BLOECHL correction: -0.041894
       DOS:  cpu time    0.10: real time    0.10
    CHARGE:  cpu time    0.46: real time    0.46
    MIXING:  cpu time    0.00: real time    0.00
    --------------------------------------------
      LOOP:  cpu time   11.64: real time   11.65

 eigenvalue-minimisations  :  6808
 total energy-change (2. order) :-0.1554531E+02  (-0.1618369E+02)
 number of electron      37.9999994 magnetization       0.2164068
 augmentation part        8.7575277 magnetization       0.0864622

 Broyden mixing:
  rms(total) = 0.72727E+01    rms(broyden)= 0.72725E+01
  rms(prec ) = 0.16276E+02
  weight for this iteration     100.00

 eigenvalues of (default mixing * dielectric matrix)
  average eigenvalue GAMMA=   0.9077
  2.5441  1.0330  1.0330  0.9222  0.3103  0.3103  0.2007

 Free energy of the ion-electron system (eV)
  ---------------------------------------------------
  alpha Z        PSCENC =       249.78219263
  Ewald energy   TEWEN  =     -2480.38962821
  -Hartree energ DENC   =      -594.08528490
  -exchange      EXHF   =         0.00000000
  -V(xc)+E(xc)   XCENC  =       143.14415796
  PAW double counting   =      2816.00044606    -2822.05571995
  entropy T*S    EENTRO =         0.00000000
  eigenvalues    EBANDS =      -424.78783764
  atomic energy  EATOM  =      3040.52701931
  ---------------------------------------------------
  free energy    TOTEN  =       -71.86465475 eV

  energy without entropy =      -71.86465475  energy(sigma->0) =      -71.86465475


--------------------------------------------------------------------------------------------------------




----------------------------------------- Iteration    1(  13)  ---------------------------------------


    POTLOK:  cpu time    0.19: real time    0.29
    SETDIJ:  cpu time    0.02: real time    0.02
     EDDAV:  cpu time   10.14: real time   10.14
 BZINTS: Fermi energy:  1.070791; 38.000000 electrons
         Band energy:-403.040445;  BLOECHL correction:  0.000000
       DOS:  cpu time    0.02: real time    0.02
    CHARGE:  cpu time    0.46: real time    0.46
    MIXING:  cpu time    0.00: real time    0.00
    --------------------------------------------
      LOOP:  cpu time   10.84: real time   10.95

 eigenvalue-minimisations  :  6216
 total energy-change (2. order) : 0.2598991E+02  (-0.3313880E+01)
 number of electron      37.9999981 magnetization       0.1451483
 augmentation part        5.8384711 magnetization       0.1429639

 Broyden mixing:
  rms(total) = 0.18756E+01    rms(broyden)= 0.18750E+01
  rms(prec ) = 0.38117E+01
  weight for this iteration     100.00

 eigenvalues of (default mixing * dielectric matrix)
  average eigenvalue GAMMA=   0.8923
  2.3938  1.1129  1.1129  1.0696  0.5842  0.3304  0.3304  0.2038

 Free energy of the ion-electron system (eV)
  ---------------------------------------------------
  alpha Z        PSCENC =       249.78219263
  Ewald energy   TEWEN  =     -2480.38962821
  -Hartree energ DENC   =      -589.83149622
  -exchange      EXHF   =         0.00000000
  -V(xc)+E(xc)   XCENC  =       142.25182541
  PAW double counting   =      3079.92549503    -3085.09970783
  entropy T*S    EENTRO =         0.00000000
  eigenvalues    EBANDS =      -403.04044470
  atomic energy  EATOM  =      3040.52701931
  ---------------------------------------------------
  free energy    TOTEN  =       -45.87474459 eV

  energy without entropy =      -45.87474459  energy(sigma->0) =      -45.87474459


--------------------------------------------------------------------------------------------------------




----------------------------------------- Iteration    1(  14)  ---------------------------------------


    POTLOK:  cpu time    0.09: real time    0.09
    SETDIJ:  cpu time    0.02: real time    0.02
     EDDAV:  cpu time   11.14: real time   11.14
 BZINTS: Fermi energy:  1.665593; 38.000000 electrons
         Band energy:-386.879233;  BLOECHL correction:  0.000000
       DOS:  cpu time    0.01: real time    0.02
    CHARGE:  cpu time    0.46: real time    0.46
    MIXING:  cpu time    0.00: real time    0.00
    --------------------------------------------
      LOOP:  cpu time   11.73: real time   11.75

 eigenvalue-minimisations  :  6912
 total energy-change (2. order) : 0.2512992E+01  (-0.5921097E+00)
 number of electron      37.9999978 magnetization       0.0848927
 augmentation part        5.3174423 magnetization       0.0812778

 Broyden mixing:
  rms(total) = 0.15140E+01    rms(broyden)= 0.15139E+01
  rms(prec ) = 0.26090E+01
  weight for this iteration     100.00

 eigenvalues of (default mixing * dielectric matrix)
  average eigenvalue GAMMA=   0.8837
  2.3429  1.0839  1.0839  1.1399  0.7802  0.6544  0.3323  0.3323  0.2032

 Free energy of the ion-electron system (eV)
  ---------------------------------------------------
  alpha Z        PSCENC =       249.78219263
  Ewald energy   TEWEN  =     -2480.38962821
  -Hartree energ DENC   =      -603.69356294
  -exchange      EXHF   =         0.00000000
  -V(xc)+E(xc)   XCENC  =       142.95857588
  PAW double counting   =      3272.32513822    -3277.99225381
  entropy T*S    EENTRO =         0.00000000
  eigenvalues    EBANDS =      -386.87923328
  atomic energy  EATOM  =      3040.52701931
  ---------------------------------------------------
  free energy    TOTEN  =       -43.36175220 eV

  energy without entropy =      -43.36175220  energy(sigma->0) =      -43.36175220


--------------------------------------------------------------------------------------------------------




----------------------------------------- Iteration    1(  15)  ---------------------------------------


    POTLOK:  cpu time    0.09: real time    0.09
    SETDIJ:  cpu time    0.02: real time    0.02
     EDDAV:  cpu time    9.49: real time    9.49
 BZINTS: Fermi energy:  2.244120; 38.000000 electrons
         Band energy:-366.681179;  BLOECHL correction:  0.000000
       DOS:  cpu time    0.02: real time    0.02
    CHARGE:  cpu time    0.46: real time    0.46
    MIXING:  cpu time    0.00: real time    0.00
    --------------------------------------------
      LOOP:  cpu time   10.08: real time   10.12

 eigenvalue-minimisations  :  5744
 total energy-change (2. order) : 0.2165814E+01  (-0.1514591E+00)
 number of electron      37.9999978 magnetization       0.0508397
 augmentation part        5.1165370 magnetization       0.0509659

 Broyden mixing:
  rms(total) = 0.95657E+00    rms(broyden)= 0.95655E+00
  rms(prec ) = 0.16441E+01
  weight for this iteration     100.00

 eigenvalues of (default mixing * dielectric matrix)
  average eigenvalue GAMMA=   0.9642
  2.2105  1.3870  1.3870  1.4088  0.8573  0.8573  0.6578  0.3363  0.3363  0.2034

 Free energy of the ion-electron system (eV)
  ---------------------------------------------------
  alpha Z        PSCENC =       249.78219263
  Ewald energy   TEWEN  =     -2480.38962821
  -Hartree energ DENC   =      -621.80466544
  -exchange      EXHF   =         0.00000000
  -V(xc)+E(xc)   XCENC  =       144.15165888
  PAW double counting   =      3523.33471487    -3530.11605067
  entropy T*S    EENTRO =         0.00000000
  eigenvalues    EBANDS =      -366.68117947
  atomic energy  EATOM  =      3040.52701931
  ---------------------------------------------------
  free energy    TOTEN  =       -41.19593810 eV

  energy without entropy =      -41.19593810  energy(sigma->0) =      -41.19593810


--------------------------------------------------------------------------------------------------------




----------------------------------------- Iteration    1(  16)  ---------------------------------------


    POTLOK:  cpu time    0.09: real time    0.09
    SETDIJ:  cpu time    0.02: real time    0.02
     EDDAV:  cpu time   10.85: real time   10.84
 BZINTS: Fermi energy:  2.680726; 38.000000 electrons
         Band energy:-349.073355;  BLOECHL correction:  0.000000
       DOS:  cpu time    0.01: real time    0.02
    CHARGE:  cpu time    0.46: real time    0.47
    MIXING:  cpu time    0.00: real time    0.00
    --------------------------------------------
      LOOP:  cpu time   11.44: real time   12.46

 eigenvalue-minimisations  :  6776
 total energy-change (2. order) : 0.8209497E+00  (-0.1150756E+00)
 number of electron      37.9999978 magnetization       0.0174282
 augmentation part        4.8826464 magnetization       0.0181790

 Broyden mixing:
  rms(total) = 0.65097E+00    rms(broyden)= 0.65094E+00
  rms(prec ) = 0.11624E+01
  weight for this iteration     100.00

 eigenvalues of (default mixing * dielectric matrix)
  average eigenvalue GAMMA=   0.9952
  2.2411  1.5762  1.5762  1.3960  0.9648  0.9648  0.8204  0.5335  0.3353  0.3353
  0.2034

 Free energy of the ion-electron system (eV)
  ---------------------------------------------------
  alpha Z        PSCENC =       249.78219263
  Ewald energy   TEWEN  =     -2480.38962821
  -Hartree energ DENC   =      -638.72760878
  -exchange      EXHF   =         0.00000000
  -V(xc)+E(xc)   XCENC  =       145.23004098
  PAW double counting   =      3659.53039233    -3667.25404128
  entropy T*S    EENTRO =         0.00000000
  eigenvalues    EBANDS =      -349.07335532
  atomic energy  EATOM  =      3040.52701931
  ---------------------------------------------------
  free energy    TOTEN  =       -40.37498835 eV

  energy without entropy =      -40.37498835  energy(sigma->0) =      -40.37498835


--------------------------------------------------------------------------------------------------------




----------------------------------------- Iteration    1(  17)  ---------------------------------------


    POTLOK:  cpu time    0.09: real time    0.09
    SETDIJ:  cpu time    0.02: real time    0.02
     EDDAV:  cpu time   10.84: real time   10.84
 BZINTS: Fermi energy:  2.940310; 38.000000 electrons
         Band energy:-339.326124;  BLOECHL correction:  0.000000
       DOS:  cpu time    0.02: real time    0.02
    CHARGE:  cpu time    0.46: real time    0.46
    MIXING:  cpu time    0.00: real time    0.00
    --------------------------------------------
      LOOP:  cpu time   11.44: real time   11.43

 eigenvalue-minimisations  :  6776
 total energy-change (2. order) : 0.3080491E-01  (-0.3643524E-01)
 number of electron      37.9999978 magnetization      -0.0028151
 augmentation part        4.7668298 magnetization      -0.0025645

 Broyden mixing:
  rms(total) = 0.56087E+00    rms(broyden)= 0.56086E+00
  rms(prec ) = 0.11605E+01
  weight for this iteration     100.00

 eigenvalues of (default mixing * dielectric matrix)
  average eigenvalue GAMMA=   1.1507
  2.5485  2.1449  2.1449  1.4215  1.4215  0.9767  0.9767  0.6497  0.6497  0.3357
  0.3357  0.2034

 Free energy of the ion-electron system (eV)
  ---------------------------------------------------
  alpha Z        PSCENC =       249.78219263
  Ewald energy   TEWEN  =     -2480.38962821
  -Hartree energ DENC   =      -648.53909228
  -exchange      EXHF   =         0.00000000
  -V(xc)+E(xc)   XCENC  =       145.88653902
  PAW double counting   =      3618.60802195    -3626.89311186
  entropy T*S    EENTRO =         0.00000000
  eigenvalues    EBANDS =      -339.32612399
  atomic energy  EATOM  =      3040.52701931
  ---------------------------------------------------
  free energy    TOTEN  =       -40.34418344 eV

  energy without entropy =      -40.34418344  energy(sigma->0) =      -40.34418344


--------------------------------------------------------------------------------------------------------




----------------------------------------- Iteration    1(  18)  ---------------------------------------


    POTLOK:  cpu time    0.08: real time    0.09
    SETDIJ:  cpu time    0.02: real time    0.02
     EDDAV:  cpu time   10.08: real time   10.08
 BZINTS: Fermi energy:  3.068614; 38.000000 electrons
         Band energy:-328.723437;  BLOECHL correction:  0.000000
       DOS:  cpu time    0.01: real time    0.01
    CHARGE:  cpu time    0.46: real time    0.46
    MIXING:  cpu time    0.00: real time    0.00
    --------------------------------------------
      LOOP:  cpu time   10.67: real time   10.67

 eigenvalue-minimisations  :  6176
 total energy-change (2. order) : 0.1871962E+00  (-0.4997263E-01)
 number of electron      37.9999979 magnetization      -0.0098413
 augmentation part        4.6938211 magnetization      -0.0092528

 Broyden mixing:
  rms(total) = 0.30194E+00    rms(broyden)= 0.30190E+00
  rms(prec ) = 0.79807E+00
  weight for this iteration     100.00

 eigenvalues of (default mixing * dielectric matrix)
  average eigenvalue GAMMA=   1.1814
  2.7060  2.3223  2.3223  1.5502  1.5502  0.9878  0.9878  0.8363  0.2034  0.3357
  0.3357  0.6574  0.5630

 Free energy of the ion-electron system (eV)
  ---------------------------------------------------
  alpha Z        PSCENC =       249.78219263
  Ewald energy   TEWEN  =     -2480.38962821
  -Hartree energ DENC   =      -658.96139621
  -exchange      EXHF   =         0.00000000
  -V(xc)+E(xc)   XCENC  =       146.67956509
  PAW double counting   =      3643.97578086    -3653.04708325
  entropy T*S    EENTRO =         0.00000000
  eigenvalues    EBANDS =      -328.72343744
  atomic energy  EATOM  =      3040.52701931
  ---------------------------------------------------
  free energy    TOTEN  =       -40.15698723 eV

  energy without entropy =      -40.15698723  energy(sigma->0) =      -40.15698723


--------------------------------------------------------------------------------------------------------




----------------------------------------- Iteration    1(  19)  ---------------------------------------


    POTLOK:  cpu time    0.09: real time    0.09
    SETDIJ:  cpu time    0.02: real time    0.02
     EDDAV:  cpu time    9.93: real time    9.93
 BZINTS: Fermi energy:  3.161598; 38.000000 electrons
         Band energy:-323.801967;  BLOECHL correction:  0.000000
       DOS:  cpu time    0.01: real time    0.01
    CHARGE:  cpu time    0.46: real time    0.46
    MIXING:  cpu time    0.00: real time    0.00
    --------------------------------------------
      LOOP:  cpu time   10.52: real time   10.53

 eigenvalue-minimisations  :  6008
 total energy-change (2. order) : 0.2938984E-01  (-0.2121209E-01)
 number of electron      37.9999979 magnetization      -0.0098854
 augmentation part        4.6687490 magnetization      -0.0096034

 Broyden mixing:
  rms(total) = 0.30763E+00    rms(broyden)= 0.30760E+00
  rms(prec ) = 0.66673E+00
  weight for this iteration     100.00

 eigenvalues of (default mixing * dielectric matrix)
  average eigenvalue GAMMA=   1.1487
  3.3436  1.9504  1.9504  1.6647  1.6647  1.0086  1.0086  0.2034  0.3357  0.3357
  0.7173  0.7173  0.5909  0.5909

 Free energy of the ion-electron system (eV)
  ---------------------------------------------------
  alpha Z        PSCENC =       249.78219263
  Ewald energy   TEWEN  =     -2480.38962821
  -Hartree energ DENC   =      -663.78372769
  -exchange      EXHF   =         0.00000000
  -V(xc)+E(xc)   XCENC  =       147.07317866
  PAW double counting   =      3721.70051102    -3731.23517635
  entropy T*S    EENTRO =         0.00000000
  eigenvalues    EBANDS =      -323.80196676
  atomic energy  EATOM  =      3040.52701931
  ---------------------------------------------------
  free energy    TOTEN  =       -40.12759739 eV

  energy without entropy =      -40.12759739  energy(sigma->0) =      -40.12759739


--------------------------------------------------------------------------------------------------------




----------------------------------------- Iteration    1(  20)  ---------------------------------------


    POTLOK:  cpu time    0.09: real time    0.09
    SETDIJ:  cpu time    0.02: real time    0.02
     EDDAV:  cpu time   10.41: real time   10.41
 BZINTS: Fermi energy:  3.152854; 38.000000 electrons
         Band energy:-323.914380;  BLOECHL correction:  0.000000
       DOS:  cpu time    0.01: real time    0.01
    CHARGE:  cpu time    0.46: real time    0.46
    MIXING:  cpu time    0.00: real time    0.00
    --------------------------------------------
      LOOP:  cpu time   11.00: real time   12.65

 eigenvalue-minimisations  :  6064
 total energy-change (2. order) : 0.7252530E-02  (-0.5178201E-03)
 number of electron      37.9999979 magnetization      -0.0052162
 augmentation part        4.6692670 magnetization      -0.0050405

 Broyden mixing:
  rms(total) = 0.30163E+00    rms(broyden)= 0.30162E+00
  rms(prec ) = 0.65236E+00
  weight for this iteration     100.00

 eigenvalues of (default mixing * dielectric matrix)
  average eigenvalue GAMMA=   1.1010
  3.3830  1.7187  1.7187  1.8607  1.8607  1.0126  1.0126  0.7683  0.6758  0.5567
  0.5567  0.2034  0.3357  0.3357  0.5160

 Free energy of the ion-electron system (eV)
  ---------------------------------------------------
  alpha Z        PSCENC =       249.78219263
  Ewald energy   TEWEN  =     -2480.38962821
  -Hartree energ DENC   =      -663.64199819
  -exchange      EXHF   =         0.00000000
  -V(xc)+E(xc)   XCENC  =       147.07205217
  PAW double counting   =      3719.77620156    -3729.33180435
  entropy T*S    EENTRO =         0.00000000
  eigenvalues    EBANDS =      -323.91437977
  atomic energy  EATOM  =      3040.52701931
  ---------------------------------------------------
  free energy    TOTEN  =       -40.12034486 eV

[...]
      3     -29.9653      1.00000
      4     -21.9445      1.00000
      5     -13.4654      1.00000
      6     -13.3029      1.00000
      7     -13.1075      1.00000
      8      -7.5111      1.00000
      9      -7.4133      1.00000
     10      -7.2250      1.00000
     11      -1.1760      1.00000
     12      -0.6844      1.00000
     13      -0.4843      1.00000
     14       0.1729      1.00000
     15       0.4014      1.00000
     16       0.6045      1.00000
     17       2.0648      1.00000
     18       2.2506      1.00000
     19       2.5956      1.00000
     20       6.3431      0.00000
     21       6.4935      0.00000
     22       6.6618      0.00000
     23       8.4800      0.00000
     24       9.8261      0.00000
     25      10.1883      0.00000
     26      10.9131      0.00000
     27      11.1992      0.00000
     28      11.4395      0.00000
     29      12.7886      0.00000
     30      15.1720      0.00000
     31      16.4360      0.00000
     32      16.8627      0.00000

 k-point    38 :       0.3125    0.3125    0.4375
  band No.  band energies     occupation 
      1     -30.0625      1.00000
      2     -29.9842      1.00000
      3     -29.9839      1.00000
      4     -21.9384      1.00000
      5     -13.4111      1.00000
      6     -13.2703      1.00000
      7     -13.0730      1.00000
      8      -7.6921      1.00000
      9      -7.5018      1.00000
     10      -7.3181      1.00000
     11      -1.0368      1.00000
     12      -0.5011      1.00000
     13      -0.3816      1.00000
     14      -0.0850      1.00000
     15       0.4685      1.00000
     16       0.4705      1.00000
     17       2.2911      1.00000
     18       2.3926      1.00000
     19       2.5177      1.00000
     20       6.4604      0.00000
     21       6.5299      0.00000
     22       6.5588      0.00000
     23       9.2434      0.00000
     24       9.3774      0.00000
     25      10.3715      0.00000
     26      10.4007      0.00000
     27      10.7014      0.00000
     28      11.4580      0.00000
     29      12.2346      0.00000
     30      14.8584      0.00000
     31      16.6268      0.00000
     32      17.2777      0.00000

 k-point    39 :       0.4375    0.3125    0.4375
  band No.  band energies     occupation 
      1     -30.0619      1.00000
      2     -29.9969      1.00000
      3     -29.9835      1.00000
      4     -21.9201      1.00000
      5     -13.3206      1.00000
      6     -13.1889      1.00000
      7     -13.0580      1.00000
      8      -7.7474      1.00000
      9      -7.6539      1.00000
     10      -7.5115      1.00000
     11      -1.2223      1.00000
     12      -0.6739      1.00000
     13      -0.3949      1.00000
     14       0.0015      1.00000
     15       0.3725      1.00000
     16       0.4654      1.00000
     17       2.3597      1.00000
     18       2.5847      1.00000
     19       2.6752      1.00000
     20       6.5888      0.00000
     21       6.7113      0.00000
     22       6.7604      0.00000
     23       9.1461      0.00000
     24       9.6932      0.00000
     25      10.0449      0.00000
     26      10.2119      0.00000
     27      10.6625      0.00000
     28      11.8089      0.00000
     29      12.6341      0.00000
     30      15.0307      0.00000
     31      16.9804      0.00000
     32      17.2881      0.00000

 k-point    40 :       0.4375    0.4375    0.4375
  band No.  band energies     occupation 
      1     -30.0612      1.00000
      2     -29.9963      1.00000
      3     -29.9963      1.00000
      4     -21.9027      1.00000
      5     -13.2553      1.00000
      6     -13.0605      1.00000
      7     -13.0246      1.00000
      8      -7.8845      1.00000
      9      -7.8435      1.00000
     10      -7.6926      1.00000
     11      -1.3635      1.00000
     12      -0.7529      1.00000
     13      -0.6411      1.00000
     14       0.2540      1.00000
     15       0.4022      1.00000
     16       0.4570      1.00000
     17       2.5933      1.00000
     18       2.6370      1.00000
     19       2.9321      1.00000
     20       6.8047      0.00000
     21       6.8086      0.00000
     22       6.9185      0.00000
     23       9.1328      0.00000
     24       9.5297      0.00000
     25       9.6229      0.00000
     26      10.2887      0.00000
     27      10.3756      0.00000
     28      12.4152      0.00000
     29      12.7508      0.00000
     30      14.9817      0.00000
     31      17.3920      0.00000
     32      17.4695      0.00000


--------------------------------------------------------------------------------------------------------


 soft charge-density along one line, spin component           1
         0         1         2         3         4         5         6         7         8         9
 total charge-density along one line
 
 soft charge-density along one line, spin component           2
         0         1         2         3         4         5         6         7         8         9
 total charge-density along one line
 
 pseudopotential strength for first ion, spin component:           1
  1.269  -5.084   0.000  -0.006   0.000   0.000   0.001   0.000
 -5.084   0.715  -0.000   0.004  -0.000   0.000  -0.002   0.000
  0.000  -0.000  -7.667  -0.000   0.000   4.470  -0.000   0.000
 -0.006   0.004  -0.000  -7.668   0.000  -0.000   4.468   0.000
  0.000  -0.000   0.000   0.000  -7.667   0.000   0.000   4.470
  0.000   0.000   4.470  -0.000   0.000   6.748   0.000  -0.000
  0.001  -0.002  -0.000   4.468   0.000   0.000   6.750  -0.000
  0.000   0.000   0.000   0.000   4.470  -0.000  -0.000   6.748
  0.000  -0.000   0.000  -0.000   0.000   0.000  -0.000   0.000
 -0.000   0.000  -0.002   0.000  -0.000  -0.000   0.000  -0.000
 -0.001   0.001  -0.000  -0.002  -0.000  -0.000  -0.000  -0.000
  0.000  -0.000  -0.000  -0.000  -0.002  -0.000   0.000  -0.000
  0.000   0.000  -0.000  -0.000  -0.000  -0.000  -0.000  -0.000
  0.000  -0.000   0.000  -0.000   0.000   0.000  -0.000   0.000
 -0.000   0.000  -0.003   0.000  -0.000  -0.001   0.000  -0.000
 -0.001   0.001  -0.000  -0.003  -0.000  -0.000  -0.000  -0.000
  0.000  -0.000  -0.000   0.000  -0.003  -0.000  -0.000  -0.001
  0.000  -0.000  -0.000  -0.000  -0.000  -0.000  -0.000  -0.000
 pseudopotential strength for first ion, spin component:           2
  1.268  -5.084   0.000  -0.006   0.000   0.000   0.001   0.000
 -5.084   0.715  -0.000   0.004  -0.000   0.000  -0.002   0.000
  0.000  -0.000  -7.667  -0.000   0.000   4.470  -0.000   0.000
 -0.006   0.004  -0.000  -7.668   0.000  -0.000   4.468   0.000
  0.000  -0.000   0.000   0.000  -7.667   0.000   0.000   4.470
  0.000   0.000   4.470  -0.000   0.000   6.748   0.000  -0.000
  0.001  -0.002  -0.000   4.468   0.000   0.000   6.749  -0.000
  0.000   0.000   0.000   0.000   4.470  -0.000  -0.000   6.748
  0.000  -0.000   0.000  -0.000   0.000   0.000  -0.000   0.000
 -0.000   0.000  -0.002   0.000  -0.000  -0.000   0.000  -0.000
 -0.001   0.001  -0.000  -0.002  -0.000  -0.000  -0.000  -0.000
  0.000  -0.000  -0.000  -0.000  -0.002  -0.000   0.000  -0.000
 -0.000   0.000  -0.000  -0.000  -0.000  -0.000  -0.000  -0.000
  0.000  -0.000   0.000  -0.000   0.000   0.000  -0.000   0.000
 -0.000   0.000  -0.003   0.000  -0.000  -0.001   0.000  -0.000
 -0.001   0.001  -0.000  -0.003  -0.000  -0.000  -0.000  -0.000
  0.000  -0.000  -0.000  -0.000  -0.003  -0.000  -0.000  -0.001
 -0.000   0.000  -0.000  -0.000  -0.000  -0.000  -0.000  -0.000
 total augmentation occupancy for first ion, spin component:           1
  2.004  -0.004   0.000  -0.000   0.000   0.000  -0.001   0.000   0.000   0.000  -0.001   0.000   0.000   0.000   0.000  -0.000
 -0.004   0.389  -0.000  -0.021   0.000   0.000   0.005   0.000   0.000  -0.000  -0.026   0.000   0.000   0.000   0.000   0.014
  0.000  -0.000   2.020   0.000   0.000  -0.009   0.000   0.000   0.000  -0.032  -0.000   0.000   0.000   0.000   0.014   0.000
 -0.000  -0.021   0.000   2.021   0.000   0.000  -0.009   0.000   0.000   0.000  -0.020   0.000   0.000   0.000   0.000   0.007
  0.000   0.000   0.000   0.000   2.020   0.000   0.000  -0.009  -0.000   0.000   0.000  -0.032   0.000   0.000   0.000   0.000
  0.000   0.000  -0.009   0.000   0.000   0.010   0.000   0.000   0.000   0.011   0.000   0.000   0.000   0.000  -0.006   0.000
 -0.001   0.005  -0.000  -0.009   0.000  -0.000   0.010   0.000   0.000  -0.000   0.008   0.000   0.000   0.000  -0.000  -0.004
  0.000   0.000   0.000   0.000  -0.009   0.000   0.000   0.010   0.000   0.000   0.000   0.011   0.000  -0.000   0.000   0.000
  0.000   0.000   0.000   0.000  -0.000   0.000   0.000   0.000   2.870   0.000   0.000   0.000   0.000  -1.525   0.000   0.000
  0.000  -0.000  -0.032  -0.000   0.000   0.011   0.000   0.000   0.000   2.631   0.000   0.000   0.000   0.000  -1.392   0.000
 -0.001  -0.026  -0.000  -0.020   0.000  -0.000   0.008   0.000   0.000   0.000   1.777   0.000   0.000   0.000   0.000  -0.935
  0.000   0.000   0.000   0.000  -0.032   0.000   0.000   0.011   0.000   0.000   0.000   2.631   0.000  -0.000   0.000   0.000
  0.000   0.000  -0.000   0.000   0.000   0.000   0.000   0.000   0.000   0.000   0.000   0.000   1.657  -0.000   0.000   0.000
  0.000   0.000   0.000   0.000   0.000   0.000   0.000   0.000  -1.525   0.000   0.000   0.000   0.000   0.812   0.000   0.000
  0.000   0.000   0.014   0.000   0.000  -0.006   0.000   0.000   0.000  -1.392   0.000   0.000   0.000   0.000   0.738   0.000
 -0.000   0.014   0.000   0.007   0.000   0.000  -0.004   0.000   0.000   0.000  -0.935   0.000   0.000   0.000   0.000   0.494
  0.000   0.000   0.000   0.000   0.014   0.000   0.000  -0.006   0.000   0.000   0.000  -1.392   0.000   0.000   0.000   0.000
  0.000   0.000   0.000   0.000   0.000  -0.000   0.000   0.000   0.000   0.000   0.000   0.000  -0.871   0.000   0.000   0.000
 total augmentation occupancy for first ion, spin component:           2
  0.000  -0.000   0.000  -0.000   0.000   0.000  -0.000   0.000   0.000   0.000  -0.000   0.000   0.000   0.000   0.000   0.000
 -0.000   0.000   0.000  -0.000   0.000   0.000   0.000   0.000   0.000  -0.000  -0.000   0.000   0.000   0.000  -0.000  -0.000
  0.000   0.000  -0.000   0.000   0.000  -0.000   0.000   0.000   0.000  -0.000  -0.000   0.000   0.000   0.000   0.000  -0.000
 -0.000  -0.000   0.000  -0.000   0.000   0.000  -0.000   0.000   0.000   0.000   0.000  -0.000   0.000   0.000   0.000  -0.000
  0.000   0.000   0.000   0.000  -0.000   0.000   0.000  -0.000   0.000   0.000   0.000  -0.000  -0.000   0.000   0.000   0.000
  0.000   0.000  -0.000   0.000   0.000  -0.000   0.000   0.000  -0.000  -0.000  -0.000  -0.000   0.000   0.000   0.000  -0.000
 -0.000   0.000   0.000  -0.000   0.000   0.000  -0.000  -0.000   0.000   0.000  -0.000   0.000   0.000   0.000   0.000   0.000
  0.000   0.000   0.000   0.000  -0.000   0.000  -0.000  -0.000   0.000  -0.000   0.000  -0.000   0.000  -0.000   0.000   0.000
  0.000   0.000   0.000   0.000   0.000  -0.000   0.000   0.000  -0.000   0.000   0.000   0.000   0.000   0.000   0.000   0.000
  0.000  -0.000  -0.000   0.000   0.000  -0.000   0.000  -0.000   0.000   0.000   0.000   0.000   0.000   0.000  -0.000  -0.000
 -0.000  -0.000  -0.000   0.000   0.000  -0.000  -0.000   0.000   0.000   0.000  -0.000   0.000   0.000   0.000   0.000   0.000
  0.000   0.000   0.000  -0.000  -0.000  -0.000   0.000  -0.000   0.000   0.000   0.000   0.000   0.000   0.000   0.000   0.000
  0.000   0.000   0.000   0.000  -0.000   0.000   0.000   0.000   0.000   0.000   0.000   0.000   0.000   0.000   0.000   0.000
  0.000   0.000   0.000   0.000   0.000   0.000   0.000  -0.000   0.000   0.000   0.000   0.000   0.000  -0.000   0.000   0.000
  0.000  -0.000   0.000   0.000   0.000   0.000   0.000   0.000   0.000  -0.000   0.000   0.000   0.000   0.000   0.000   0.000
  0.000  -0.000  -0.000  -0.000   0.000  -0.000   0.000   0.000   0.000  -0.000   0.000   0.000   0.000   0.000   0.000  -0.000
  0.000  -0.000   0.000   0.000   0.000   0.000  -0.000   0.000   0.000   0.000   0.000  -0.000   0.000  -0.000   0.000   0.000
  0.000   0.000   0.000   0.000  -0.000   0.000   0.000   0.000   0.000   0.000   0.000   0.000  -0.000   0.000   0.000   0.000


------------------------ aborting loop because EDIFF is reached ----------------------------------------


 


 total charge     
 
# of ion     s       p       d       tot
----------------------------------------
  1        2.005   5.645   0.303   7.953
  2        0.303   6.410   1.918   8.630
  3        1.574   3.324   0.000   4.898
  4        1.551   3.583   0.000   5.135
  5        1.567   3.450   0.000   5.017
------------------------------------------------
tot        7.000  22.413   2.221  31.633
 


 magnetization (x)
 
# of ion     s       p       d       tot
----------------------------------------
  1       -0.000   0.000  -0.000  -0.000
  2       -0.000  -0.000  -0.000  -0.000
  3        0.000   0.000   0.000   0.000
  4        0.000   0.000   0.000   0.000
  5        0.000   0.000   0.000   0.000
------------------------------------------------
tot       -0.000   0.000  -0.000   0.000
 
    CHARGE:  cpu time    0.46: real time    0.46
    FORLOC:  cpu time    0.00: real time    0.00
    FORNL :  cpu time    2.59: real time    2.59
    STRESS:  cpu time    7.72: real time    7.72
    FORCOR:  cpu time    0.09: real time    0.09
    FORHAR:  cpu time    0.01: real time    0.01
    MIXING:  cpu time    0.00: real time    0.00
    OFIELD:  cpu time    0.00: real time    0.00

  FORCE on cell =-STRESS in cart. coord.  units (eV):
  Direction    XX          YY          ZZ          XY          YZ          ZX
  --------------------------------------------------------------------------------------
  Alpha Z   249.78219   249.78219   249.78219
  Ewald    -814.99059  -814.99059  -850.41093     0.00000    -0.00000    -0.00000
  Hartree   226.43609   226.43609   200.48488    -0.00000    -0.00000    -0.00000
  E(xc)    -171.26773  -171.26773  -171.34297     0.00000     0.00000     0.00000
  Local     -52.45523   -52.45523     9.33168     0.00000     0.00000    -0.00000
  n-local  -129.13168  -126.72043  -128.39148    -0.36008    -0.32062    -0.28522
  augment    63.18498    63.18498    62.87605     0.00000    -0.00000     0.00000
  Kinetic   621.32634   632.89378   626.84295    -3.02032    -2.92116    -2.57236
  Fock        0.00000     0.00000     0.00000     0.00000     0.00000     0.00000
  -------------------------------------------------------------------------------------
  Total      -0.12628    -0.12628    -0.82763     0.00000     0.00000     0.00000
  in kB      -3.01602    -3.01602   -19.76668     0.00000     0.00000     0.00000
  external pressure =       -8.60 kB  Pullay stress =        0.00 kB


 VOLUME and BASIS-vectors are now :
 -----------------------------------------------------------------------------
  energy-cutoff  :      520.00
  volume of cell :       67.08
      direct lattice vectors                 reciprocal lattice vectors
     4.008407000  0.000000000  0.000000000     0.249475665  0.000000000  0.000000000
     0.000000000  4.008407000  0.000000000     0.000000000  0.249475665  0.000000000
     0.000000000  0.000000000  4.175144000     0.000000000  0.000000000  0.239512697

  length of vectors
     4.008407000  4.008407000  4.175144000     0.249475665  0.249475665  0.239512697


 FORCES acting on ions
    electron-ion (+dipol)            ewald-force                    non-local-force                 convergence-correction
 -----------------------------------------------------------------------------------------------
   -.837E-14 -.435E-14 0.545E+01   0.196E-14 0.379E-14 -.478E+01   0.000E+00 0.867E-18 -.714E+00   0.637E-14 -.370E-14 0.115E-01
   0.165E-12 0.192E-11 0.537E+02   0.422E-14 -.609E-14 -.526E+02   0.000E+00 -.694E-17 -.544E+00   -.664E-13 -.265E-13 -.107E+00
   -.118E-13 0.206E-12 0.163E+02   -.490E-14 -.355E-14 -.170E+02   0.000E+00 0.000E+00 0.675E+00   0.543E-13 -.967E-13 0.662E-02
   0.131E-12 -.117E-12 0.163E+02   0.928E-15 0.109E-13 -.170E+02   0.217E-18 0.542E-19 0.675E+00   -.644E-13 -.106E-14 0.662E-02
   0.126E-12 0.168E-11 -.834E+02   -.365E-14 -.351E-14 0.914E+02   0.000E+00 0.000E+00 -.830E+01   -.551E-13 -.417E-13 -.511E-01
 -----------------------------------------------------------------------------------------------
   0.402E-12 0.368E-11 0.834E+01   -.145E-14 0.152E-14 0.000E+00   0.217E-18 -.602E-17 -.820E+01   -.125E-12 -.170E-12 -.133E+00
 
 
 POSITION                                       TOTAL-FORCE (eV/Angst)
 -----------------------------------------------------------------------------------
      0.00000      0.00000      0.06843         0.000000      0.000000     -0.034993
      2.00420      2.00420      2.21633         0.000000     -0.000000      0.394956
      0.00000      2.00420      2.06426        -0.000000      0.000000     -0.033839
      2.00420      0.00000      2.06426         0.000000      0.000000     -0.033839
      2.00420      2.00420      4.08302         0.000000      0.000000     -0.292285
 -----------------------------------------------------------------------------------
    total drift:                                0.000000      0.000000      0.004432


--------------------------------------------------------------------------------------------------------



  FREE ENERGIE OF THE ION-ELECTRON SYSTEM (eV)
  ---------------------------------------------------
  free  energy   TOTEN  =       -39.93283798 eV

  energy  without entropy=      -39.93283798  energy(sigma->0) =      -39.93283798
 


--------------------------------------------------------------------------------------------------------


    POTLOK:  cpu time    0.11: real time    0.85


--------------------------------------------------------------------------------------------------------


 writing wavefunctions
     LOOP+:  cpu time  330.27: real time  339.07
    4ORBIT:  cpu time    0.00: real time    0.00
 


 total charge     
 
# of ion     s       p       d       tot
----------------------------------------
  1        2.005   5.645   0.303   7.953
  2        0.303   6.410   1.918   8.630
  3        1.574   3.324   0.000   4.898
  4        1.551   3.583   0.000   5.135
  5        1.567   3.450   0.000   5.017
------------------------------------------------
tot        7.000  22.413   2.221  31.633
 


 magnetization (x)
 
# of ion     s       p       d       tot
----------------------------------------
  1       -0.000   0.000  -0.000  -0.000
  2       -0.000  -0.000  -0.000  -0.000
  3        0.000   0.000   0.000   0.000
  4        0.000   0.000   0.000   0.000
  5        0.000   0.000   0.000   0.000
------------------------------------------------
tot       -0.000   0.000  -0.000   0.000
 
 BZINTS: Fermi energy:  2.943460; 38.000000 electrons
         Band energy:-333.448643;  BLOECHL correction:  0.000000

 total amount of memory used by VASP on root node    49576. kBytes
========================================================================

   base      :      30000. kBytes
   nonlr-proj:       3488. kBytes
   fftplans  :       1162. kBytes
   grid      :       5105. kBytes
   one-center:        155. kBytes
   wavefun   :       9666. kBytes
 
  
  
 General timing and accounting informations for this job:
 ========================================================
  
                  Total CPU time used (sec):      340.085
                            User time (sec):      327.369
                          System time (sec):       12.716
                         Elapsed time (sec):      350.732
  
                   Maximum memory used (kb):       67336.
                   Average memory used (kb):           0.
  
                          Minor page faults:      3270164
                          Major page faults:            6
                 Voluntary context switches:         1239
