 vasp.5.4.4.18Apr17-6-g9f103f2a35 (build Aug 22 2019 09:35:51) complex          
  
 executed on             LinuxIFC date 2021.04.26  17:25:56
 running on    6 total cores
 distrk:  each k-point on    6 cores,    1 groups
 distr:  one band on NCORES_PER_BAND=   2 cores,    3 groups


--------------------------------------------------------------------------------------------------------


 INCAR:
 POTCAR:   PAW_PBE Mn_pv 07Sep2000                
 POTCAR:   PAW_PBE O 08Apr2002                    
 POTCAR:   PAW_PBE Mn_pv 07Sep2000                
   VRHFIN =Mn: 3p4s3d                                                           
   LEXCH  = PE                                                                  
   EATOM  =  2024.8347 eV,  148.8212 Ry                                         
                                                                                
   TITEL  = PAW_PBE Mn_pv 07Sep2000                                             
   LULTRA =        F    use ultrasoft PP ?                                      
   IUNSCR =        1    unscreen: 0-lin 1-nonlin 2-no                           
   RPACOR =    2.080    partial core radius                                     
   POMASS =   54.938; ZVAL   =   13.000    mass and valenz                      
   RCORE  =    2.300    outmost cutoff radius                                   
   RWIGS  =    2.500; RWIGS  =    1.323    wigner-seitz radius (au A)           
   ENMAX  =  269.865; ENMIN  =  202.399 eV                                      
   RCLOC  =    1.725    cutoff for local pot                                    
   LCOR   =        T    correct aug charges                                     
   LPAW   =        T    paw PP                                                  
   EAUG   =  569.085                                                            
   DEXC   =    -.003                                                            
   RMAX   =    2.807    core radius for proj-oper                               
   RAUG   =    1.300    factor for augmentation sphere                          
   RDEP   =    2.338    radius for radial grids                                 
   QCUT   =   -4.454; QGAM   =    8.907    optimization parameters              
                                                                                
   Description                                                                  
     l     E      TYP  RCUT    TYP  RCUT                                        
     1   .000     23  2.000                                                     
     1  -.100     23  2.000                                                     
     2   .000     23  2.300                                                     
     2   .000     23  2.300                                                     
     0   .000     23  2.300                                                     
     0   .000     23  2.300                                                     
     3   .000      7   .000                                                     
  local pseudopotential read in
  partial core-charges read in
  atomic valenz-charges read in
  non local Contribution for L=           1  read in
    real space projection operators read in
  non local Contribution for L=           1  read in
    real space projection operators read in
  non local Contribution for L=           2  read in
    real space projection operators read in
  non local Contribution for L=           2  read in
    real space projection operators read in
  non local Contribution for L=           0  read in
    real space projection operators read in
  non local Contribution for L=           0  read in
    real space projection operators read in
    PAW grid and wavefunctions read in
 
   number of l-projection  operators is LMAX  =           6
   number of lm-projection operators is LMMAX =          18
 
 POTCAR:   PAW_PBE O 08Apr2002                    
   VRHFIN =O: s2p4                                                              
   LEXCH  = PE                                                                  
   EATOM  =   432.3788 eV,   31.7789 Ry                                         
                                                                                
   TITEL  = PAW_PBE O 08Apr2002                                                 
   LULTRA =        F    use ultrasoft PP ?                                      
   IUNSCR =        0    unscreen: 0-lin 1-nonlin 2-no                           
   RPACOR =     .000    partial core radius                                     
   POMASS =   16.000; ZVAL   =    6.000    mass and valenz                      
   RCORE  =    1.520    outmost cutoff radius                                   
   RWIGS  =    1.550; RWIGS  =     .820    wigner-seitz radius (au A)           
   ENMAX  =  400.000; ENMIN  =  300.000 eV                                      
   ICORE  =        2    local potential                                         
   LCOR   =        T    correct aug charges                                     
   LPAW   =        T    paw PP                                                  
   EAUG   =  605.392                                                            
   DEXC   =     .000                                                            
   RMAX   =    2.264    core radius for proj-oper                               
   RAUG   =    1.300    factor for augmentation sphere                          
   RDEP   =    1.550    radius for radial grids                                 
   QCUT   =   -5.520; QGAM   =   11.041    optimization parameters              
                                                                                
   Description                                                                  
     l     E      TYP  RCUT    TYP  RCUT                                        
     0   .000     23  1.200                                                     
     0  -.700     23  1.200                                                     
     1   .000     23  1.520                                                     
     1   .600     23  1.520                                                     
     2   .000      7  1.500                                                     
  local pseudopotential read in
  atomic valenz-charges read in
  non local Contribution for L=           0  read in
    real space projection operators read in
  non local Contribution for L=           0  read in
    real space projection operators read in
  non local Contribution for L=           1  read in
    real space projection operators read in
  non local Contribution for L=           1  read in
    real space projection operators read in
    PAW grid and wavefunctions read in
 
   number of l-projection  operators is LMAX  =           4
   number of lm-projection operators is LMMAX =           8
 
 Optimization of the real space projectors (new method)

 maximal supplied QI-value         = 16.25
 optimisation between [QCUT,QGAM] = [ 11.54, 23.24] = [ 37.28,151.24] Ry 
 Optimized for a Real-space Cutoff    1.53 Angstroem

   l    n(q)    QCUT    max X(q) W(low)/X(q) W(high)/X(q)  e(spline) 
   1     10    11.539     4.093    0.14E-05    0.94E-06    0.35E-07
   1     10    11.539     5.163    0.38E-04    0.24E-04    0.17E-06
   2     10    11.539     4.144    0.87E-05    0.14E-04    0.48E-07
   2     10    11.539    35.116    0.12E-03    0.13E-03    0.25E-06
   0     11    11.539    20.431    0.20E-04    0.18E-05    0.19E-07
   0     11    11.539    61.159    0.37E-04    0.19E-04    0.29E-06
 Optimization of the real space projectors (new method)

 maximal supplied QI-value         = 24.76
 optimisation between [QCUT,QGAM] = [ 11.64, 23.27] = [ 37.91,151.63] Ry 
 Optimized for a Real-space Cutoff    1.08 Angstroem

   l    n(q)    QCUT    max X(q) W(low)/X(q) W(high)/X(q)  e(spline) 
   0      7    11.635     4.192    0.54E-04    0.80E-04    0.26E-07
   0      7    11.635     8.473    0.70E-04    0.40E-03    0.21E-06
   1      7    11.635     2.474    0.39E-04    0.14E-03    0.23E-07
   1      7    11.635     3.912    0.25E-03    0.37E-03    0.22E-06
 PAW_PBE Mn_pv 07Sep2000                :
 energy of atom  1       EATOM=-2024.8347
 kinetic energy error for atom=    0.0058 (will be added to EATOM!!)
 PAW_PBE O 08Apr2002                    :
 energy of atom  2       EATOM= -432.3788
 kinetic energy error for atom=    0.0208 (will be added to EATOM!!)
 
 
 POSCAR: Mn8 O16                                 
  positions in direct lattice
  No initial velocities read in
 exchange correlation table for  LEXCH =        8
   RHO(1)=    0.500       N(1)  =     2000
   RHO(2)=  100.500       N(2)  =     4000
 


--------------------------------------------------------------------------------------------------------


 ion  position               nearest neighbor table
   1  0.750  0.500  0.375-   9 1.93  12 1.93  13 1.93  15 1.93  11 1.93  16 1.93   3 2.89   3 2.89
                             8 2.89   2 2.89   4 2.89   6 2.89
   2  0.000  0.250  0.125-  14 1.93  16 1.93  18 1.93  19 1.93  13 1.93  23 1.93   4 2.89   4 2.89
                             7 2.89   3 2.89   1 2.89   5 2.89
   3  0.250  0.500  0.375-   9 1.93  12 1.93  13 1.93  15 1.93  14 1.93  10 1.93   1 2.89   1 2.89
                             8 2.89   2 2.89   4 2.89   6 2.89
   4  0.000  0.750  0.125-  14 1.93  16 1.93  18 1.93  19 1.93  12 1.93  17 1.93   2 2.89   2 2.89
                             7 2.89   1 2.89   3 2.89   5 2.89
   5  0.250  0.000  0.875-  17 1.93  20 1.93  21 1.93  23 1.93  19 1.93  24 1.93   7 2.89   7 2.89
                             8 2.89   4 2.89   6 2.89   2 2.89
   6  0.500  0.750  0.625-  10 1.93  11 1.93  22 1.93  24 1.93  15 1.93  21 1.93   8 2.89   8 2.89
                             1 2.89   3 2.89   5 2.89   7 2.89
   7  0.750  0.000  0.875-  17 1.93  20 1.93  21 1.93  23 1.93  22 1.93  18 1.93   5 2.89   5 2.89
                             8 2.89   4 2.89   2 2.89   6 2.89
   8  0.500  0.250  0.625-  10 1.93  11 1.93  22 1.93  24 1.93   9 1.93  20 1.93   6 2.89   6 2.89
                             7 2.89   3 2.89   5 2.89   1 2.89
   9  0.500  0.279  0.391-   1 1.93   3 1.93   8 1.93
  10  0.279  0.500  0.609-   6 1.93   8 1.93   3 1.93
  11  0.721  0.500  0.609-   6 1.93   8 1.93   1 1.93
  12  0.000  0.721  0.359-   1 1.93   3 1.93   4 1.93
  13  0.000  0.279  0.359-   1 1.93   3 1.93   2 1.93
  14  0.221  0.500  0.141-   2 1.93   4 1.93   3 1.93
  15  0.500  0.721  0.391-   1 1.93   3 1.93   6 1.93
  16  0.779  0.500  0.141-   2 1.93   4 1.93   1 1.93
  17  0.000  0.779  0.891-   5 1.93   7 1.93   4 1.93
  18  0.779  0.000  0.109-   2 1.93   4 1.93   7 1.93
  19  0.221  0.000  0.109-   2 1.93   4 1.93   5 1.93
  20  0.500  0.221  0.859-   5 1.93   7 1.93   8 1.93
  21  0.500  0.779  0.859-   5 1.93   7 1.93   6 1.93
  22  0.721  0.000  0.641-   6 1.93   8 1.93   7 1.93
  23  0.000  0.221  0.891-   5 1.93   7 1.93   2 1.93
  24  0.279  0.000  0.641-   6 1.93   8 1.93   5 1.93
 

IMPORTANT INFORMATION: All symmetrisations will be switched off!
NOSYMM: (Re-)initialisation of all symmetry stuff for point group C_1.

 
 
 KPOINTS: pymatgen v2019.10.16 with grid density =

Automatic generation of k-mesh.
Space group operators:
 irot       det(A)        alpha          n_x          n_y          n_z        tau_x        tau_y        tau_z
    1     1.000000     0.000000     1.000000     0.000000     0.000000     0.000000     0.000000     0.000000
 
 Subroutine IBZKPT returns following result:
 ===========================================
 
 Found     26 irreducible k-points:
 
 Following reciprocal coordinates:
            Coordinates               Weight
  0.000000  0.000000  0.000000      1.000000
  0.250000  0.000000  0.000000      2.000000
  0.500000  0.000000  0.000000      1.000000
  0.000000  0.250000  0.000000      2.000000
  0.250000  0.250000  0.000000      2.000000
  0.500000  0.250000  0.000000      2.000000
 -0.250000  0.250000  0.000000      2.000000
  0.000000  0.500000  0.000000      1.000000
  0.250000  0.500000  0.000000      2.000000
  0.500000  0.500000  0.000000      1.000000
  0.000000  0.000000  0.333333      2.000000
  0.250000  0.000000  0.333333      2.000000
  0.500000  0.000000  0.333333      2.000000
 -0.250000  0.000000  0.333333      2.000000
  0.000000  0.250000  0.333333      2.000000
  0.250000  0.250000  0.333333      2.000000
  0.500000  0.250000  0.333333      2.000000
 -0.250000  0.250000  0.333333      2.000000
  0.000000  0.500000  0.333333      2.000000
  0.250000  0.500000  0.333333      2.000000
  0.500000  0.500000  0.333333      2.000000
 -0.250000  0.500000  0.333333      2.000000
  0.000000 -0.250000  0.333333      2.000000
  0.250000 -0.250000  0.333333      2.000000
  0.500000 -0.250000  0.333333      2.000000
 -0.250000 -0.250000  0.333333      2.000000
 
 Following cartesian coordinates:
            Coordinates               Weight
  0.000000  0.000000  0.000000      1.000000
  0.043323  0.000000  0.000000      2.000000
  0.086646  0.000000  0.000000      1.000000
  0.000000  0.043323  0.000000      2.000000
  0.043323  0.043323  0.000000      2.000000
  0.086646  0.043323  0.000000      2.000000
 -0.043323  0.043323  0.000000      2.000000
  0.000000  0.086646  0.000000      1.000000
  0.043323  0.086646  0.000000      2.000000
  0.086646  0.086646  0.000000      1.000000
  0.000000  0.000000  0.040601      2.000000
  0.043323  0.000000  0.040601      2.000000
  0.086646  0.000000  0.040601      2.000000
 -0.043323  0.000000  0.040601      2.000000
  0.000000  0.043323  0.040601      2.000000
  0.043323  0.043323  0.040601      2.000000
  0.086646  0.043323  0.040601      2.000000
 -0.043323  0.043323  0.040601      2.000000
  0.000000  0.086646  0.040601      2.000000
  0.043323  0.086646  0.040601      2.000000
  0.086646  0.086646  0.040601      2.000000
 -0.043323  0.086646  0.040601      2.000000
  0.000000 -0.043323  0.040601      2.000000
  0.043323 -0.043323  0.040601      2.000000
  0.086646 -0.043323  0.040601      2.000000
 -0.043323 -0.043323  0.040601      2.000000
 
 TETIRR: Found    144 inequivalent tetrahedra from      288


--------------------------------------------------------------------------------------------------------




 Dimension of arrays:
   k-points           NKPTS =     26   k-points in BZ     NKDIM =     26   number of bands    NBANDS=    147
   number of dos      NEDOS =    301   number of ions     NIONS =     24
   non local maximal  LDIM  =      6   non local SUM 2l+1 LMDIM =     18
   total plane-waves  NPLWV = 147456
   max r-space proj   IRMAX =   8202   max aug-charges    IRDMAX=  16563
   dimension x,y,z NGX =    48 NGY =   48 NGZ =   64
   dimension x,y,z NGXF=    96 NGYF=   96 NGZF=  128
   support grid    NGXF=    96 NGYF=   96 NGZF=  128
   ions per type =               8  16
   NGX,Y,Z   is equivalent  to a cutoff of  13.83, 13.83, 12.96 a.u.
   NGXF,Y,Z  is equivalent  to a cutoff of  27.66, 27.66, 25.92 a.u.

 SYSTEM =  unknown system                          
 POSCAR =  Mn8 O16                                 

 Startparameter for this run:
   NWRITE =      2    write-flag & timer
   PREC   = accura    normal or accurate (medium, high low for compatibility)
   ISTART =      0    job   : 0-new  1-cont  2-samecut
   ICHARG =      1    charge: 1-file 2-atom 10-const
   ISPIN  =      2    spin polarized calculation?
   LNONCOLLINEAR =      F non collinear calculations
   LSORBIT =      F    spin-orbit coupling
   INIWAV =      1    electr: 0-lowe 1-rand  2-diag
   LASPH  =      F    aspherical Exc in radial PAW
   METAGGA=      F    non-selfconsistent MetaGGA calc.

 Electronic Relaxation 1
   ENCUT  =  520.0 eV  38.22 Ry    6.18 a.u.  10.73 10.73 15.27*2*pi/ulx,y,z
   ENINI  =  520.0     initial cutoff
   ENAUG  =  605.4 eV  augmentation charge cutoff
   NELM   =    100;   NELMIN=  1; NELMDL= -5     # of ELM steps 
   EDIFF  = 0.1E-01   stopping-criterion for ELM
   LREAL  =      T    real-space projection
   NLSPLINE    = F    spline interpolate recip. space projectors
   LCOMPAT=      F    compatible to vasp.4.4
   GGA_COMPAT  = T    GGA compatible to vasp.4.4-vasp.4.6
   LMAXPAW     = -100 max onsite density
   LMAXMIX     =    2 max onsite mixed and CHGCAR
   VOSKOWN=      0    Vosko Wilk Nusair interpolation
   ROPT   =   -0.00025  -0.00025
 Ionic relaxation
   EDIFFG = 0.0E+00   stopping-criterion for IOM
   NSW    =      0    number of steps for IOM
   NBLOCK =      1;   KBLOCK =      1    inner block; outer block 
   IBRION =     -1    ionic relax: 0-MD 1-quasi-New 2-CG
   NFREE  =      0    steps in history (QN), initial steepest desc. (CG)
   ISIF   =      2    stress and relaxation
   IWAVPR =     10    prediction:  0-non 1-charg 2-wave 3-comb
   ISYM   =      0    0-nonsym 1-usesym 2-fastsym
   LCORR  =      T    Harris-Foulkes like correction to forces

   POTIM  = 0.5000    time-step for ionic-motion
   TEIN   =    0.0    initial temperature
   TEBEG  =    0.0;   TEEND  =   0.0 temperature during run
   SMASS  =  -3.00    Nose mass-parameter (am)
   estimated Nose-frequenzy (Omega)   =  0.10E-29 period in steps =****** mass=  -0.761E-27a.u.
   SCALEE = 1.0000    scale energy and forces
   NPACO  =    256;   APACO  = 16.0  distance and # of slots for P.C.
   PSTRESS=    0.0 pullay stress

  Mass of Ions in am
   POMASS =  54.94 16.00
  Ionic Valenz
   ZVAL   =  13.00  6.00
  Atomic Wigner-Seitz radii
   RWIGS  =  -1.00 -1.00
  virtual crystal weights 
   VCA    =   1.00  1.00
   NELECT =     200.0000    total number of electrons
   NUPDOWN=      -1.0000    fix difference up-down

 DOS related values:
   EMIN   =  10.00;   EMAX   =-10.00  energy-range for DOS
   EFERMI =   0.00
   ISMEAR =    -5;   SIGMA  =   0.05  broadening in eV -4-tet -1-fermi 0-gaus

 Electronic relaxation 2 (details)
   IALGO  =     68    algorithm
   LDIAG  =      T    sub-space diagonalisation (order eigenvalues)
   LSUBROT=      F    optimize rotation matrix (better conditioning)
   TURBO    =      0    0=normal 1=particle mesh
   IRESTART =      0    0=no restart 2=restart with 2 vectors
   NREBOOT  =      0    no. of reboots
   NMIN     =      0    reboot dimension
   EREF     =   0.00    reference energy to select bands
   IMIX   =      4    mixing-type and parameters
     AMIX     =   0.40;   BMIX     =  1.00
     AMIX_MAG =   1.60;   BMIX_MAG =  1.00
     AMIN     =   0.10
     WC   =   100.;   INIMIX=   1;  MIXPRE=   1;  MAXMIX= -45

 Intra band minimization:
   WEIMIN = 0.0000     energy-eigenvalue tresh-hold
   EBREAK =  0.00E+00  absolut break condition
   DEPER  =   0.30     relativ break condition  

   TIME   =   0.40     timestep for ELM

  volume/ion in A,a.u.               =      11.39        76.87
  Fermi-wavevector in a.u.,A,eV,Ry     =   1.475103  2.787540 29.605304  2.175928
  Thomas-Fermi vector in A             =   2.589793
 
 Write flags
   LWAVE        =      F    write WAVECAR
   LDOWNSAMPLE  =      F    k-point downsampling of WAVECAR
   LCHARG       =      T    write CHGCAR
   LVTOT        =      F    write LOCPOT, total local potential
   LVHAR        =      F    write LOCPOT, Hartree potential only
   LELF         =      F    write electronic localiz. function (ELF)
   LORBIT       =     11    0 simple, 1 ext, 2 COOP (PROOUT), +10 PAW based schemes


 Dipole corrections
   LMONO  =      F    monopole corrections only (constant potential shift)
   LDIPOL =      F    correct potential (dipole corrections)
   IDIPOL =      0    1-x, 2-y, 3-z, 4-all directions 
   EPSILON=  1.0000000 bulk dielectric constant

 Exchange correlation treatment:
   GGA     =    --    GGA type
   LEXCH   =     8    internal setting for exchange type
   VOSKOWN=      0    Vosko Wilk Nusair interpolation
   LHFCALC =     F    Hartree Fock is set to
   LHFONE  =     F    Hartree Fock one center treatment
   AEXX    =    0.0000 exact exchange contribution

 Linear response parameters
   LEPSILON=     F    determine dielectric tensor
   LRPA    =     F    only Hartree local field effects (RPA)
   LNABLA  =     F    use nabla operator in PAW spheres
   LVEL    =     F    velocity operator in full k-point grid
   LINTERFAST=   F  fast interpolation
   KINTER  =     0    interpolate to denser k-point grid
   CSHIFT  =0.1000    complex shift for real part using Kramers Kronig
   OMEGAMAX=  -1.0    maximum frequency
   DEG_THRESHOLD= 0.2000000E-02 threshold for treating states as degnerate
   RTIME   =   -0.100 relaxation time in fs
  (WPLASMAI=    0.000 imaginary part of plasma frequency in eV, 0.658/RTIME)
   DFIELD  = 0.0000000 0.0000000 0.0000000 field for delta impulse in time
 
 Orbital magnetization related:
   ORBITALMAG=     F  switch on orbital magnetization
   LCHIMAG   =     F  perturbation theory with respect to B field
   DQ        =  0.001000  dq finite difference perturbation B field
   LLRAUG    =     F  two centre corrections for induced B field



--------------------------------------------------------------------------------------------------------


 Static calculation
 charge density and potential will be updated during run
 spin polarized calculation
 RMM-DIIS sequential band-by-band and
  variant of blocked Davidson during initial phase
 perform sub-space diagonalisation
    before iterative eigenvector-optimisation
 modified Broyden-mixing scheme, WC =      100.0
 initial mixing is a Kerker type mixing with AMIX =  0.4000 and BMIX =      1.0000
 Hartree-type preconditioning will be used
 using additional bands           47
 real space projection scheme for non local part
 use partial core corrections
 calculate Harris-corrections to forces 
   (improved forces if not selfconsistent)
 use gradient corrections 
 use of overlap-Matrix (Vanderbilt PP)
 Fermi weights with tetrahedron method with Bloechl corrections


--------------------------------------------------------------------------------------------------------


  energy-cutoff  :      520.00
  volume of cell :      273.39
      direct lattice vectors                 reciprocal lattice vectors
     5.770635000  0.000000000  0.000000000     0.173291154  0.000000000  0.000000000
     0.000000000  5.770635000  0.000000000     0.000000000  0.173291154  0.000000000
     0.000000000  0.000000000  8.209947000     0.000000000  0.000000000  0.121803466

  length of vectors
     5.770635000  5.770635000  8.209947000     0.173291154  0.173291154  0.121803466


 
 k-points in units of 2pi/SCALE and weight: pymatgen v2019.10.16 with grid density =
   0.00000000  0.00000000  0.00000000       0.021
   0.04332279  0.00000000  0.00000000       0.042
   0.08664558  0.00000000  0.00000000       0.021
   0.00000000  0.04332279  0.00000000       0.042
   0.04332279  0.04332279  0.00000000       0.042
   0.08664558  0.04332279  0.00000000       0.042
  -0.04332279  0.04332279  0.00000000       0.042
   0.00000000  0.08664558  0.00000000       0.021
   0.04332279  0.08664558  0.00000000       0.042
   0.08664558  0.08664558  0.00000000       0.021
   0.00000000  0.00000000  0.04060116       0.042
   0.04332279  0.00000000  0.04060116       0.042
   0.08664558  0.00000000  0.04060116       0.042
  -0.04332279  0.00000000  0.04060116       0.042
   0.00000000  0.04332279  0.04060116       0.042
   0.04332279  0.04332279  0.04060116       0.042
   0.08664558  0.04332279  0.04060116       0.042
  -0.04332279  0.04332279  0.04060116       0.042
   0.00000000  0.08664558  0.04060116       0.042
   0.04332279  0.08664558  0.04060116       0.042
   0.08664558  0.08664558  0.04060116       0.042
  -0.04332279  0.08664558  0.04060116       0.042
   0.00000000 -0.04332279  0.04060116       0.042
   0.04332279 -0.04332279  0.04060116       0.042
   0.08664558 -0.04332279  0.04060116       0.042
  -0.04332279 -0.04332279  0.04060116       0.042
 
 k-points in reciprocal lattice and weights: pymatgen v2019.10.16 with grid density =
   0.00000000  0.00000000  0.00000000       0.021
   0.25000000  0.00000000  0.00000000       0.042
   0.50000000  0.00000000  0.00000000       0.021
   0.00000000  0.25000000  0.00000000       0.042
   0.25000000  0.25000000  0.00000000       0.042
   0.50000000  0.25000000  0.00000000       0.042
  -0.25000000  0.25000000  0.00000000       0.042
   0.00000000  0.50000000  0.00000000       0.021
   0.25000000  0.50000000  0.00000000       0.042
   0.50000000  0.50000000  0.00000000       0.021
   0.00000000  0.00000000  0.33333333       0.042
   0.25000000  0.00000000  0.33333333       0.042
   0.50000000  0.00000000  0.33333333       0.042
  -0.25000000  0.00000000  0.33333333       0.042
   0.00000000  0.25000000  0.33333333       0.042
   0.25000000  0.25000000  0.33333333       0.042
   0.50000000  0.25000000  0.33333333       0.042
  -0.25000000  0.25000000  0.33333333       0.042
   0.00000000  0.50000000  0.33333333       0.042
   0.25000000  0.50000000  0.33333333       0.042
   0.50000000  0.50000000  0.33333333       0.042
  -0.25000000  0.50000000  0.33333333       0.042
   0.00000000 -0.25000000  0.33333333       0.042
   0.25000000 -0.25000000  0.33333333       0.042
   0.50000000 -0.25000000  0.33333333       0.042
  -0.25000000 -0.25000000  0.33333333       0.042
 
 position of ions in fractional coordinates (direct lattice) 
   0.75000000  0.50000000  0.37500000
   0.00000000  0.25000000  0.12500000
   0.25000000  0.50000000  0.37500000
   0.00000000  0.75000000  0.12500000
   0.25000000  0.00000000  0.87500000
   0.50000000  0.75000000  0.62500000
   0.75000000  0.00000000  0.87500000
   0.50000000  0.25000000  0.62500000
   0.50000000  0.27918000  0.39075200
   0.27918000  0.50000000  0.60924800
   0.72082000  0.50000000  0.60924800
   0.00000000  0.72082000  0.35924800
   0.00000000  0.27918000  0.35924800
   0.22082000  0.50000000  0.14075200
   0.50000000  0.72082000  0.39075200
   0.77918000  0.50000000  0.14075200
   0.00000000  0.77918000  0.89075200
   0.77918000  0.00000000  0.10924800
   0.22082000  0.00000000  0.10924800
   0.50000000  0.22082000  0.85924800
   0.50000000  0.77918000  0.85924800
   0.72082000  0.00000000  0.64075200
   0.00000000  0.22082000  0.89075200
   0.27918000  0.00000000  0.64075200
 
 position of ions in cartesian coordinates  (Angst):
   4.32797625  2.88531750  3.07873012
   0.00000000  1.44265875  1.02624337
   1.44265875  2.88531750  3.07873012
   0.00000000  4.32797625  1.02624337
   1.44265875  0.00000000  7.18370362
   2.88531750  4.32797625  5.13121687
   4.32797625  0.00000000  7.18370362
   2.88531750  1.44265875  5.13121687
   2.88531750  1.61104588  3.20805321
   1.61104588  2.88531750  5.00189379
   4.15958912  2.88531750  5.00189379
   0.00000000  4.15958912  2.94940704
   0.00000000  1.61104588  2.94940704
   1.27427162  2.88531750  1.15556646
   2.88531750  4.15958912  3.20805321
   4.49636338  2.88531750  1.15556646
   0.00000000  4.49636338  7.31302671
   4.49636338  0.00000000  0.89692029
   1.27427162  0.00000000  0.89692029
   2.88531750  1.27427162  7.05438054
   2.88531750  4.49636338  7.05438054
   4.15958912  0.00000000  5.26053996
   0.00000000  1.27427162  7.31302671
   1.61104588  0.00000000  5.26053996
 


--------------------------------------------------------------------------------------------------------


 k-point  1 :   0.0000 0.0000 0.0000  plane waves:    7395
 k-point  2 :   0.2500 0.0000 0.0000  plane waves:    7381
 k-point  3 :   0.5000 0.0000 0.0000  plane waves:    7382
 k-point  4 :   0.0000 0.2500 0.0000  plane waves:    7381
 k-point  5 :   0.2500 0.2500 0.0000  plane waves:    7355
 k-point  6 :   0.5000 0.2500 0.0000  plane waves:    7358
 k-point  7 :  -0.2500 0.2500 0.0000  plane waves:    7355
 k-point  8 :   0.0000 0.5000 0.0000  plane waves:    7382
 k-point  9 :   0.2500 0.5000 0.0000  plane waves:    7358
 k-point 10 :   0.5000 0.5000 0.0000  plane waves:    7384
 k-point 11 :   0.0000 0.0000 0.3333  plane waves:    7330
 k-point 12 :   0.2500 0.0000 0.3333  plane waves:    7359
 k-point 13 :   0.5000 0.0000 0.3333  plane waves:    7362
 k-point 14 :  -0.2500 0.0000 0.3333  plane waves:    7359
 k-point 15 :   0.0000 0.2500 0.3333  plane waves:    7359
 k-point 16 :   0.2500 0.2500 0.3333  plane waves:    7352
 k-point 17 :   0.5000 0.2500 0.3333  plane waves:    7350
 k-point 18 :  -0.2500 0.2500 0.3333  plane waves:    7352
 k-point 19 :   0.0000 0.5000 0.3333  plane waves:    7362
 k-point 20 :   0.2500 0.5000 0.3333  plane waves:    7350
 k-point 21 :   0.5000 0.5000 0.3333  plane waves:    7356
 k-point 22 :  -0.2500 0.5000 0.3333  plane waves:    7350
 k-point 23 :   0.0000-0.2500 0.3333  plane waves:    7359
 k-point 24 :   0.2500-0.2500 0.3333  plane waves:    7352
 k-point 25 :   0.5000-0.2500 0.3333  plane waves:    7350
 k-point 26 :  -0.2500-0.2500 0.3333  plane waves:    7352

 maximum and minimum number of plane-waves per node :      3704     3659

 maximum number of plane-waves:      7395
 maximum index in each direction: 
   IXMAX=   10   IYMAX=   10   IZMAX=   15
   IXMIN=  -11   IYMIN=  -11   IZMIN=  -15


 real space projection operators:
  total allocation   :      11677.88 KBytes
  max/ min on nodes  :       5857.38       5820.50


 parallel 3D FFT for wavefunctions:
    minimum data exchange during FFTs selected (reduces bandwidth)
 parallel 3D FFT for charge:
    minimum data exchange during FFTs selected (reduces bandwidth)


 total amount of memory used by VASP MPI-rank0   228321. kBytes
=======================================================================

   base      :      30000. kBytes
   nonlr-proj:      10555. kBytes
   fftplans  :       8862. kBytes
   grid      :      21860. kBytes
   one-center:        373. kBytes
   wavefun   :     156671. kBytes
 
     INWAV:  cpu time    0.0000: real time    0.0000
 Broyden mixing: mesh for mixing (old mesh)
   NGX = 21   NGY = 21   NGZ = 31
  (NGX  = 96   NGY  = 96   NGZ  =128)
  gives a total of  13671 points

 initial charge density was supplied:
 charge density of overlapping atoms calculated
 number of electron     200.0000000 magnetization      49.6000000
 keeping initial charge density in first step


--------------------------------------------------------------------------------------------------------


 Maximum index for non-local projection operator         3983
 Maximum index for augmentation-charges         2679 (set IRDMAX)


--------------------------------------------------------------------------------------------------------


 First call to EWALD:  gamma=   0.273
 Maximum number of real-space cells 3x 3x 2
 Maximum number of reciprocal cells 2x 2x 3

    FEWALD:  cpu time    0.0017: real time    0.0017


--------------------------------------- Iteration      1(   1)  ---------------------------------------


    POTLOK:  cpu time    0.2660: real time    0.2663
    SETDIJ:  cpu time    0.0208: real time    0.0208
     EDDAV:  cpu time   62.2405: real time   62.5704
 BZINTS: Fermi energy: 25.391718;200.000000 electrons
         Band energy: 712.891295;  BLOECHL correction: -0.090389
       DOS:  cpu time    0.0804: real time    0.0807
    --------------------------------------------
      LOOP:  cpu time   62.6077: real time   62.9382

 eigenvalue-minimisations  : 15576
 total energy-change (2. order) : 0.3337066E+04  (-0.9779527E+04)
 number of electron     200.0000000 magnetization      49.6000000
 augmentation part      200.0000000 magnetization      49.6000000

 Free energy of the ion-electron system (eV)
  ---------------------------------------------------
  alpha Z        PSCENC =      1060.08892680
  Ewald energy   TEWEN  =    -13194.09933718
  -Hartree energ DENC   =     -8936.36979114
  -exchange      EXHF   =         0.00000000
  -V(xc)+E(xc)   XCENC  =      1010.50135982
  PAW double counting   =     15856.68639199   -16288.99204777
  entropy T*S    EENTRO =         0.00000000
  eigenvalues    EBANDS =       712.89129527
  atomic energy  EATOM  =     23116.35916100
  Solvation  Ediel_sol  =         0.00000000
  ---------------------------------------------------
  free energy    TOTEN  =      3337.06595880 eV

  energy without entropy =     3337.06595880  energy(sigma->0) =     3337.06595880


--------------------------------------------------------------------------------------------------------




--------------------------------------- Iteration      1(   2)  ---------------------------------------


     EDDAV:  cpu time   63.9235: real time   64.8040
 BZINTS: Fermi energy:  8.907867;200.000000 electrons
         Band energy:***********;  BLOECHL correction: -0.060950
       DOS:  cpu time    0.0706: real time    0.0710
    --------------------------------------------
      LOOP:  cpu time   63.9941: real time   64.8750

 eigenvalue-minimisations  : 15486
 total energy-change (2. order) :-0.2941371E+04  (-0.2684906E+04)
 number of electron     200.0000000 magnetization      49.6000000
 augmentation part      200.0000000 magnetization      49.6000000

 Free energy of the ion-electron system (eV)
  ---------------------------------------------------
  alpha Z        PSCENC =      1060.08892680
  Ewald energy   TEWEN  =    -13194.09933718
  -Hartree energ DENC   =     -8936.36979114
  -exchange      EXHF   =         0.00000000
  -V(xc)+E(xc)   XCENC  =      1010.50135982
  PAW double counting   =     15856.68639199   -16288.99204777
  entropy T*S    EENTRO =         0.00000000
  eigenvalues    EBANDS =     -2228.47942394
  atomic energy  EATOM  =     23116.35916100
  Solvation  Ediel_sol  =         0.00000000
  ---------------------------------------------------
  free energy    TOTEN  =       395.69523959 eV

  energy without entropy =      395.69523959  energy(sigma->0) =      395.69523959


--------------------------------------------------------------------------------------------------------




--------------------------------------- Iteration      1(   3)  ---------------------------------------


     EDDAV:  cpu time   63.5101: real time   63.9603
 BZINTS: Fermi energy:  4.592165;200.000000 electrons
         Band energy:***********;  BLOECHL correction:  0.000000
       DOS:  cpu time    0.0113: real time    0.0113
    --------------------------------------------
      LOOP:  cpu time   63.5214: real time   63.9717

 eigenvalue-minimisations  : 15888
 total energy-change (2. order) :-0.5748834E+03  (-0.5023180E+03)
 number of electron     200.0000000 magnetization      49.6000000
 augmentation part      200.0000000 magnetization      49.6000000

 Free energy of the ion-electron system (eV)
  ---------------------------------------------------
  alpha Z        PSCENC =      1060.08892680
  Ewald energy   TEWEN  =    -13194.09933718
  -Hartree energ DENC   =     -8936.36979114
  -exchange      EXHF   =         0.00000000
  -V(xc)+E(xc)   XCENC  =      1010.50135982
  PAW double counting   =     15856.68639199   -16288.99204777
  entropy T*S    EENTRO =         0.00000000
  eigenvalues    EBANDS =     -2803.36278414
  atomic energy  EATOM  =     23116.35916100
  Solvation  Ediel_sol  =         0.00000000
  ---------------------------------------------------
  free energy    TOTEN  =      -179.18812061 eV

  energy without entropy =     -179.18812061  energy(sigma->0) =     -179.18812061


--------------------------------------------------------------------------------------------------------




--------------------------------------- Iteration      1(   4)  ---------------------------------------


     EDDAV:  cpu time   87.8854: real time   89.5760
 BZINTS: Fermi energy:  3.811167;200.000000 electrons
         Band energy:***********;  BLOECHL correction:  0.000000
       DOS:  cpu time    0.0090: real time    0.0090
    --------------------------------------------
      LOOP:  cpu time   87.8944: real time   89.5850

 eigenvalue-minimisations  : 22116
 total energy-change (2. order) :-0.6447592E+02  (-0.6291821E+02)
 number of electron     200.0000000 magnetization      49.6000000
 augmentation part      200.0000000 magnetization      49.6000000

 Free energy of the ion-electron system (eV)
  ---------------------------------------------------
  alpha Z        PSCENC =      1060.08892680
  Ewald energy   TEWEN  =    -13194.09933718
  -Hartree energ DENC   =     -8936.36979114
  -exchange      EXHF   =         0.00000000
  -V(xc)+E(xc)   XCENC  =      1010.50135982
  PAW double counting   =     15856.68639199   -16288.99204777
  entropy T*S    EENTRO =         0.00000000
  eigenvalues    EBANDS =     -2867.83870857
  atomic energy  EATOM  =     23116.35916100
  Solvation  Ediel_sol  =         0.00000000
  ---------------------------------------------------
  free energy    TOTEN  =      -243.66404504 eV

  energy without entropy =     -243.66404504  energy(sigma->0) =     -243.66404504


--------------------------------------------------------------------------------------------------------




--------------------------------------- Iteration      1(   5)  ---------------------------------------


     EDDAV:  cpu time   81.1605: real time   81.6224
 BZINTS: Fermi energy:  3.890750;200.000000 electrons
         Band energy:***********;  BLOECHL correction:  0.000000
       DOS:  cpu time    0.0104: real time    0.0104
    CHARGE:  cpu time    1.7939: real time    1.8000
    MIXING:  cpu time    0.0090: real time    0.0090
    --------------------------------------------
      LOOP:  cpu time   82.9739: real time   83.4419

 eigenvalue-minimisations  : 22359
 total energy-change (2. order) :-0.1415504E+01  (-0.1409375E+01)
 number of electron     199.9999989 magnetization      34.4707783
 augmentation part       62.5720669 magnetization      25.9748318

 Broyden mixing:
  rms(total) = 0.68908E+01    rms(broyden)= 0.68881E+01
  rms(prec ) = 0.92544E+01
  weight for this iteration     100.00

 Free energy of the ion-electron system (eV)
  ---------------------------------------------------
  alpha Z        PSCENC =      1060.08892680
  Ewald energy   TEWEN  =    -13194.09933718
  -Hartree energ DENC   =     -8936.36979114
  -exchange      EXHF   =         0.00000000
  -V(xc)+E(xc)   XCENC  =      1010.50135982
  PAW double counting   =     15856.68639199   -16288.99204777
  entropy T*S    EENTRO =         0.00000000
  eigenvalues    EBANDS =     -2869.25421262
  atomic energy  EATOM  =     23116.35916100
  Solvation  Ediel_sol  =         0.00000000
  ---------------------------------------------------
  free energy    TOTEN  =      -245.07954909 eV

  energy without entropy =     -245.07954909  energy(sigma->0) =     -245.07954909


--------------------------------------------------------------------------------------------------------




--------------------------------------- Iteration      1(   6)  ---------------------------------------


    POTLOK:  cpu time    0.2887: real time    0.2892
    SETDIJ:  cpu time    0.0239: real time    0.0239
    EDDIAG:  cpu time    9.0858: real time    9.1478
  RMM-DIIS:  cpu time   52.5327: real time   52.7649
    ORTHCH:  cpu time    0.6949: real time    0.6965
 BZINTS: Fermi energy:  0.793908;200.000000 electrons
         Band energy:***********;  BLOECHL correction: -0.154716
       DOS:  cpu time    0.0680: real time    0.0681
    CHARGE:  cpu time    1.7029: real time    1.7088
    MIXING:  cpu time    0.0079: real time    0.0078
    --------------------------------------------
      LOOP:  cpu time   64.4047: real time   64.7071

 eigenvalue-minimisations  : 18572
 total energy-change (2. order) : 0.4776294E+00  (-0.4702701E+02)
 number of electron     199.9999887 magnetization      29.4296065
 augmentation part       82.4557273 magnetization      23.7102647

 Broyden mixing:
  rms(total) = 0.10390E+02    rms(broyden)= 0.10388E+02
  rms(prec ) = 0.15087E+02
  weight for this iteration     100.00

 eigenvalues of (default mixing * dielectric matrix)
  average eigenvalue GAMMA=   0.4302
  0.4302

 Free energy of the ion-electron system (eV)
  ---------------------------------------------------
  alpha Z        PSCENC =      1060.08892680
  Ewald energy   TEWEN  =    -13194.09933718
  -Hartree energ DENC   =     -8553.10631551
  -exchange      EXHF   =         0.00000000
  -V(xc)+E(xc)   XCENC  =      1004.97060787
  PAW double counting   =     15531.99573039   -15959.46381181
  entropy T*S    EENTRO =         0.00000000
  eigenvalues    EBANDS =     -3251.34688121
  atomic energy  EATOM  =     23116.35916100
  Solvation  Ediel_sol  =         0.00000000
  ---------------------------------------------------
  free energy    TOTEN  =      -244.60191964 eV

  energy without entropy =     -244.60191964  energy(sigma->0) =     -244.60191964


--------------------------------------------------------------------------------------------------------




--------------------------------------- Iteration      1(   7)  ---------------------------------------


    POTLOK:  cpu time    0.2594: real time    0.2600
    SETDIJ:  cpu time    0.0225: real time    0.0225
    EDDIAG:  cpu time    8.7546: real time    8.7871
  RMM-DIIS:  cpu time   59.2341: real time   59.4772
    ORTHCH:  cpu time    0.6909: real time    0.6944
 BZINTS: Fermi energy:  3.288464;200.000000 electrons
         Band energy:***********;  BLOECHL correction:  0.000000
       DOS:  cpu time    0.0104: real time    0.0105
    CHARGE:  cpu time    1.9812: real time    1.9860
    MIXING:  cpu time    0.0078: real time    0.0078
    --------------------------------------------
      LOOP:  cpu time   70.9608: real time   71.2455

 eigenvalue-minimisations  : 21076
 total energy-change (2. order) : 0.5495586E+02  (-0.1174626E+02)
 number of electron     199.9999972 magnetization      26.3041197
 augmentation part       63.8730522 magnetization      17.1970548

 Broyden mixing:
  rms(total) = 0.38323E+01    rms(broyden)= 0.38292E+01
  rms(prec ) = 0.49817E+01
  weight for this iteration     100.00

 eigenvalues of (default mixing * dielectric matrix)
  average eigenvalue GAMMA=   0.4937
  0.7128  0.2746

 Free energy of the ion-electron system (eV)
  ---------------------------------------------------
  alpha Z        PSCENC =      1060.08892680
  Ewald energy   TEWEN  =    -13194.09933718
  -Hartree energ DENC   =     -8893.96609232
  -exchange      EXHF   =         0.00000000
  -V(xc)+E(xc)   XCENC  =      1005.11430553
  PAW double counting   =     16282.44958598   -16742.12082875
  entropy T*S    EENTRO =         0.00000000
  eigenvalues    EBANDS =     -2823.47177956
  atomic energy  EATOM  =     23116.35916100
  Solvation  Ediel_sol  =         0.00000000
  ---------------------------------------------------
  free energy    TOTEN  =      -189.64605849 eV

  energy without entropy =     -189.64605849  energy(sigma->0) =     -189.64605849


--------------------------------------------------------------------------------------------------------




--------------------------------------- Iteration      1(   8)  ---------------------------------------


    POTLOK:  cpu time    0.2584: real time    0.2589
    SETDIJ:  cpu time    0.0233: real time    0.0233
    EDDIAG:  cpu time    8.7027: real time    8.7348
  RMM-DIIS:  cpu time   48.2164: real time   48.4790
    ORTHCH:  cpu time    0.6802: real time    0.6818
 BZINTS: Fermi energy:  2.421984;200.000000 electrons
         Band energy:***********;  BLOECHL correction:  0.000000
       DOS:  cpu time    0.0106: real time    0.0106
    CHARGE:  cpu time    1.6599: real time    1.6647
    MIXING:  cpu time    0.0080: real time    0.0081
    --------------------------------------------
      LOOP:  cpu time   59.5596: real time   59.8614

 eigenvalue-minimisations  : 16897
 total energy-change (2. order) : 0.4941800E-02  (-0.9976274E+00)
 number of electron     199.9999966 magnetization      23.9317218
 augmentation part       65.0698394 magnetization      15.5920751

 Broyden mixing:
  rms(total) = 0.20681E+01    rms(broyden)= 0.20680E+01
  rms(prec ) = 0.29134E+01
  weight for this iteration     100.00

 eigenvalues of (default mixing * dielectric matrix)
  average eigenvalue GAMMA=   0.6980
  0.3060  0.8941  0.8941

 Free energy of the ion-electron system (eV)
  ---------------------------------------------------
  alpha Z        PSCENC =      1060.08892680
  Ewald energy   TEWEN  =    -13194.09933718
  -Hartree energ DENC   =     -8831.46522778
  -exchange      EXHF   =         0.00000000
  -V(xc)+E(xc)   XCENC  =      1002.03366106
  PAW double counting   =     16317.23566680   -16781.04952028
  entropy T*S    EENTRO =         0.00000000
  eigenvalues    EBANDS =     -2878.74444712
  atomic energy  EATOM  =     23116.35916100
  Solvation  Ediel_sol  =         0.00000000
  ---------------------------------------------------
  free energy    TOTEN  =      -189.64111669 eV

  energy without entropy =     -189.64111669  energy(sigma->0) =     -189.64111669


--------------------------------------------------------------------------------------------------------




--------------------------------------- Iteration      1(   9)  ---------------------------------------


    POTLOK:  cpu time    0.2639: real time    0.2652
    SETDIJ:  cpu time    0.0282: real time    0.0284
    EDDIAG:  cpu time    8.7176: real time    8.7454
  RMM-DIIS:  cpu time   48.5257: real time   48.7504
    ORTHCH:  cpu time    0.8340: real time    0.8430
 BZINTS: Fermi energy:  1.688068;200.000000 electrons
         Band energy:***********;  BLOECHL correction:  0.000000
       DOS:  cpu time    0.0141: real time    0.0142
    CHARGE:  cpu time    2.4373: real time    2.4597
    MIXING:  cpu time    0.0098: real time    0.0098
    --------------------------------------------
      LOOP:  cpu time   60.8306: real time   61.1162

 eigenvalue-minimisations  : 16498
 total energy-change (2. order) :-0.1394001E+01  (-0.1345438E+01)
 number of electron     199.9999958 magnetization      24.1188469
 augmentation part       66.6005893 magnetization      16.5291162

 Broyden mixing:
  rms(total) = 0.84393E+00    rms(broyden)= 0.84359E+00
  rms(prec ) = 0.10672E+01
  weight for this iteration     100.00

 eigenvalues of (default mixing * dielectric matrix)
  average eigenvalue GAMMA=   0.8834
  1.2918  1.2918  0.3040  0.6458

 Free energy of the ion-electron system (eV)
  ---------------------------------------------------
  alpha Z        PSCENC =      1060.08892680
  Ewald energy   TEWEN  =    -13194.09933718
  -Hartree energ DENC   =     -8753.15685808
  -exchange      EXHF   =         0.00000000
  -V(xc)+E(xc)   XCENC  =       998.58099602
  PAW double counting   =     16360.06540360   -16829.50119026
  entropy T*S    EENTRO =         0.00000000
  eigenvalues    EBANDS =     -2949.37221946
  atomic energy  EATOM  =     23116.35916100
  Solvation  Ediel_sol  =         0.00000000
  ---------------------------------------------------
  free energy    TOTEN  =      -191.03511755 eV

  energy without entropy =     -191.03511755  energy(sigma->0) =     -191.03511755


--------------------------------------------------------------------------------------------------------




--------------------------------------- Iteration      1(  10)  ---------------------------------------


    POTLOK:  cpu time    0.3296: real time    0.3329
    SETDIJ:  cpu time    0.0291: real time    0.0294
    EDDIAG:  cpu time   10.2604: real time   10.3838
  RMM-DIIS:  cpu time   56.3818: real time   57.1029
    ORTHCH:  cpu time    0.7683: real time    0.7779
 BZINTS: Fermi energy:  1.242050;200.000000 electrons
         Band energy:***********;  BLOECHL correction:  0.000000
       DOS:  cpu time    0.0105: real time    0.0106
    CHARGE:  cpu time    2.0242: real time    2.0535
    MIXING:  cpu time    0.0085: real time    0.0086
    --------------------------------------------
      LOOP:  cpu time   69.8124: real time   70.6996

 eigenvalue-minimisations  : 18592
 total energy-change (2. order) : 0.1686119E+00  (-0.2520941E+00)
 number of electron     199.9999955 magnetization      24.0416111
 augmentation part       67.3572667 magnetization      16.8533648

 Broyden mixing:
  rms(total) = 0.17660E+00    rms(broyden)= 0.17606E+00
  rms(prec ) = 0.21299E+00
  weight for this iteration     100.00

 eigenvalues of (default mixing * dielectric matrix)
  average eigenvalue GAMMA=   0.9282
  1.4265  1.4265  0.3039  0.7934  0.6907

 Free energy of the ion-electron system (eV)
  ---------------------------------------------------
  alpha Z        PSCENC =      1060.08892680
  Ewald energy   TEWEN  =    -13194.09933718
  -Hartree energ DENC   =     -8695.70788307
  -exchange      EXHF   =         0.00000000
  -V(xc)+E(xc)   XCENC  =       997.56655826
  PAW double counting   =     16390.24079891   -16864.58591127
  entropy T*S    EENTRO =         0.00000000
  eigenvalues    EBANDS =     -3000.72881913
  atomic energy  EATOM  =     23116.35916100
  Solvation  Ediel_sol  =         0.00000000
  ---------------------------------------------------
  free energy    TOTEN  =      -190.86650568 eV

  energy without entropy =     -190.86650568  energy(sigma->0) =     -190.86650568


--------------------------------------------------------------------------------------------------------




--------------------------------------- Iteration      1(  11)  ---------------------------------------


    POTLOK:  cpu time    0.2760: real time    0.2797
    SETDIJ:  cpu time    0.0237: real time    0.0239
    EDDIAG:  cpu time    9.5728: real time    9.6988
  RMM-DIIS:  cpu time   61.6038: real time   62.3880
    ORTHCH:  cpu time    0.7836: real time    0.7925
 BZINTS: Fermi energy:  1.186144;200.000000 electrons
         Band energy:***********;  BLOECHL correction:  0.000000
       DOS:  cpu time    0.0100: real time    0.0102
    CHARGE:  cpu time    2.0249: real time    2.0498
    MIXING:  cpu time    0.0098: real time    0.0099
    --------------------------------------------
      LOOP:  cpu time   74.3045: real time   75.2528

 eigenvalue-minimisations  : 20798
 total energy-change (2. order) :-0.4902079E-01  (-0.5375469E-01)
 number of electron     199.9999954 magnetization      24.0017957
 augmentation part       67.5062937 magnetization      16.9912554

 Broyden mixing:
  rms(total) = 0.84320E-01    rms(broyden)= 0.84166E-01
  rms(prec ) = 0.10357E+00
  weight for this iteration     100.00

 eigenvalues of (default mixing * dielectric matrix)
  average eigenvalue GAMMA=   1.0375
  2.0080  1.2626  1.2626  0.3039  0.6550  0.7328

 Free energy of the ion-electron system (eV)
  ---------------------------------------------------
  alpha Z        PSCENC =      1060.08892680
  Ewald energy   TEWEN  =    -13194.09933718
  -Hartree energ DENC   =     -8681.11542261
  -exchange      EXHF   =         0.00000000
  -V(xc)+E(xc)   XCENC  =       997.50665113
  PAW double counting   =     16442.64010098   -16921.39531617
  entropy T*S    EENTRO =         0.00000000
  eigenvalues    EBANDS =     -3010.90029043
  atomic energy  EATOM  =     23116.35916100
  Solvation  Ediel_sol  =         0.00000000
  ---------------------------------------------------
  free energy    TOTEN  =      -190.91552647 eV

  energy without entropy =     -190.91552647  energy(sigma->0) =     -190.91552647


--------------------------------------------------------------------------------------------------------




--------------------------------------- Iteration      1(  12)  ---------------------------------------


    POTLOK:  cpu time    0.2788: real time    0.2827
    SETDIJ:  cpu time    0.0253: real time    0.0255
    EDDIAG:  cpu time    9.4515: real time    9.5603
  RMM-DIIS:  cpu time   59.7621: real time   60.5721
    ORTHCH:  cpu time    0.8644: real time    0.8668
 BZINTS: Fermi energy:  1.201728;200.000000 electrons
         Band energy:***********;  BLOECHL correction:  0.000000
       DOS:  cpu time    0.0117: real time    0.0117
    --------------------------------------------
      LOOP:  cpu time   70.3937: real time   71.3190

 eigenvalue-minimisations  : 20066
 total energy-change (2. order) : 0.4116178E-02  (-0.2505759E-02)
 number of electron     199.9999954 magnetization      24.0017957
 augmentation part       67.5062937 magnetization      16.9912554

 Free energy of the ion-electron system (eV)
  ---------------------------------------------------
  alpha Z        PSCENC =      1060.08892680
  Ewald energy   TEWEN  =    -13194.09933718
  -Hartree energ DENC   =     -8683.13357792
  -exchange      EXHF   =         0.00000000
  -V(xc)+E(xc)   XCENC  =       997.65188992
  PAW double counting   =     16471.73956495   -16952.46416282
  entropy T*S    EENTRO =         0.00000000
  eigenvalues    EBANDS =     -3007.05387506
  atomic energy  EATOM  =     23116.35916100
  Solvation  Ediel_sol  =         0.00000000
  ---------------------------------------------------
  free energy    TOTEN  =      -190.91141030 eV

  energy without entropy =     -190.91141030  energy(sigma->0) =     -190.91141030


--------------------------------------------------------------------------------------------------------




 average (electrostatic) potential at core
  the test charge radii are     0.9577  0.7215
  (the norm of the test charge is              1.0000)
       1 -50.7832       2 -50.7915       3 -50.8099       4 -50.8111       5 -50.8073
       6 -50.8258       7 -50.7864       8 -50.8065       9 -73.5362      10 -73.5316
      11 -73.5349      12 -73.5390      13 -73.5402      14 -73.5375      15 -73.5357
      16 -73.5407      17 -73.5364      18 -73.5405      19 -73.5375      20 -73.5397
      21 -73.5360      22 -73.5354      23 -73.5391      24 -73.5330
 
 
 
 E-fermi :   1.2017     XC(G=0): -10.5342     alpha+bet : -9.1839


 spin component 1

 k-point     1 :       0.0000    0.0000    0.0000
  band No.  band energies     occupation 
      1     -48.9446      1.00000
      2     -48.8930      1.00000
      3     -48.8821      1.00000
      4     -48.8740      1.00000
      5     -48.8720      1.00000
      6     -48.8711      1.00000
      7     -48.8468      1.00000
      8     -48.8464      1.00000
      9     -48.8379      1.00000
     10     -48.8346      1.00000
     11     -48.8328      1.00000
     12     -48.8296      1.00000
     13     -48.8256      1.00000
     14     -48.8216      1.00000
     15     -48.8184      1.00000
     16     -48.8120      1.00000
     17     -48.7998      1.00000
     18     -48.7911      1.00000
     19     -48.7892      1.00000
     20     -48.7883      1.00000
     21     -48.7809      1.00000
     22     -48.7787      1.00000
     23     -48.7769      1.00000
     24     -48.7745      1.00000
     25     -17.8433      1.00000
     26     -17.1712      1.00000
     27     -17.1706      1.00000
     28     -16.4364      1.00000
     29     -16.2818      1.00000
     30     -16.2813      1.00000
     31     -16.2805      1.00000
     32     -16.1308      1.00000
     33     -16.1301      1.00000
     34     -16.1025      1.00000
     35     -16.1018      1.00000
     36     -16.0528      1.00000
     37     -16.0524      1.00000
     38     -15.8810      1.00000
     39     -15.8803      1.00000
     40     -15.8719      1.00000
     41      -5.3770      1.00000
     42      -4.8919      1.00000
     43      -4.8879      1.00000
     44      -4.8875      1.00000
     45      -4.4676      1.00000
     46      -4.4645      1.00000
     47      -4.3518      1.00000
     48      -4.3428      1.00000
     49      -4.0245      1.00000
     50      -4.0218      1.00000
     51      -4.0124      1.00000
     52      -4.0092      1.00000
     53      -3.8868      1.00000
     54      -3.8833      1.00000
     55      -3.4312      1.00000
     56      -3.4285      1.00000
     57      -3.4056      1.00000
     58      -3.2889      1.00000
     59      -3.2770      1.00000
     60      -3.2424      1.00000
     61      -3.2394      1.00000
     62      -3.1818      1.00000
     63      -3.1784      1.00000
     64      -2.8265      1.00000
     65      -2.7699      1.00000
     66      -2.7666      1.00000
     67      -2.7191      1.00000
     68      -2.7155      1.00000
     69      -2.1553      1.00000
     70      -2.1453      1.00000
     71      -2.1436      1.00000
     72      -2.1289      1.00000
     73      -2.1257      1.00000
     74      -1.5340      1.00000
     75      -1.5274      1.00000
     76      -1.2866      1.00000
     77      -1.2723      1.00000
     78      -1.0140      1.00000
     79      -1.0050      1.00000
     80      -1.0044      1.00000
     81      -0.7937      1.00000
     82      -0.7844      1.00000
     83      -0.7837      1.00000
     84      -0.7100      1.00000
     85      -0.7092      1.00000
     86      -0.3156      1.00000
     87      -0.3141      1.00000
     88      -0.3117      1.00000
     89      -0.3107      1.00000
     90      -0.3044      1.00000
     91      -0.2974      1.00000
     92      -0.1133      1.00000
     93      -0.1039      1.00000
     94      -0.0548      1.00000
     95      -0.0479      1.00000
     96      -0.0053      1.00000
     97      -0.0053      1.00000
     98       0.0258      1.00000
     99       0.0327      1.00000
    100       0.3985      1.00000
    101       0.4208      1.00000
    102       0.4241      1.00000
    103       0.4560      1.00000
    104       0.4563      1.00000
    105       0.4583      1.00000
    106       1.0079      1.00000
    107       1.0117      1.00000
    108       1.0254      1.00000
    109       1.0306      1.00000
    110       1.0315      1.00000
    111       1.0349      1.00000
    112       1.0369      1.00000
    113       2.8178      0.00000
    114       2.8244      0.00000
    115       3.2522      0.00000
    116       3.2585      0.00000
    117       3.4864      0.00000
    118       3.4882      0.00000
    119       3.4922      0.00000
    120       3.5056      0.00000
    121       3.5071      0.00000
    122       3.8862      0.00000
    123       3.8913      0.00000
    124       3.9835      0.00000
    125       3.9853      0.00000
    126       3.9881      0.00000
    127       4.1144      0.00000
    128       4.1177      0.00000
    129       8.3498      0.00000
    130      11.4334      0.00000
    131      11.4342      0.00000
    132      11.7796      0.00000
    133      11.8497      0.00000
    134      11.8501      0.00000
    135      12.8242      0.00000
    136      12.8246      0.00000
    137      13.2590      0.00000
    138      13.2597      0.00000
    139      13.5594      0.00000
    140      13.7874      0.00000
    141      13.7934      0.00000
    142      13.8041      0.00000
    143      15.6652      0.00000
    144      15.9538      0.00000
    145      16.0193      0.00000
    146      16.0608      0.00000
    147      16.1538      0.00000

 k-point     2 :       0.2500    0.0000    0.0000
  band No.  band energies     occupation 
      1     -48.9360      1.00000
      2     -48.8983      1.00000
      3     -48.8748      1.00000
      4     -48.8709      1.00000
      5     -48.8671      1.00000
      6     -48.8666      1.00000
      7     -48.8482      1.00000
      8     -48.8479      1.00000
      9     -48.8430      1.00000
     10     -48.8393      1.00000
     11     -48.8365      1.00000
     12     -48.8300      1.00000
     13     -48.8182      1.00000
     14     -48.8141      1.00000
     15     -48.8126      1.00000
     16     -48.8085      1.00000
     17     -48.7989      1.00000
     18     -48.7947      1.00000
     19     -48.7924      1.00000
     20     -48.7903      1.00000
     21     -48.7881      1.00000
     22     -48.7862      1.00000
     23     -48.7814      1.00000
     24     -48.7783      1.00000
     25     -17.7445      1.00000
     26     -17.2602      1.00000
     27     -17.0730      1.00000
     28     -16.5651      1.00000
     29     -16.2591      1.00000
     30     -16.2549      1.00000
     31     -16.2379      1.00000
     32     -16.2106      1.00000
     33     -16.1524      1.00000
     34     -16.1285      1.00000
     35     -16.0334      1.00000
     36     -16.0272      1.00000
     37     -16.0241      1.00000
     38     -15.9295      1.00000
     39     -15.9056      1.00000
     40     -15.9032      1.00000
     41      -5.1934      1.00000
     42      -4.7453      1.00000
     43      -4.6852      1.00000
     44      -4.6495      1.00000
     45      -4.3898      1.00000
     46      -4.3179      1.00000
     47      -4.3145      1.00000
     48      -4.3025      1.00000
     49      -4.2659      1.00000
     50      -4.0530      1.00000
     51      -4.0125      1.00000
     52      -3.9077      1.00000
     53      -3.8885      1.00000
     54      -3.7039      1.00000
     55      -3.5432      1.00000
     56      -3.4993      1.00000
     57      -3.4825      1.00000
     58      -3.4809      1.00000
     59      -3.4333      1.00000
     60      -3.4034      1.00000
     61      -3.3209      1.00000
     62      -3.3198      1.00000
     63      -3.1216      1.00000
     64      -3.0501      1.00000
     65      -3.0256      1.00000
     66      -2.8627      1.00000
     67      -2.5999      1.00000
     68      -2.2362      1.00000
     69      -2.1471      1.00000
     70      -2.1021      1.00000
     71      -2.0221      1.00000
     72      -1.9497      1.00000
     73      -1.8458      1.00000
     74      -1.7873      1.00000
     75      -1.7135      1.00000
     76      -1.5943      1.00000
     77      -1.4459      1.00000
     78      -1.3884      1.00000
     79      -1.2334      1.00000
     80      -1.0095      1.00000
     81      -0.9569      1.00000
     82      -0.9485      1.00000
     83      -0.8985      1.00000
     84      -0.7035      1.00000
     85      -0.5944      1.00000
     86      -0.5620      1.00000
     87      -0.3153      1.00000
     88      -0.2924      1.00000
     89      -0.2806      1.00000
     90      -0.1682      1.00000
     91      -0.1460      1.00000
     92      -0.1328      1.00000
     93      -0.1062      1.00000
     94      -0.0552      1.00000
     95      -0.0127      1.00000
     96       0.0757      1.00000
     97       0.2464      1.00000
     98       0.2813      1.00000
     99       0.3740      1.00000
    100       0.3832      1.00000
    101       0.4163      1.00000
    102       0.4499      1.00000
    103       0.5230      1.00000
    104       0.6472      1.00000
    105       0.7453      1.00000
    106       0.7644      1.00000
    107       0.8500      1.00000
    108       0.8990      1.00000
    109       0.9658      1.00000
    110       1.0471      1.00000
    111       1.0834      1.00000
    112       1.1407      1.00000
    113       3.0045      0.00000
    114       3.0240      0.00000
    115       3.2820      0.00000
    116       3.3668      0.00000
    117       3.3935      0.00000
    118       3.3989      0.00000
    119       3.4059      0.00000
    120       3.4339      0.00000
    121       3.4484      0.00000
    122       3.7401      0.00000
    123       3.7611      0.00000
    124       3.8680      0.00000
    125       3.8956      0.00000
    126       3.9168      0.00000
    127       4.0009      0.00000
    128       4.0163      0.00000
    129       8.8556      0.00000
    130      11.4788      0.00000
    131      11.6326      0.00000
    132      11.6578      0.00000
    133      11.8608      0.00000
    134      11.9766      0.00000
    135      12.3876      0.00000
    136      13.0928      0.00000
    137      13.4070      0.00000
    138      13.5059      0.00000
    139      13.7334      0.00000
    140      14.2034      0.00000
    141      14.3583      0.00000
    142      14.4031      0.00000
    143      15.1965      0.00000
    144      15.6228      0.00000
    145      15.6700      0.00000
    146      15.8773      0.00000
    147      15.9340      0.00000

 k-point     3 :       0.5000    0.0000    0.0000
  band No.  band energies     occupation 
      1     -48.9216      1.00000
      2     -48.9097      1.00000
      3     -48.8715      1.00000
      4     -48.8674      1.00000
      5     -48.8601      1.00000
      6     -48.8595      1.00000
      7     -48.8538      1.00000
      8     -48.8484      1.00000
      9     -48.8419      1.00000
     10     -48.8361      1.00000
     11     -48.8315      1.00000
     12     -48.8304      1.00000
     13     -48.8153      1.00000
     14     -48.8098      1.00000
     15     -48.8098      1.00000
     16     -48.8089      1.00000
     17     -48.8062      1.00000
     18     -48.8004      1.00000
     19     -48.7976      1.00000
     20     -48.7968      1.00000
     21     -48.7931      1.00000
     22     -48.7886      1.00000
     23     -48.7851      1.00000
     24     -48.7794      1.00000
     25     -17.5011      1.00000
     26     -17.4999      1.00000
     27     -16.8287      1.00000
     28     -16.8278      1.00000
     29     -16.2265      1.00000
     30     -16.2255      1.00000
     31     -16.2054      1.00000
     32     -16.2049      1.00000
     33     -16.1804      1.00000
     34     -16.1784      1.00000
     35     -16.0039      1.00000
     36     -16.0019      1.00000
     37     -15.9677      1.00000
     38     -15.9663      1.00000
     39     -15.9660      1.00000
     40     -15.9655      1.00000
     41      -4.7578      1.00000
     42      -4.7549      1.00000
     43      -4.3719      1.00000
     44      -4.3695      1.00000
     45      -4.2783      1.00000
     46      -4.2751      1.00000
     47      -4.2099      1.00000
     48      -4.2071      1.00000
     49      -4.2055      1.00000
     50      -4.2018      1.00000
     51      -4.1153      1.00000
     52      -4.1125      1.00000
     53      -3.8319      1.00000
     54      -3.8275      1.00000
     55      -3.6981      1.00000
     56      -3.6952      1.00000
     57      -3.5228      1.00000
     58      -3.5175      1.00000
     59      -3.4875      1.00000
     60      -3.4830      1.00000
     61      -3.3357      1.00000
     62      -3.3310      1.00000
     63      -3.1644      1.00000
     64      -3.1593      1.00000
     65      -2.8948      1.00000
     66      -2.8886      1.00000
     67      -2.4144      1.00000
     68      -2.4075      1.00000
     69      -2.3299      1.00000
     70      -2.3248      1.00000
     71      -1.8503      1.00000
     72      -1.8489      1.00000
     73      -1.8463      1.00000
     74      -1.8456      1.00000
     75      -1.6276      1.00000
     76      -1.6237      1.00000
     77      -1.5608      1.00000
     78      -1.5549      1.00000
     79      -1.2618      1.00000
     80      -1.2566      1.00000
     81      -1.2220      1.00000
     82      -1.2158      1.00000
     83      -0.9189      1.00000
     84      -0.9122      1.00000
     85      -0.4436      1.00000
     86      -0.4392      1.00000
     87      -0.3187      1.00000
     88      -0.3139      1.00000
     89      -0.2527      1.00000
     90      -0.2426      1.00000
     91      -0.2019      1.00000
     92      -0.1969      1.00000
     93       0.1367      1.00000
     94       0.1471      1.00000
     95       0.1769      1.00000
     96       0.1871      1.00000
     97       0.4201      1.00000
     98       0.4273      1.00000
     99       0.4764      1.00000
    100       0.4822      1.00000
    101       0.5373      1.00000
    102       0.5427      1.00000
    103       0.6767      1.00000
    104       0.6807      1.00000
    105       0.7128      1.00000
    106       0.7218      1.00000
    107       0.7236      1.00000
    108       0.7328      1.00000
    109       1.0382      1.00000
    110       1.0428      1.00000
    111       1.0529      1.00000
    112       1.0590      1.00000
    113       3.2178      0.00000
    114       3.2237      0.00000
    115       3.2515      0.00000
    116       3.2595      0.00000
    117       3.2956      0.00000
    118       3.3016      0.00000
    119       3.3872      0.00000
    120       3.3989      0.00000
    121       3.5739      0.00000
    122       3.5810      0.00000
    123       3.6873      0.00000
    124       3.6943      0.00000
    125       3.7569      0.00000
    126       3.7625      0.00000
    127       3.9352      0.00000
    128       3.9402      0.00000
    129      10.0770      0.00000
    130      10.0785      0.00000
    131      11.8087      0.00000
    132      11.8094      0.00000
    133      11.9670      0.00000
    134      11.9670      0.00000
    135      13.5121      0.00000
    136      13.5179      0.00000
    137      13.6562      0.00000
    138      13.6581      0.00000
    139      13.9768      0.00000
    140      13.9888      0.00000
    141      14.4160      0.00000
    142      14.4465      0.00000
    143      14.8847      0.00000
    144      14.9041      0.00000
    145      15.5924      0.00000
    146      15.6867      0.00000
    147      15.9642      0.00000

 k-point     4 :       0.0000    0.2500    0.0000
  band No.  band energies     occupation 
      1     -48.9345      1.00000
      2     -48.8904      1.00000
      3     -48.8819      1.00000
      4     -48.8705      1.00000
      5     -48.8686      1.00000
      6     -48.8656      1.00000
      7     -48.8494      1.00000
      8     -48.8468      1.00000
      9     -48.8429      1.00000
     10     -48.8402      1.00000
     11     -48.8365      1.00000
     12     -48.8320      1.00000
     13     -48.8193      1.00000
     14     -48.8173      1.00000
     15     -48.8101      1.00000
     16     -48.8091      1.00000
     17     -48.8073      1.00000
     18     -48.7966      1.00000
     19     -48.7922      1.00000
     20     -48.7895      1.00000
     21     -48.7866      1.00000
     22     -48.7820      1.00000
     23     -48.7778      1.00000
     24     -48.7753      1.00000
     25     -17.7445      1.00000
     26     -17.2602      1.00000
     27     -17.0730      1.00000
     28     -16.5652      1.00000
     29     -16.2585      1.00000
     30     -16.2548      1.00000
     31     -16.2384      1.00000
     32     -16.2109      1.00000
     33     -16.1517      1.00000
     34     -16.1288      1.00000
     35     -16.0336      1.00000
     36     -16.0267      1.00000
     37     -16.0245      1.00000
     38     -15.9301      1.00000
     39     -15.9050      1.00000
     40     -15.9033      1.00000
     41      -5.1932      1.00000
     42      -4.7457      1.00000
     43      -4.6850      1.00000
     44      -4.6489      1.00000
     45      -4.3870      1.00000
     46      -4.3208      1.00000
     47      -4.3143      1.00000
     48      -4.3021      1.00000
     49      -4.2642      1.00000
     50      -4.0510      1.00000
     51      -4.0100      1.00000
     52      -3.9107      1.00000
     53      -3.8914      1.00000
     54      -3.7049      1.00000
     55      -3.5443      1.00000
     56      -3.4982      1.00000
     57      -3.4833      1.00000
     58      -3.4816      1.00000
     59      -3.4302      1.00000
     60      -3.4034      1.00000
     61      -3.3218      1.00000
     62      -3.3193      1.00000
     63      -3.1229      1.00000
     64      -3.0511      1.00000
     65      -3.0268      1.00000
     66      -2.8630      1.00000
     67      -2.6028      1.00000
     68      -2.2369      1.00000
     69      -2.1466      1.00000
     70      -2.1000      1.00000
     71      -2.0231      1.00000
     72      -1.9470      1.00000
     73      -1.8478      1.00000
     74      -1.7887      1.00000
     75      -1.7133      1.00000
     76      -1.5985      1.00000
     77      -1.4397      1.00000
     78      -1.3899      1.00000
     79      -1.2336      1.00000
     80      -1.0065      1.00000
     81      -0.9583      1.00000
     82      -0.9465      1.00000
     83      -0.9005      1.00000
     84      -0.7014      1.00000
     85      -0.5952      1.00000
     86      -0.5592      1.00000
     87      -0.3188      1.00000
     88      -0.2872      1.00000
     89      -0.2813      1.00000
     90      -0.1626      1.00000
     91      -0.1428      1.00000
     92      -0.1283      1.00000
     93      -0.1069      1.00000
     94      -0.0522      1.00000
     95      -0.0161      1.00000
     96       0.0724      1.00000
     97       0.2492      1.00000
     98       0.2806      1.00000
     99       0.3689      1.00000
    100       0.3793      1.00000
    101       0.4140      1.00000
    102       0.4473      1.00000
    103       0.5236      1.00000
    104       0.6461      1.00000
    105       0.7436      1.00000
    106       0.7658      1.00000
    107       0.8494      1.00000
    108       0.8939      1.00000
    109       0.9695      1.00000
    110       1.0476      1.00000
    111       1.0860      1.00000
    112       1.1409      1.00000
    113       2.9989      0.00000
    114       3.0291      0.00000
    115       3.2863      0.00000
    116       3.3618      0.00000
    117       3.3956      0.00000
    118       3.3959      0.00000
    119       3.4017      0.00000
    120       3.4384      0.00000
    121       3.4486      0.00000
    122       3.7365      0.00000
    123       3.7569      0.00000
    124       3.8649      0.00000
    125       3.9007      0.00000
    126       3.9198      0.00000
    127       4.0007      0.00000
    128       4.0206      0.00000
    129       8.8556      0.00000
    130      11.4787      0.00000
    131      11.6321      0.00000
    132      11.6592      0.00000
    133      11.8612      0.00000
    134      11.9767      0.00000
    135      12.3874      0.00000
    136      13.0912      0.00000
    137      13.4072      0.00000
    138      13.5054      0.00000
    139      13.7324      0.00000
    140      14.2106      0.00000
    141      14.3569      0.00000
    142      14.3759      0.00000
    143      15.1788      0.00000
    144      15.6188      0.00000
    145      15.7748      0.00000
    146      15.8617      0.00000
    147      16.1478      0.00000

 k-point     5 :       0.2500    0.2500    0.0000
  band No.  band energies     occupation 
      1     -48.9256      1.00000
      2     -48.8879      1.00000
      3     -48.8821      1.00000
      4     -48.8721      1.00000
      5     -48.8641      1.00000
      6     -48.8602      1.00000
      7     -48.8500      1.00000
      8     -48.8469      1.00000
      9     -48.8435      1.00000
     10     -48.8357      1.00000
     11     -48.8329      1.00000
     12     -48.8297      1.00000
     13     -48.8239      1.00000
     14     -48.8191      1.00000
     15     -48.8118      1.00000
     16     -48.8071      1.00000
     17     -48.8050      1.00000
     18     -48.7984      1.00000
     19     -48.7950      1.00000
     20     -48.7935      1.00000
     21     -48.7889      1.00000
     22     -48.7869      1.00000
     23     -48.7828      1.00000
     24     -48.7796      1.00000
     25     -17.6467      1.00000
     26     -17.1644      1.00000
     27     -17.1638      1.00000
     28     -16.6740      1.00000
     29     -16.2297      1.00000
     30     -16.2247      1.00000
     31     -16.2175      1.00000
     32     -16.1977      1.00000
     33     -16.1971      1.00000
     34     -16.0760      1.00000
     35     -16.0754      1.00000
     36     -16.0196      1.00000
     37     -16.0190      1.00000
     38     -15.9610      1.00000
     39     -15.9463      1.00000
     40     -15.9356      1.00000
     41      -5.0248      1.00000
     42      -4.5478      1.00000
     43      -4.5063      1.00000
     44      -4.5055      1.00000
     45      -4.3145      1.00000
     46      -4.2705      1.00000
     47      -4.2683      1.00000
     48      -4.2168      1.00000
     49      -4.2091      1.00000
     50      -4.2072      1.00000
     51      -3.9574      1.00000
     52      -3.9555      1.00000
     53      -3.7909      1.00000
     54      -3.7908      1.00000
     55      -3.7591      1.00000
     56      -3.5589      1.00000
     57      -3.5285      1.00000
     58      -3.5274      1.00000
     59      -3.4288      1.00000
     60      -3.4106      1.00000
     61      -3.1699      1.00000
     62      -3.1645      1.00000
     63      -3.1470      1.00000
     64      -3.1463      1.00000
     65      -3.0487      1.00000
     66      -3.0476      1.00000
     67      -2.4788      1.00000
     68      -2.4768      1.00000
     69      -2.2067      1.00000
     70      -2.2013      1.00000
     71      -2.1244      1.00000
     72      -1.9938      1.00000
     73      -1.7768      1.00000
     74      -1.7766      1.00000
     75      -1.7511      1.00000
     76      -1.7509      1.00000
     77      -1.5424      1.00000
     78      -1.5308      1.00000
     79      -1.5267      1.00000
     80      -1.1485      1.00000
     81      -1.1477      1.00000
     82      -0.9085      1.00000
     83      -0.9069      1.00000
     84      -0.6396      1.00000
     85      -0.6392      1.00000
     86      -0.5290      1.00000
     87      -0.2261      1.00000
     88      -0.1955      1.00000
     89      -0.1934      1.00000
     90      -0.1498      1.00000
     91      -0.1292      1.00000
     92      -0.1283      1.00000
     93      -0.0160      1.00000
     94      -0.0122      1.00000
     95       0.1016      1.00000
     96       0.1570      1.00000
     97       0.2011      1.00000
     98       0.2016      1.00000
     99       0.3785      1.00000
    100       0.5439      1.00000
    101       0.5463      1.00000
    102       0.5686      1.00000
    103       0.5859      1.00000
    104       0.5907      1.00000
    105       0.5926      1.00000
    106       0.9069      1.00000
    107       0.9072      1.00000
    108       1.0324      1.00000
    109       1.0354      1.00000
    110       1.0702      1.00000
    111       1.0985      1.00000
    112       1.1010      1.00000
    113       3.0766      0.00000
    114       3.0799      0.00000
    115       3.1410      0.00000
    116       3.2353      0.00000
    117       3.2385      0.00000
    118       3.4167      0.00000
    119       3.4250      0.00000
    120       3.4447      0.00000
    121       3.4478      0.00000
    122       3.6057      0.00000
    123       3.7132      0.00000
    124       3.7137      0.00000
    125       3.7774      0.00000
    126       3.7801      0.00000
    127       3.9285      0.00000
    128       4.0162      0.00000
    129       9.3445      0.00000
    130      11.7292      0.00000
    131      11.7294      0.00000
    132      11.9934      0.00000
    133      11.9946      0.00000
    134      12.2620      0.00000
    135      12.3041      0.00000
    136      12.3926      0.00000
    137      12.9236      0.00000
    138      14.0292      0.00000
    139      14.3776      0.00000
    140      14.3996      0.00000
    141      14.5935      0.00000
    142      14.6309      0.00000
    143      14.9358      0.00000
    144      14.9568      0.00000
    145      15.8205      0.00000
    146      16.0481      0.00000
    147      16.1530      0.00000

 k-point     6 :       0.5000    0.2500    0.0000
  band No.  band energies     occupation 
      1     -48.9111      1.00000
      2     -48.8998      1.00000
      3     -48.8766      1.00000
      4     -48.8713      1.00000
      5     -48.8609      1.00000
      6     -48.8522      1.00000
      7     -48.8457      1.00000
      8     -48.8443      1.00000
      9     -48.8387      1.00000
     10     -48.8349      1.00000
     11     -48.8329      1.00000
     12     -48.8278      1.00000
     13     -48.8199      1.00000
     14     -48.8161      1.00000
     15     -48.8129      1.00000
     16     -48.8119      1.00000
     17     -48.8102      1.00000
     18     -48.8091      1.00000
     19     -48.8069      1.00000
[...]
  0.000  -0.000   0.000  -0.000  -0.000  -0.000   0.000   0.000
 -0.000   0.000  -0.000   0.000  -0.000   0.000  -0.000  -0.000
 total augmentation occupancy for first ion, spin component:           1
  1.979   0.000   0.000   0.022   0.000   0.000   0.000   0.000   0.000  -0.000   0.000  -0.000   0.000  -0.000  -0.000   0.000
  0.000   1.981  -0.003   0.000   0.029  -0.010  -0.000   0.000  -0.000   0.000   0.000   0.000   0.000   0.000   0.000   0.000
  0.000  -0.003   1.984   0.000  -0.010   0.036   0.000   0.000  -0.000   0.000   0.000  -0.000   0.000   0.000   0.000   0.000
  0.022   0.000   0.000   0.266   0.000  -0.000   0.000   0.000   0.000  -0.000   0.000  -0.000  -0.000  -0.000   0.000   0.000
  0.000   0.029  -0.010   0.000   0.285  -0.030  -0.000   0.000  -0.000  -0.000  -0.000   0.000   0.000   0.000  -0.000  -0.000
  0.000  -0.010   0.036  -0.000  -0.030   0.307   0.000  -0.000  -0.000   0.000   0.000  -0.000   0.000   0.000  -0.000   0.000
  0.000  -0.000   0.000   0.000  -0.000   0.000   1.042  -0.006   0.000   0.000   0.000   0.576  -0.085  -0.000   0.000  -0.000
  0.000   0.000   0.000   0.000   0.000  -0.000  -0.006   1.107   0.000  -0.000   0.000  -0.082  -0.265  -0.000   0.000  -0.000
  0.000  -0.000  -0.000   0.000  -0.000  -0.000   0.000   0.000   1.041  -0.004  -0.006  -0.000   0.000   0.574  -0.041  -0.064
 -0.000   0.000   0.000  -0.000  -0.000   0.000   0.000  -0.000  -0.004   1.140  -0.023   0.000   0.000  -0.040  -0.234  -0.022
  0.000   0.000   0.000   0.000  -0.000   0.000   0.000   0.000  -0.006  -0.023   1.125   0.000  -0.000  -0.062  -0.022  -0.250
 -0.000   0.000  -0.000  -0.000   0.000  -0.000   0.576  -0.082  -0.000   0.000   0.000   0.655  -0.059  -0.000  -0.000   0.000
  0.000   0.000   0.000  -0.000   0.000   0.000  -0.085  -0.265   0.000   0.000  -0.000  -0.059   0.503   0.000  -0.000  -0.000
 -0.000   0.000   0.000  -0.000   0.000   0.000  -0.000  -0.000   0.574  -0.040  -0.062  -0.000   0.000   0.653  -0.033  -0.048
 -0.000   0.000   0.000   0.000  -0.000  -0.000   0.000   0.000  -0.041  -0.234  -0.022  -0.000  -0.000  -0.033   0.550  -0.034
  0.000   0.000   0.000   0.000  -0.000   0.000  -0.000  -0.000  -0.064  -0.022  -0.250   0.000  -0.000  -0.048  -0.034   0.529
 -0.000  -0.000   0.000   0.000  -0.000   0.000   0.000   0.000  -0.001  -0.020   0.015   0.000   0.000  -0.001  -0.174   0.119
 -0.000  -0.000   0.000  -0.000  -0.000   0.000   0.000   0.000   0.001   0.047  -0.031   0.000   0.000   0.001   0.064  -0.046
 total augmentation occupancy for first ion, spin component:           2
 -0.005   0.000   0.000  -0.003  -0.000   0.000   0.000   0.000  -0.000   0.000   0.000  -0.000   0.000   0.000  -0.000   0.000
  0.000  -0.005  -0.000   0.000  -0.001  -0.002   0.000   0.000  -0.000   0.000  -0.000   0.000   0.000   0.000   0.000   0.000
  0.000  -0.000  -0.004   0.000  -0.002   0.000   0.000   0.000  -0.000   0.000   0.000   0.000   0.000   0.000   0.000   0.000
 -0.003   0.000   0.000   0.019  -0.000  -0.000   0.000  -0.000   0.000   0.000   0.000  -0.000  -0.000  -0.000   0.000   0.000
 -0.000  -0.001  -0.002  -0.000   0.024  -0.007  -0.000   0.000  -0.000   0.000  -0.000   0.000   0.000   0.000   0.000   0.000
  0.000  -0.002   0.000  -0.000  -0.007   0.029   0.000   0.000  -0.000   0.000   0.000  -0.000   0.000   0.000   0.000   0.000
  0.000   0.000   0.000   0.000  -0.000   0.000   0.182   0.055   0.000  -0.000  -0.000  -0.135  -0.021  -0.000   0.000  -0.000
  0.000   0.000   0.000  -0.000   0.000   0.000   0.055   0.833   0.000   0.000  -0.000  -0.018  -0.502  -0.000   0.000  -0.000
 -0.000  -0.000  -0.000   0.000  -0.000  -0.000   0.000   0.000   0.182   0.026   0.041  -0.000  -0.000  -0.135  -0.009  -0.015
  0.000   0.000   0.000   0.000   0.000   0.000  -0.000   0.000   0.026   0.800   0.024   0.000   0.000  -0.007  -0.510   0.006
  0.000  -0.000   0.000   0.000  -0.000   0.000  -0.000  -0.000   0.041   0.024   0.816  -0.000   0.000  -0.013   0.006  -0.507
 -0.000   0.000   0.000  -0.000   0.000  -0.000  -0.135  -0.018  -0.000   0.000  -0.000  -0.116   0.027   0.000  -0.000   0.000
  0.000   0.000   0.000  -0.000   0.000   0.000  -0.021  -0.502  -0.000   0.000   0.000   0.027   0.286  -0.000   0.000   0.000
  0.000   0.000   0.000  -0.000   0.000   0.000  -0.000  -0.000  -0.135  -0.007  -0.013   0.000  -0.000  -0.115   0.012   0.020
 -0.000   0.000   0.000   0.000   0.000   0.000   0.000   0.000  -0.009  -0.510   0.006  -0.000   0.000   0.012   0.293  -0.006
  0.000   0.000   0.000   0.000   0.000   0.000  -0.000  -0.000  -0.015   0.006  -0.507   0.000   0.000   0.020  -0.006   0.291
 -0.000  -0.000   0.000  -0.000  -0.000   0.000   0.000  -0.000   0.000   0.059  -0.040   0.000  -0.000   0.000  -0.040   0.026
 -0.000  -0.000   0.000  -0.000  -0.000   0.000   0.000  -0.000   0.000   0.007  -0.004  -0.000  -0.000  -0.000  -0.021   0.013


------------------------ aborting loop because EDIFF is reached ----------------------------------------


 


 total charge     
 
# of ion       s       p       d       tot
------------------------------------------
    1        0.345   6.448   4.843  11.635
    2        0.345   6.448   4.845  11.638
    3        0.345   6.448   4.851  11.645
    4        0.345   6.448   4.852  11.645
    5        0.345   6.448   4.851  11.644
    6        0.345   6.449   4.857  11.650
    7        0.345   6.448   4.844  11.636
    8        0.345   6.448   4.850  11.644
    9        1.583   3.388   0.000   4.972
   10        1.583   3.387   0.000   4.970
   11        1.583   3.388   0.000   4.971
   12        1.583   3.389   0.000   4.972
   13        1.583   3.390   0.000   4.973
   14        1.583   3.388   0.000   4.972
   15        1.583   3.388   0.000   4.971
   16        1.583   3.390   0.000   4.973
   17        1.583   3.388   0.000   4.972
   18        1.583   3.390   0.000   4.973
   19        1.583   3.388   0.000   4.972
   20        1.583   3.389   0.000   4.972
   21        1.583   3.388   0.000   4.971
   22        1.583   3.388   0.000   4.971
   23        1.583   3.389   0.000   4.973
   24        1.583   3.387   0.000   4.970
--------------------------------------------------
tot         28.092 105.800  38.792 172.684
 


 magnetization (x)
 
# of ion       s       p       d       tot
------------------------------------------
    1        0.031   0.037   2.808   2.877
    2        0.031   0.037   2.808   2.877
    3        0.031   0.037   2.808   2.877
    4        0.031   0.037   2.808   2.877
    5        0.031   0.037   2.808   2.877
    6        0.031   0.037   2.807   2.876
    7        0.031   0.037   2.808   2.877
    8        0.031   0.037   2.808   2.877
    9        0.004   0.012   0.000   0.016
   10        0.004   0.012   0.000   0.016
   11        0.004   0.012   0.000   0.016
   12        0.004   0.012   0.000   0.016
   13        0.004   0.012   0.000   0.016
   14        0.004   0.012   0.000   0.016
   15        0.004   0.012   0.000   0.016
   16        0.004   0.012   0.000   0.016
   17        0.004   0.012   0.000   0.016
   18        0.004   0.012   0.000   0.016
   19        0.004   0.012   0.000   0.016
   20        0.004   0.012   0.000   0.016
   21        0.004   0.012   0.000   0.016
   22        0.004   0.012   0.000   0.016
   23        0.004   0.012   0.000   0.016
   24        0.004   0.012   0.000   0.016
--------------------------------------------------
tot          0.308   0.491  22.464  23.262
 
    CHARGE:  cpu time    1.8367: real time    1.8413
    FORLOC:  cpu time    0.0241: real time    0.0241
    FORNL :  cpu time   18.9257: real time   19.1533
    STRESS:  cpu time   56.3052: real time   56.8631
    FORCOR:  cpu time    0.2652: real time    0.2654
    FORHAR:  cpu time    0.0516: real time    0.0517
    MIXING:  cpu time    0.0091: real time    0.0091
    OFIELD:  cpu time    0.0000: real time    0.0000

  FORCE on cell =-STRESS in cart. coord.  units (eV):
  Direction    XX          YY          ZZ          XY          YZ          ZX
  --------------------------------------------------------------------------------------
  Alpha Z  1060.08893  1060.08893  1060.08893
  Ewald   -4408.52764 -4408.52764 -4377.09369    -0.00000    -0.00000     0.00000
  Hartree  2891.18409  2892.84062  2917.78988    -0.00010    -0.00848     0.13675
  E(xc)   -1097.27728 -1097.27771 -1097.28464     0.00002     0.00004    -0.00004
  Local   -1344.15488 -1346.09615 -1401.91556     0.00055     0.00966    -0.15983
  n-local  -879.77199  -879.77648  -879.80240     0.00049    -0.00039    -0.00035
  augment   607.06276   607.06307   606.90922     0.00013     0.00003     0.00009
  Kinetic  3181.76732  3181.76729  3181.00650    -0.00029     0.00007     0.00016
  Fock        0.00000     0.00000     0.00000     0.00000     0.00000     0.00000
  -------------------------------------------------------------------------------------
  Total      10.37131    10.08194     9.69824     0.00080     0.00093    -0.02321
  in kB      60.77946    59.08361    56.83500     0.00470     0.00546    -0.13602
  external pressure =       58.90 kB  Pullay stress =        0.00 kB


 VOLUME and BASIS-vectors are now :
 -----------------------------------------------------------------------------
  energy-cutoff  :      520.00
  volume of cell :      273.39
      direct lattice vectors                 reciprocal lattice vectors
     5.770635000  0.000000000  0.000000000     0.173291154  0.000000000  0.000000000
     0.000000000  5.770635000  0.000000000     0.000000000  0.173291154  0.000000000
     0.000000000  0.000000000  8.209947000     0.000000000  0.000000000  0.121803466

  length of vectors
     5.770635000  5.770635000  8.209947000     0.173291154  0.173291154  0.121803466


 FORCES acting on ions
    electron-ion (+dipol)            ewald-force                    non-local-force                 convergence-correction
 -----------------------------------------------------------------------------------------------
   0.168E-01 0.631E-01 0.461E-02   -.185E-12 -.256E-13 -.426E-13   0.128E-02 0.155E-02 -.143E-02   -.155E-01 -.665E-01 -.432E-02
   0.521E-01 0.948E-03 0.127E-01   -.117E-12 -.249E-13 0.164E-12   0.216E-03 -.979E-03 0.266E-02   -.558E-01 0.495E-03 -.126E-01
   -.168E-01 0.627E-01 0.809E-02   -.702E-13 -.256E-13 -.142E-13   -.137E-02 0.120E-02 0.103E-02   0.154E-01 -.668E-01 -.104E-01
   0.516E-01 -.716E-03 0.263E-01   -.103E-12 -.853E-13 -.120E-12   0.149E-03 0.208E-02 0.153E-02   -.533E-01 0.124E-02 -.260E-01
   0.388E-01 -.342E-01 -.224E-01   -.153E-12 -.282E-13 -.568E-13   0.249E-02 0.119E-02 0.129E-02   -.418E-01 0.375E-01 0.243E-01
   -.575E-01 0.166E-01 0.732E-02   -.568E-13 0.000E+00 0.711E-14   -.225E-02 0.113E-02 0.609E-03   0.622E-01 -.180E-01 -.780E-02
   -.374E-01 -.347E-01 -.182E-01   -.284E-13 -.148E-15 0.853E-13   -.129E-02 0.366E-04 0.566E-03   0.401E-01 0.381E-01 0.214E-01
   -.568E-01 -.178E-01 0.331E-01   -.568E-13 -.568E-13 -.103E-12   -.776E-03 -.141E-02 0.196E-02   0.602E-01 0.189E-01 -.357E-01
   -.142E+00 0.353E+03 0.247E+03   0.568E-13 -.373E+03 -.261E+03   -.128E-01 0.207E+02 0.144E+02   0.151E+00 -.298E+00 -.302E+00
   0.353E+03 0.103E+00 -.247E+03   -.373E+03 0.264E-13 0.261E+03   0.207E+02 0.930E-02 -.144E+02   -.481E+00 -.110E+00 0.272E+00
   -.353E+03 0.103E+00 -.247E+03   0.373E+03 -.506E-14 0.261E+03   -.207E+02 0.885E-02 -.144E+02   0.506E+00 -.109E+00 0.112E+00
   0.140E+00 -.353E+03 -.247E+03   0.551E-13 0.373E+03 0.261E+03   0.125E-01 -.207E+02 -.144E+02   -.150E+00 0.293E+00 0.311E+00
   0.140E+00 0.353E+03 -.247E+03   0.213E-13 -.373E+03 0.261E+03   0.122E-01 0.207E+02 -.144E+02   -.149E+00 -.312E+00 0.197E+00
   -.353E+03 0.105E+00 0.247E+03   0.373E+03 0.102E-13 -.261E+03   -.207E+02 0.906E-02 0.144E+02   0.352E+00 -.111E+00 -.293E+00
   -.142E+00 -.353E+03 0.247E+03   0.604E-13 0.373E+03 -.261E+03   -.127E-01 -.207E+02 0.144E+02   0.151E+00 0.276E+00 -.415E+00
   0.353E+03 0.105E+00 0.247E+03   -.373E+03 0.713E-14 -.261E+03   0.207E+02 0.958E-02 0.144E+02   -.375E+00 -.112E+00 -.135E+00
   0.110E+00 0.353E+03 0.247E+03   0.533E-13 -.373E+03 -.261E+03   0.982E-02 0.207E+02 0.144E+02   -.117E+00 -.294E+00 -.310E+00
   0.353E+03 -.105E+00 -.247E+03   -.373E+03 0.178E-13 0.261E+03   0.207E+02 -.951E-02 -.144E+02   -.372E+00 0.112E+00 0.151E+00
   -.353E+03 -.103E+00 -.247E+03   0.373E+03 -.107E-13 0.261E+03   -.207E+02 -.891E-02 -.144E+02   0.351E+00 0.109E+00 0.270E+00
   -.111E+00 -.353E+03 -.247E+03   0.533E-13 0.373E+03 0.261E+03   -.100E-01 -.207E+02 -.144E+02   0.118E+00 0.305E+00 0.306E+00
   -.110E+00 0.353E+03 -.247E+03   0.284E-13 -.373E+03 0.261E+03   -.984E-02 0.207E+02 -.144E+02   0.118E+00 -.287E+00 0.417E+00
   -.353E+03 -.101E+00 0.247E+03   0.373E+03 0.127E-15 -.261E+03   -.207E+02 -.883E-02 0.144E+02   0.509E+00 0.108E+00 -.138E+00
   0.110E+00 -.353E+03 0.247E+03   0.568E-13 0.373E+03 -.261E+03   0.984E-02 -.207E+02 0.144E+02   -.117E+00 0.313E+00 -.195E+00
   0.353E+03 -.102E+00 0.247E+03   -.373E+03 -.662E-16 -.261E+03   0.207E+02 -.922E-02 0.144E+02   -.487E+00 0.109E+00 -.255E+00
 -----------------------------------------------------------------------------------------------
   -.148E-01 0.618E-01 0.565E-01   -.227E-12 -.569E-13 0.568E-13   -.442E-02 0.598E-02 0.848E-02   0.189E-01 -.647E-01 -.581E-01
 
 
 POSITION                                       TOTAL-FORCE (eV/Angst)
 -----------------------------------------------------------------------------------
      4.32798      2.88532      3.07873         0.002556     -0.002004     -0.001420
      0.00000      1.44266      1.02624        -0.003487      0.000332      0.002474
      1.44266      2.88532      3.07873        -0.002747     -0.003073     -0.001566
      0.00000      4.32798      1.02624        -0.001519      0.002475      0.001529
      1.44266      0.00000      7.18370        -0.000432      0.004335      0.002900
      2.88532      4.32798      5.13122         0.002421     -0.000472     -0.000152
      4.32798      0.00000      7.18370         0.001414      0.003258      0.003535
      2.88532      1.44266      5.13122         0.002579     -0.000398     -0.000949
      2.88532      1.61105      3.20805        -0.003566     -0.008126     -0.022832
      1.61105      2.88532      5.00189        -0.013586      0.002201      0.028427
      4.15959      2.88532      5.00189         0.007403      0.002193      0.028937
      0.00000      4.15959      2.94941         0.003259      0.007948      0.021695
      0.00000      1.61105      2.94941         0.003235     -0.004098      0.022352
      1.27427      2.88532      1.15557         0.008407      0.002241     -0.024331
      2.88532      4.15959      3.20805        -0.003490      0.011702     -0.022334
      4.49636      2.88532      1.15557        -0.002733      0.002317     -0.024533
      0.00000      4.49636      7.31303         0.002718     -0.008967     -0.022979
      4.49636      0.00000      0.89692        -0.003239     -0.002737      0.023778
      1.27427      0.00000      0.89692         0.008045     -0.002734      0.023425
      2.88532      1.27427      7.05438        -0.002661      0.006563      0.021387
      2.88532      4.49636      7.05438        -0.002627     -0.011879      0.021600
      4.15959      0.00000      5.26054         0.008137     -0.002537     -0.029056
      0.00000      1.27427      7.31303         0.002605      0.004051     -0.023043
      1.61105      0.00000      5.26054        -0.012690     -0.002592     -0.028845
 -----------------------------------------------------------------------------------
    total drift:                               -0.000360      0.003137      0.006838


--------------------------------------------------------------------------------------------------------



  FREE ENERGIE OF THE ION-ELECTRON SYSTEM (eV)
  ---------------------------------------------------
  free  energy   TOTEN  =      -190.91141030 eV

  energy  without entropy=     -190.91141030  energy(sigma->0) =     -190.91141030
 


--------------------------------------------------------------------------------------------------------


    POTLOK:  cpu time    0.3037: real time    0.3051


--------------------------------------------------------------------------------------------------------


     LOOP+:  cpu time  911.7590: real time  920.3192
    4ORBIT:  cpu time    0.0000: real time    0.0000
 


 total charge     
 
# of ion       s       p       d       tot
------------------------------------------
    1        0.345   6.448   4.843  11.635
    2        0.345   6.448   4.845  11.638
    3        0.345   6.448   4.851  11.645
    4        0.345   6.448   4.852  11.645
    5        0.345   6.448   4.851  11.644
    6        0.345   6.449   4.857  11.650
    7        0.345   6.448   4.844  11.636
    8        0.345   6.448   4.850  11.644
    9        1.583   3.388   0.000   4.972
   10        1.583   3.387   0.000   4.970
   11        1.583   3.388   0.000   4.971
   12        1.583   3.389   0.000   4.972
   13        1.583   3.390   0.000   4.973
   14        1.583   3.388   0.000   4.972
   15        1.583   3.388   0.000   4.971
   16        1.583   3.390   0.000   4.973
   17        1.583   3.388   0.000   4.972
   18        1.583   3.390   0.000   4.973
   19        1.583   3.388   0.000   4.972
   20        1.583   3.389   0.000   4.972
   21        1.583   3.388   0.000   4.971
   22        1.583   3.388   0.000   4.971
   23        1.583   3.389   0.000   4.973
   24        1.583   3.387   0.000   4.970
--------------------------------------------------
tot         28.092 105.800  38.792 172.684
 


 magnetization (x)
 
# of ion       s       p       d       tot
------------------------------------------
    1        0.031   0.037   2.808   2.877
    2        0.031   0.037   2.808   2.877
    3        0.031   0.037   2.808   2.877
    4        0.031   0.037   2.808   2.877
    5        0.031   0.037   2.808   2.877
    6        0.031   0.037   2.807   2.876
    7        0.031   0.037   2.808   2.877
    8        0.031   0.037   2.808   2.877
    9        0.004   0.012   0.000   0.016
   10        0.004   0.012   0.000   0.016
   11        0.004   0.012   0.000   0.016
   12        0.004   0.012   0.000   0.016
   13        0.004   0.012   0.000   0.016
   14        0.004   0.012   0.000   0.016
   15        0.004   0.012   0.000   0.016
   16        0.004   0.012   0.000   0.016
   17        0.004   0.012   0.000   0.016
   18        0.004   0.012   0.000   0.016
   19        0.004   0.012   0.000   0.016
   20        0.004   0.012   0.000   0.016
   21        0.004   0.012   0.000   0.016
   22        0.004   0.012   0.000   0.016
   23        0.004   0.012   0.000   0.016
   24        0.004   0.012   0.000   0.016
--------------------------------------------------
tot          0.308   0.491  22.464  23.262
 
 BZINTS: Fermi energy:  1.201728;200.000000 electrons
         Band energy:***********;  BLOECHL correction:  0.000000

 total amount of memory used by VASP MPI-rank0   228321. kBytes
=======================================================================

   base      :      30000. kBytes
   nonlr-proj:      10555. kBytes
   fftplans  :       8862. kBytes
   grid      :      21860. kBytes
   one-center:        373. kBytes
   wavefun   :     156671. kBytes
 
  
  
 General timing and accounting informations for this job:
 ========================================================
  
                  Total CPU time used (sec):      930.856
                            User time (sec):      919.594
                          System time (sec):       11.262
                         Elapsed time (sec):      940.906
  
                   Maximum memory used (kb):   430358528.
                   Average memory used (kb):           0.
  
                          Minor page faults:       110786
                          Major page faults:          134
                 Voluntary context switches:           33
