 vasp.5.3.5 31Mar14 (build Oct 24 2014 12:38:34) complex                        
  
 executed on             LinuxIFC date 2016.10.20  19:56:52
 running on    8 total cores
 distrk:  each k-point on    8 cores,    1 groups
 distr:  one band on NCORES_PER_BAND=   1 cores,    8 groups


--------------------------------------------------------------------------------------------------------


 INCAR:
 POTCAR:    PAW_PBE Ba_sv 06Sep2000               
 POTCAR:    PAW_PBE Ti_pv 07Sep2000               
 POTCAR:    PAW_PBE O 08Apr2002                   

 ----------------------------------------------------------------------------- 
|                                                                             |
|           W    W    AA    RRRRR   N    N  II  N    N   GGGG   !!!           |
|           W    W   A  A   R    R  NN   N  II  NN   N  G    G  !!!           |
|           W    W  A    A  R    R  N N  N  II  N N  N  G       !!!           |
|           W WW W  AAAAAA  RRRRR   N  N N  II  N  N N  G  GGG   !            |
|           WW  WW  A    A  R   R   N   NN  II  N   NN  G    G                |
|           W    W  A    A  R    R  N    N  II  N    N   GGGG   !!!           |
|                                                                             |
|      For optimal performance we recommend to set                            |
|        NCORE= 4 - approx SQRT( number of cores)                             |
|      NCORE specifies how many cores store one orbital (NPAR=cpu/NCORE).     |
|      This setting can  greatly improve the performance of VASP for DFT.     |
|      The default, NPAR=number of cores might be grossly inefficient         |
|      on modern multi-core architectures or massively parallel machines.     |
|      Do your own testing !!!!                                               |
|      Unfortunately you need to use the default for GW and RPA calculations. |
|      (for HF NCORE is supported but not extensively tested yet)             |
|                                                                             |
 ----------------------------------------------------------------------------- 

 POTCAR:    PAW_PBE Ba_sv 06Sep2000               
   VRHFIN =Ba: 5s5p6s                                                           
   LEXCH  = PE                                                                  
   EATOM  =   700.8560 eV,   51.5115 Ry                                         
                                                                                
   TITEL  = PAW_PBE Ba_sv 06Sep2000                                             
   LULTRA =        F    use ultrasoft PP ?                                      
   IUNSCR =        1    unscreen: 0-lin 1-nonlin 2-no                           
   RPACOR =    2.400    partial core radius                                     
   POMASS =  137.327; ZVAL   =   10.000    mass and valenz                      
   RCORE  =    2.800    outmost cutoff radius                                   
   RWIGS  =    3.740; RWIGS  =    1.979    wigner-seitz radius (au A)           
   ENMAX  =  187.181; ENMIN  =  140.386 eV                                      
   RCLOC  =    2.516    cutoff for local pot                                    
   LCOR   =        T    correct aug charges                                     
   LPAW   =        T    paw PP                                                  
   EAUG   =  351.165                                                            
   DEXC   =    0.000                                                            
   RMAX   =    2.865    core radius for proj-oper                               
   RAUG   =    1.300    factor for augmentation sphere                          
   RDEP   =    2.976    radius for radial grids                                 
   RDEPT  =    2.289    core radius for aug-charge                              
                                                                                
   Atomic configuration                                                         
   13 entries                                                                   
     n  l   j            E        occ.                                          
     1  0  0.50    -37249.5946   2.0000                                         
     2  0  0.50     -5887.1925   2.0000                                         
     2  1  1.50     -5278.3977   6.0000                                         
     3  0  0.50     -1242.7293   2.0000                                         
     3  1  1.50     -1047.6609   6.0000                                         
     3  2  2.50      -764.6158  10.0000                                         
     4  0  0.50      -243.8228   2.0000                                         
     4  1  1.50      -180.9218   6.0000                                         
     4  2  2.50       -89.6477  10.0000                                         
     5  0  0.50       -33.6549   2.0000                                         
     6  0  0.50        -3.2247   1.9900                                         
     5  1  1.50       -18.7193   6.0000                                         
     5  2  2.50        -2.0115   0.0100                                         
   Description                                                                  
     l       E           TYP  RCUT    TYP  RCUT                                 
     0    -33.6549039     23  2.800                                             
     0     -3.2246942     23  2.800                                             
     1    -18.7193050     23  2.700                                             
     1     27.2116520     23  2.700                                             
     2     -2.0115002     23  2.700                                             
     2      0.3057420     23  2.700                                             
  local pseudopotential read in
  partial core-charges read in
  partial kinetic energy density read in
  atomic valenz-charges read in
  non local Contribution for L=           0  read in
    real space projection operators read in
  non local Contribution for L=           0  read in
    real space projection operators read in
  non local Contribution for L=           1  read in
    real space projection operators read in
  non local Contribution for L=           1  read in
    real space projection operators read in
  non local Contribution for L=           2  read in
    real space projection operators read in
  non local Contribution for L=           2  read in
    real space projection operators read in
    PAW grid and wavefunctions read in
 
   number of l-projection  operators is LMAX  =           6
   number of lm-projection operators is LMMAX =          18
 
 POTCAR:    PAW_PBE Ti_pv 07Sep2000               
   VRHFIN =Ti: d3 s1                                                            
   LEXCH  = PE                                                                  
   EATOM  =  1042.5995 eV,   76.6289 Ry                                         
                                                                                
   TITEL  = PAW_PBE Ti_pv 07Sep2000                                             
   LULTRA =        F    use ultrasoft PP ?                                      
   IUNSCR =        1    unscreen: 0-lin 1-nonlin 2-no                           
   RPACOR =    2.200    partial core radius                                     
   POMASS =   47.880; ZVAL   =   10.000    mass and valenz                      
   RCORE  =    2.500    outmost cutoff radius                                   
   RWIGS  =    2.500; RWIGS  =    1.323    wigner-seitz radius (au A)           
   ENMAX  =  222.335; ENMIN  =  166.751 eV                                      
   RCLOC  =    1.701    cutoff for local pot                                    
   LCOR   =        T    correct aug charges                                     
   LPAW   =        T    paw PP                                                  
   EAUG   =  482.848                                                            
   DEXC   =    0.000                                                            
   RMAX   =    2.564    core radius for proj-oper                               
   RAUG   =    1.300    factor for augmentation sphere                          
   RDEP   =    2.538    radius for radial grids                                 
   RDEPT  =    1.952    core radius for aug-charge                              
                                                                                
   Atomic configuration                                                         
    8 entries                                                                   
     n  l   j            E        occ.                                          
     1  0  0.50     -4865.3608   2.0000                                         
     2  0  0.50      -533.1368   2.0000                                         
     2  1  1.50      -440.5031   6.0000                                         
     3  0  0.50       -59.3186   2.0000                                         
     3  1  1.50       -35.7012   6.0000                                         
     3  2  2.50        -1.9157   3.0000                                         
     4  0  0.50        -3.7291   1.0000                                         
     4  3  2.50        -1.3606   0.0000                                         
   Description                                                                  
     l       E           TYP  RCUT    TYP  RCUT                                 
     1    -35.7012140     23  2.300                                             
     1     -1.3605826     23  2.300                                             
     2     -1.9156996     23  2.500                                             
     2     -0.4063033     23  2.500                                             
     0     -3.7290856     23  2.500                                             
     0     20.4087390     23  2.500                                             
  local pseudopotential read in
  partial core-charges read in
  partial kinetic energy density read in
  atomic valenz-charges read in
  non local Contribution for L=           1  read in
    real space projection operators read in
  non local Contribution for L=           1  read in
    real space projection operators read in
  non local Contribution for L=           2  read in
    real space projection operators read in
  non local Contribution for L=           2  read in
    real space projection operators read in
  non local Contribution for L=           0  read in
    real space projection operators read in
  non local Contribution for L=           0  read in
    real space projection operators read in
    PAW grid and wavefunctions read in
 
   number of l-projection  operators is LMAX  =           6
   number of lm-projection operators is LMMAX =          18
 
 POTCAR:    PAW_PBE O 08Apr2002                   
   VRHFIN =O: s2p4                                                              
   LEXCH  = PE                                                                  
   EATOM  =   432.3788 eV,   31.7789 Ry                                         
                                                                                
   TITEL  = PAW_PBE O 08Apr2002                                                 
   LULTRA =        F    use ultrasoft PP ?                                      
   IUNSCR =        1    unscreen: 0-lin 1-nonlin 2-no                           
   RPACOR =    1.200    partial core radius                                     
   POMASS =   16.000; ZVAL   =    6.000    mass and valenz                      
   RCORE  =    1.520    outmost cutoff radius                                   
   RWIGS  =    1.550; RWIGS  =    0.820    wigner-seitz radius (au A)           
   ENMAX  =  400.000; ENMIN  =  300.000 eV                                      
   ICORE  =        2    local potential                                         
   LCOR   =        T    correct aug charges                                     
   LPAW   =        T    paw PP                                                  
   EAUG   =  605.392                                                            
   DEXC   =    0.000                                                            
   RMAX   =    1.553    core radius for proj-oper                               
   RAUG   =    1.300    factor for augmentation sphere                          
   RDEP   =    1.550    radius for radial grids                                 
   RDEPT  =    1.329    core radius for aug-charge                              
                                                                                
   Atomic configuration                                                         
    4 entries                                                                   
     n  l   j            E        occ.                                          
     1  0  0.50      -514.6923   2.0000                                         
     2  0  0.50       -23.9615   2.0000                                         
     2  1  0.50        -9.0305   4.0000                                         
     3  2  1.50        -9.5241   0.0000                                         
   Description                                                                  
     l       E           TYP  RCUT    TYP  RCUT                                 
     0    -23.9615318     23  1.200                                             
     0     -9.5240782     23  1.200                                             
     1     -9.0304911     23  1.520                                             
     1      8.1634956     23  1.520                                             
     2     -9.5240782      7  1.500                                             
  local pseudopotential read in
  partial core-charges read in
  partial kinetic energy density read in
  kinetic energy density of atom read in
  atomic valenz-charges read in
  non local Contribution for L=           0  read in
    real space projection operators read in
  non local Contribution for L=           0  read in
    real space projection operators read in
  non local Contribution for L=           1  read in
    real space projection operators read in
  non local Contribution for L=           1  read in
    real space projection operators read in
    PAW grid and wavefunctions read in
 
   number of l-projection  operators is LMAX  =           4
   number of lm-projection operators is LMMAX =           8
 

 ----------------------------------------------------------------------------- 
|                                                                             |
|  ADVICE TO THIS USER RUNNING 'VASP/VAMP'   (HEAR YOUR MASTER'S VOICE ...):  |
|                                                                             |
|      You have a (more or less) 'small supercell' and for smaller cells      |
|      it is recommended  to use the reciprocal-space projection scheme!      |
|      The real space optimization is not  efficient for small cells and it   |
|      is also less accurate ...                                              |
|      Therefore set LREAL=.FALSE. in the  INCAR file                         |
|                                                                             |
 ----------------------------------------------------------------------------- 

 Optimization of the real space projectors (new method)

 maximal supplied QI-value         = 13.42
 optimisation between [QCUT,QGAM] = [ 11.67, 23.35] = [ 38.16,152.62] Ry 
 Optimized for a Real-space Cutoff    1.68 Angstroem

   l    n(q)    QCUT    max X(q) W(low)/X(q) W(high)/X(q)  e(spline) 
   0     12    11.673    13.244    0.27E-04    0.53E-05    0.55E-07
   0     12    11.673    14.240    0.39E-04    0.74E-05    0.11E-06
   1     11    11.673     4.828    0.65E-05    0.14E-04    0.51E-07
   1     11    11.673     3.934    0.16E-04    0.58E-04    0.38E-06
   2     11    11.673    87.714    0.23E-03    0.16E-03    0.84E-06
   2     11    11.673    59.874    0.22E-03    0.15E-03    0.81E-06
 Optimization of the real space projectors (new method)

 maximal supplied QI-value         = 15.12
 optimisation between [QCUT,QGAM] = [ 11.64, 23.28] = [ 37.95,151.78] Ry 
 Optimized for a Real-space Cutoff    1.49 Angstroem

   l    n(q)    QCUT    max X(q) W(low)/X(q) W(high)/X(q)  e(spline) 
   1     10    11.641     4.216    0.17E-04    0.40E-04    0.50E-07
   1     10    11.641     5.422    0.66E-04    0.10E-03    0.13E-06
   2      9    11.641    72.084    0.68E-04    0.13E-03    0.50E-06
   2      9    11.641    65.965    0.66E-04    0.13E-03    0.50E-06
   0     10    11.641    41.531    0.10E-03    0.87E-04    0.31E-06
   0     10    11.641    16.290    0.75E-04    0.66E-04    0.24E-06
 Optimization of the real space projectors (new method)

 maximal supplied QI-value         = 24.76
 optimisation between [QCUT,QGAM] = [ 11.64, 23.27] = [ 37.91,151.63] Ry 
 Optimized for a Real-space Cutoff    1.14 Angstroem

   l    n(q)    QCUT    max X(q) W(low)/X(q) W(high)/X(q)  e(spline) 
   0      8    11.635    20.381    0.10E-03    0.33E-03    0.24E-06
   0      8    11.635    15.268    0.11E-03    0.35E-03    0.26E-06
   1      7    11.635     5.964    0.24E-03    0.31E-03    0.30E-06
   1      7    11.635     5.382    0.22E-03    0.25E-03    0.26E-06
  PAW_PBE Ba_sv 06Sep2000               :
 energy of atom  1       EATOM= -700.8560
 kinetic energy error for atom=    0.0005 (will be added to EATOM!!)
  PAW_PBE Ti_pv 07Sep2000               :
 energy of atom  2       EATOM=-1042.5995
 kinetic energy error for atom=    0.0019 (will be added to EATOM!!)
  PAW_PBE O 08Apr2002                   :
 energy of atom  3       EATOM= -432.3788
 kinetic energy error for atom=    0.0208 (will be added to EATOM!!)
 
 
 POSCAR: Ba1 Ti1 O3                              
  positions in direct lattice
  velocities in cartesian coordinates
 exchange correlation table for  LEXCH =        8
   RHO(1)=    0.500       N(1)  =     2000
   RHO(2)=  100.500       N(2)  =     4000
 


--------------------------------------------------------------------------------------------------------


 ion  position               nearest neighbor table
   1  0.000  0.000  0.005-   3 2.85   4 2.85   3 2.85   4 2.85   5 2.85   5 2.85   5 2.85   5 2.85
                             3 2.87   4 2.87   4 2.87   3 2.87   2 3.49   2 3.49   2 3.49   2 3.49
   2  0.500  0.500  0.507-   5 2.00   4 2.01   3 2.01   4 2.01   3 2.01   5 2.06   1 3.49   1 3.49
                             1 3.49   1 3.49   1 3.50   1 3.50   1 3.50   1 3.50
   3  0.000  0.500  0.502-   2 2.01   2 2.01   1 2.85   1 2.85   1 2.87   1 2.87
   4  0.500  0.000  0.502-   2 2.01   2 2.01   1 2.85   1 2.85   1 2.87   1 2.87
   5  0.500  0.500  0.999-   2 2.00   2 2.06   1 2.85   1 2.85   1 2.85   1 2.85
 
  LATTYP: Found a simple tetragonal cell.
 ALAT       =     4.0295240000
 C/A-ratio  =     1.0059113682
  
  Lattice vectors:
  
 A1 = (   4.0295240000,   0.0000000000,   0.0000000000)
 A2 = (   0.0000000000,   4.0295240000,   0.0000000000)
 A3 = (   0.0000000000,   0.0000000000,   4.0533440000)


Analysis of symmetry for initial positions (statically):
=====================================================================
 Subroutine PRICEL returns:
 Original cell was already a primitive cell.
 

 Routine SETGRP: Setting up the symmetry group for a 
 simple tetragonal supercell.


 Subroutine GETGRP returns: Found  8 space group operations
 (whereof  8 operations were pure point group operations)
 out of a pool of 16 trial point group operations.


The static configuration has the point symmetry C_4v.


Analysis of symmetry for dynamics (positions and initial velocities):
=====================================================================
 Subroutine PRICEL returns:
 Original cell was already a primitive cell.
 

 Routine SETGRP: Setting up the symmetry group for a 
 simple tetragonal supercell.


 Subroutine GETGRP returns: Found  8 space group operations
 (whereof  8 operations were pure point group operations)
 out of a pool of 16 trial point group operations.


The dynamic configuration has the point symmetry C_4v.


Analysis of magnetic symmetry:
=====================================================================
 Subroutine PRICEL returns:
 Original cell was already a primitive cell.
 

 Subroutine MAGSYM returns: Found  8 space group operations
 (whereof  8 operations were pure point group operations)
 out of a pool of  8 trial space group operations
 (whereof  8 operations were pure point group operations)
 and found also     1 'primitive' translations


The magnetic configuration has the point symmetry C_4v.
 
 
 KPOINTS: pymatgen generated KPOINTS with grid den

Automatic generation of k-mesh.
Space group operators:
 irot       det(A)        alpha          n_x          n_y          n_z        tau_x        tau_y        tau_z
    1     1.000000     0.000000     1.000000     0.000000     0.000000     0.000000     0.000000     0.000000
    2     1.000000    90.000000     0.000000     0.000000    -1.000000     0.000000     0.000000     0.000000
    3     1.000000   179.999999     0.000000     0.000000     1.000000     0.000000     0.000000     0.000000
    4     1.000000    90.000000     0.000000     0.000000     1.000000     0.000000     0.000000     0.000000
    5    -1.000000   180.000000     0.000000     1.000000     0.000000     0.000000     0.000000     0.000000
    6    -1.000000   180.000000     0.707107     0.707107     0.000000     0.000000     0.000000     0.000000
    7    -1.000000   180.000000     1.000000     0.000000     0.000000     0.000000     0.000000     0.000000
    8    -1.000000   180.000000     0.707107    -0.707107     0.000000     0.000000     0.000000     0.000000
 
 Subroutine IBZKPT returns following result:
 ===========================================
 
 Found     40 irreducible k-points:
 
 Following reciprocal coordinates:
            Coordinates               Weight
  0.062500  0.062500  0.062500      8.000000
  0.187500  0.062500  0.062500     16.000000
  0.312500  0.062500  0.062500     16.000000
  0.437500  0.062500  0.062500     16.000000
  0.187500  0.187500  0.062500      8.000000
  0.312500  0.187500  0.062500     16.000000
  0.437500  0.187500  0.062500     16.000000
  0.312500  0.312500  0.062500      8.000000
  0.437500  0.312500  0.062500     16.000000
  0.437500  0.437500  0.062500      8.000000
  0.062500  0.062500  0.187500      8.000000
  0.187500  0.062500  0.187500     16.000000
  0.312500  0.062500  0.187500     16.000000
  0.437500  0.062500  0.187500     16.000000
  0.187500  0.187500  0.187500      8.000000
  0.312500  0.187500  0.187500     16.000000
  0.437500  0.187500  0.187500     16.000000
  0.312500  0.312500  0.187500      8.000000
  0.437500  0.312500  0.187500     16.000000
  0.437500  0.437500  0.187500      8.000000
  0.062500  0.062500  0.312500      8.000000
  0.187500  0.062500  0.312500     16.000000
  0.312500  0.062500  0.312500     16.000000
  0.437500  0.062500  0.312500     16.000000
  0.187500  0.187500  0.312500      8.000000
  0.312500  0.187500  0.312500     16.000000
  0.437500  0.187500  0.312500     16.000000
  0.312500  0.312500  0.312500      8.000000
  0.437500  0.312500  0.312500     16.000000
  0.437500  0.437500  0.312500      8.000000
  0.062500  0.062500  0.437500      8.000000
  0.187500  0.062500  0.437500     16.000000
  0.312500  0.062500  0.437500     16.000000
  0.437500  0.062500  0.437500     16.000000
  0.187500  0.187500  0.437500      8.000000
  0.312500  0.187500  0.437500     16.000000
  0.437500  0.187500  0.437500     16.000000
  0.312500  0.312500  0.437500      8.000000
  0.437500  0.312500  0.437500     16.000000
  0.437500  0.437500  0.437500      8.000000
 
 Following cartesian coordinates:
            Coordinates               Weight
  0.015511  0.015511  0.015419      8.000000
  0.046532  0.015511  0.015419     16.000000
  0.077553  0.015511  0.015419     16.000000
  0.108574  0.015511  0.015419     16.000000
  0.046532  0.046532  0.015419      8.000000
  0.077553  0.046532  0.015419     16.000000
  0.108574  0.046532  0.015419     16.000000
  0.077553  0.077553  0.015419      8.000000
  0.108574  0.077553  0.015419     16.000000
  0.108574  0.108574  0.015419      8.000000
  0.015511  0.015511  0.046258      8.000000
  0.046532  0.015511  0.046258     16.000000
  0.077553  0.015511  0.046258     16.000000
  0.108574  0.015511  0.046258     16.000000
  0.046532  0.046532  0.046258      8.000000
  0.077553  0.046532  0.046258     16.000000
  0.108574  0.046532  0.046258     16.000000
  0.077553  0.077553  0.046258      8.000000
  0.108574  0.077553  0.046258     16.000000
  0.108574  0.108574  0.046258      8.000000
  0.015511  0.015511  0.077097      8.000000
  0.046532  0.015511  0.077097     16.000000
  0.077553  0.015511  0.077097     16.000000
  0.108574  0.015511  0.077097     16.000000
  0.046532  0.046532  0.077097      8.000000
  0.077553  0.046532  0.077097     16.000000
  0.108574  0.046532  0.077097     16.000000
  0.077553  0.077553  0.077097      8.000000
  0.108574  0.077553  0.077097     16.000000
  0.108574  0.108574  0.077097      8.000000
  0.015511  0.015511  0.107936      8.000000
  0.046532  0.015511  0.107936     16.000000
  0.077553  0.015511  0.107936     16.000000
  0.108574  0.015511  0.107936     16.000000
  0.046532  0.046532  0.107936      8.000000
  0.077553  0.046532  0.107936     16.000000
  0.108574  0.046532  0.107936     16.000000
  0.077553  0.077553  0.107936      8.000000
  0.108574  0.077553  0.107936     16.000000
  0.108574  0.108574  0.107936      8.000000
 
 TETIRR: Found    703 inequivalent tetrahedra from     3072


--------------------------------------------------------------------------------------------------------




 Dimension of arrays:
   k-points           NKPTS =     40   k-points in BZ     NKDIM =     40   number of bands    NBANDS=     32
   number of dos      NEDOS =    301   number of ions     NIONS =      5
   non local maximal  LDIM  =      6   non local SUM 2l+1 LMDIM =     18
   total plane-waves  NPLWV =  27000
   max r-space proj   IRMAX =   8140   max aug-charges    IRDMAX=  25876
   dimension x,y,z NGX =    30 NGY =   30 NGZ =   30
   dimension x,y,z NGXF=    60 NGYF=   60 NGZF=   60
   support grid    NGXF=    60 NGYF=   60 NGZF=   60
   ions per type =               1   1   3
 NGX,Y,Z   is equivalent  to a cutoff of  12.38, 12.38, 12.30 a.u.
 NGXF,Y,Z  is equivalent  to a cutoff of  24.75, 24.75, 24.61 a.u.


 I would recommend the setting:
   dimension x,y,z NGX =    30 NGY =   30 NGZ =   30
 SYSTEM =  unknown system                          
 POSCAR =  Ba1 Ti1 O3                              

 Startparameter for this run:
   NWRITE =      2    write-flag & timer
   PREC   = accura    normal or accurate (medium, high low for compatibility)
   ISTART =      0    job   : 0-new  1-cont  2-samecut
   ICHARG =      0    charge: 1-file 2-atom 10-const
   ISPIN  =      2    spin polarized calculation?
   LNONCOLLINEAR =      F non collinear calculations
   LSORBIT =      F    spin-orbit coupling
   INIWAV =      1    electr: 0-lowe 1-rand  2-diag
   LASPH  =      F    aspherical Exc in radial PAW
   METAGGA=      F    non-selfconsistent MetaGGA calc.

 Electronic Relaxation 1
   ENCUT  =  520.0 eV  38.22 Ry    6.18 a.u.   7.49  7.49  7.54*2*pi/ulx,y,z
   ENINI  =  520.0     initial cutoff
   ENAUG  =  605.4 eV  augmentation charge cutoff
   NELM   =    100;   NELMIN=  2; NELMDL= -5     # of ELM steps 
   EDIFF  = 0.3E-03   stopping-criterion for ELM
   LREAL  =      T    real-space projection
   NLSPLINE    = F    spline interpolate recip. space projectors
   LCOMPAT=      F    compatible to vasp.4.4
   GGA_COMPAT  = T    GGA compatible to vasp.4.4-vasp.4.6
   LMAXPAW     = -100 max onsite density
   LMAXMIX     =    2 max onsite mixed and CHGCAR
   VOSKOWN=      0    Vosko Wilk Nusair interpolation
   ROPT   =   -0.00025  -0.00025  -0.00025
 Ionic relaxation
   EDIFFG = 0.3E-02   stopping-criterion for IOM
   NSW    =      0    number of steps for IOM
   NBLOCK =      1;   KBLOCK =      1    inner block; outer block 
   IBRION =     -1    ionic relax: 0-MD 1-quasi-New 2-CG
   NFREE  =      0    steps in history (QN), initial steepest desc. (CG)
   ISIF   =      3    stress and relaxation
   IWAVPR =     10    prediction:  0-non 1-charg 2-wave 3-comb
   ISYM   =      2    0-nonsym 1-usesym 2-fastsym
   LCORR  =      T    Harris-Foulkes like correction to forces

   POTIM  = 0.5000    time-step for ionic-motion
   TEIN   =    0.0    initial temperature
   TEBEG  =    0.0;   TEEND  =   0.0 temperature during run
   SMASS  =  -3.00    Nose mass-parameter (am)
   estimated Nose-frequenzy (Omega)   =  0.10E-29 period in steps =****** mass=  -0.371E-27a.u.
   SCALEE = 1.0000    scale energy and forces
   NPACO  =    256;   APACO  = 16.0  distance and # of slots for P.C.
   PSTRESS=    0.0 pullay stress

  Mass of Ions in am
   POMASS = 137.33 47.88 16.00
  Ionic Valenz
   ZVAL   =  10.00 10.00  6.00
  Atomic Wigner-Seitz radii
   RWIGS  =  -1.00 -1.00 -1.00
  virtual crystal weights 
   VCA    =   1.00  1.00  1.00
   NELECT =      38.0000    total number of electrons
   NUPDOWN=      -1.0000    fix difference up-down

 DOS related values:
   EMIN   =  10.00;   EMAX   =-10.00  energy-range for DOS
   EFERMI =   0.00
   ISMEAR =    -5;   SIGMA  =   0.05  broadening in eV -4-tet -1-fermi 0-gaus

 Electronic relaxation 2 (details)
   IALGO  =     38    algorithm
   LDIAG  =      T    sub-space diagonalisation (order eigenvalues)
   LSUBROT=      F    optimize rotation matrix (better conditioning)
   TURBO    =      0    0=normal 1=particle mesh
   IRESTART =      0    0=no restart 2=restart with 2 vectors
   NREBOOT  =      0    no. of reboots
   NMIN     =      0    reboot dimension
   EREF     =   0.00    reference energy to select bands
   IMIX   =      4    mixing-type and parameters
     AMIX     =   0.40;   BMIX     =  1.00
     AMIX_MAG =   1.60;   BMIX_MAG =  1.00
     AMIN     =   0.10
     WC   =   100.;   INIMIX=   1;  MIXPRE=   1;  MAXMIX= -45

 Intra band minimization:
   WEIMIN = 0.0000     energy-eigenvalue tresh-hold
   EBREAK =  0.20E-05  absolut break condition
   DEPER  =   0.30     relativ break condition  

   TIME   =   0.40     timestep for ELM

  volume/ion in A,a.u.               =      13.16        88.83
  Fermi-wavevector in a.u.,A,eV,Ry     =   1.363209  2.576091 25.284226  1.858338
  Thomas-Fermi vector in A             =   2.489632
 
 Write flags
   LWAVE  =      T    write WAVECAR
   LCHARG =      T    write CHGCAR
   LVTOT  =      F    write LOCPOT, total local potential
   LVHAR  =      T    write LOCPOT, Hartree potential only
   LELF   =      F    write electronic localiz. function (ELF)
   LORBIT =     11    0 simple, 1 ext, 2 COOP (PROOUT)


 Dipole corrections
   LMONO  =      F    monopole corrections only (constant potential shift)
   LDIPOL =      F    correct potential (dipole corrections)
   IDIPOL =      0    1-x, 2-y, 3-z, 4-all directions 
   EPSILON=  1.0000000 bulk dielectric constant

 Exchange correlation treatment:
   GGA     =    --    GGA type
   LEXCH   =     8    internal setting for exchange type
   VOSKOWN=      0    Vosko Wilk Nusair interpolation
   LHFCALC =     F    Hartree Fock is set to
   LHFONE  =     F    Hartree Fock one center treatment
   AEXX    =    0.0000 exact exchange contribution

 Linear response parameters
   LEPSILON=     F    determine dielectric tensor
   LRPA    =     F    only Hartree local field effects (RPA)
   LNABLA  =     F    use nabla operator in PAW spheres
   LVEL    =     F    velocity operator in full k-point grid
   LINTERFAST=   F  fast interpolation
   KINTER  =     0    interpolate to denser k-point grid
   CSHIFT  =0.1000    complex shift for real part using Kramers Kronig
   OMEGAMAX=  -1.0    maximum frequency
   DEG_THRESHOLD= 0.2000000E-02 threshold for treating states as degnerate
   RTIME   =    0.100 relaxation time in fs

 Orbital magnetization related:
   ORBITALMAG=     F  switch on orbital magnetization
   LCHIMAG   =     F  perturbation theory with respect to B field
   DQ        =  0.001000  dq finite difference perturbation B field



--------------------------------------------------------------------------------------------------------


 Static calculation
 charge density and potential will be updated during run
 spin polarized calculation
 Variant of blocked Davidson
 Davidson routine will perform the subspace rotation
 perform sub-space diagonalisation
    after iterative eigenvector-optimisation
 modified Broyden-mixing scheme, WC =      100.0
 initial mixing is a Kerker type mixing with AMIX =  0.4000 and BMIX =      1.0000
 Hartree-type preconditioning will be used
 using additional bands           13
 real space projection scheme for non local part
 use partial core corrections
 calculate Harris-corrections to forces 
   (improved forces if not selfconsistent)
 use gradient corrections 
 use of overlap-Matrix (Vanderbilt PP)
 Fermi weights with tetrahedron method with Bloechl corrections


--------------------------------------------------------------------------------------------------------


  energy-cutoff  :      520.00
  volume of cell :       65.81
      direct lattice vectors                 reciprocal lattice vectors
     4.029524000  0.000000000  0.000000000     0.248168270  0.000000000  0.000000000
     0.000000000  4.029524000  0.000000000     0.000000000  0.248168270  0.000000000
     0.000000000  0.000000000  4.053344000     0.000000000  0.000000000  0.246709877

  length of vectors
     4.029524000  4.029524000  4.053344000     0.248168270  0.248168270  0.246709877


 
 k-points in units of 2pi/SCALE and weight: pymatgen generated KPOINTS with grid den
   0.01551052  0.01551052  0.01541937       0.016
   0.04653155  0.01551052  0.01541937       0.031
   0.07755258  0.01551052  0.01541937       0.031
   0.10857362  0.01551052  0.01541937       0.031
   0.04653155  0.04653155  0.01541937       0.016
   0.07755258  0.04653155  0.01541937       0.031
   0.10857362  0.04653155  0.01541937       0.031
   0.07755258  0.07755258  0.01541937       0.016
   0.10857362  0.07755258  0.01541937       0.031
   0.10857362  0.10857362  0.01541937       0.016
   0.01551052  0.01551052  0.04625810       0.016
   0.04653155  0.01551052  0.04625810       0.031
   0.07755258  0.01551052  0.04625810       0.031
   0.10857362  0.01551052  0.04625810       0.031
   0.04653155  0.04653155  0.04625810       0.016
   0.07755258  0.04653155  0.04625810       0.031
   0.10857362  0.04653155  0.04625810       0.031
   0.07755258  0.07755258  0.04625810       0.016
   0.10857362  0.07755258  0.04625810       0.031
   0.10857362  0.10857362  0.04625810       0.016
   0.01551052  0.01551052  0.07709684       0.016
   0.04653155  0.01551052  0.07709684       0.031
   0.07755258  0.01551052  0.07709684       0.031
   0.10857362  0.01551052  0.07709684       0.031
   0.04653155  0.04653155  0.07709684       0.016
   0.07755258  0.04653155  0.07709684       0.031
   0.10857362  0.04653155  0.07709684       0.031
   0.07755258  0.07755258  0.07709684       0.016
   0.10857362  0.07755258  0.07709684       0.031
   0.10857362  0.10857362  0.07709684       0.016
   0.01551052  0.01551052  0.10793557       0.016
   0.04653155  0.01551052  0.10793557       0.031
   0.07755258  0.01551052  0.10793557       0.031
   0.10857362  0.01551052  0.10793557       0.031
   0.04653155  0.04653155  0.10793557       0.016
   0.07755258  0.04653155  0.10793557       0.031
   0.10857362  0.04653155  0.10793557       0.031
   0.07755258  0.07755258  0.10793557       0.016
   0.10857362  0.07755258  0.10793557       0.031
   0.10857362  0.10857362  0.10793557       0.016
 
 k-points in reciprocal lattice and weights: pymatgen generated KPOINTS with grid den
   0.06250000  0.06250000  0.06250000       0.016
   0.18750000  0.06250000  0.06250000       0.031
   0.31250000  0.06250000  0.06250000       0.031
   0.43750000  0.06250000  0.06250000       0.031
   0.18750000  0.18750000  0.06250000       0.016
   0.31250000  0.18750000  0.06250000       0.031
   0.43750000  0.18750000  0.06250000       0.031
   0.31250000  0.31250000  0.06250000       0.016
   0.43750000  0.31250000  0.06250000       0.031
   0.43750000  0.43750000  0.06250000       0.016
   0.06250000  0.06250000  0.18750000       0.016
   0.18750000  0.06250000  0.18750000       0.031
   0.31250000  0.06250000  0.18750000       0.031
   0.43750000  0.06250000  0.18750000       0.031
   0.18750000  0.18750000  0.18750000       0.016
   0.31250000  0.18750000  0.18750000       0.031
   0.43750000  0.18750000  0.18750000       0.031
   0.31250000  0.31250000  0.18750000       0.016
   0.43750000  0.31250000  0.18750000       0.031
   0.43750000  0.43750000  0.18750000       0.016
   0.06250000  0.06250000  0.31250000       0.016
   0.18750000  0.06250000  0.31250000       0.031
   0.31250000  0.06250000  0.31250000       0.031
   0.43750000  0.06250000  0.31250000       0.031
   0.18750000  0.18750000  0.31250000       0.016
   0.31250000  0.18750000  0.31250000       0.031
   0.43750000  0.18750000  0.31250000       0.031
   0.31250000  0.31250000  0.31250000       0.016
   0.43750000  0.31250000  0.31250000       0.031
   0.43750000  0.43750000  0.31250000       0.016
   0.06250000  0.06250000  0.43750000       0.016
   0.18750000  0.06250000  0.43750000       0.031
   0.31250000  0.06250000  0.43750000       0.031
   0.43750000  0.06250000  0.43750000       0.031
   0.18750000  0.18750000  0.43750000       0.016
   0.31250000  0.18750000  0.43750000       0.031
   0.43750000  0.18750000  0.43750000       0.031
   0.31250000  0.31250000  0.43750000       0.016
   0.43750000  0.31250000  0.43750000       0.031
   0.43750000  0.43750000  0.43750000       0.016
 
 position of ions in fractional coordinates (direct lattice) 
   0.00000000  0.00000000  0.00474100
   0.50000000  0.50000000  0.50680600
   0.00000000  0.50000000  0.50160200
   0.50000000  0.00000000  0.50160200
   0.50000000  0.50000000  0.99924800
 
 position of ions in cartesian coordinates  (Angst):
   0.00000000  0.00000000  0.01921690
   2.01476200  2.01476200  2.05425906
   0.00000000  2.01476200  2.03316546
   2.01476200  0.00000000  2.03316546
   2.01476200  2.01476200  4.05029589
 


--------------------------------------------------------------------------------------------------------


 k-point  1 :   0.0625 0.0625 0.0625  plane waves:    1790
 k-point  2 :   0.1875 0.0625 0.0625  plane waves:    1785
 k-point  3 :   0.3125 0.0625 0.0625  plane waves:    1774
 k-point  4 :   0.4375 0.0625 0.0625  plane waves:    1774
 k-point  5 :   0.1875 0.1875 0.0625  plane waves:    1782
 k-point  6 :   0.3125 0.1875 0.0625  plane waves:    1777
 k-point  7 :   0.4375 0.1875 0.0625  plane waves:    1777
 k-point  8 :   0.3125 0.3125 0.0625  plane waves:    1774
 k-point  9 :   0.4375 0.3125 0.0625  plane waves:    1766
 k-point 10 :   0.4375 0.4375 0.0625  plane waves:    1758
 k-point 11 :   0.0625 0.0625 0.1875  plane waves:    1790
 k-point 12 :   0.1875 0.0625 0.1875  plane waves:    1784
 k-point 13 :   0.3125 0.0625 0.1875  plane waves:    1780
 k-point 14 :   0.4375 0.0625 0.1875  plane waves:    1771
 k-point 15 :   0.1875 0.1875 0.1875  plane waves:    1781
 k-point 16 :   0.3125 0.1875 0.1875  plane waves:    1777
 k-point 17 :   0.4375 0.1875 0.1875  plane waves:    1766
 k-point 18 :   0.3125 0.3125 0.1875  plane waves:    1772
 k-point 19 :   0.4375 0.3125 0.1875  plane waves:    1762
 k-point 20 :   0.4375 0.4375 0.1875  plane waves:    1760
 k-point 21 :   0.0625 0.0625 0.3125  plane waves:    1777
 k-point 22 :   0.1875 0.0625 0.3125  plane waves:    1779
 k-point 23 :   0.3125 0.0625 0.3125  plane waves:    1779
 k-point 24 :   0.4375 0.0625 0.3125  plane waves:    1768
 k-point 25 :   0.1875 0.1875 0.3125  plane waves:    1774
 k-point 26 :   0.3125 0.1875 0.3125  plane waves:    1770
 k-point 27 :   0.4375 0.1875 0.3125  plane waves:    1768
 k-point 28 :   0.3125 0.3125 0.3125  plane waves:    1772
 k-point 29 :   0.4375 0.3125 0.3125  plane waves:    1770
 k-point 30 :   0.4375 0.4375 0.3125  plane waves:    1770
 k-point 31 :   0.0625 0.0625 0.4375  plane waves:    1777
 k-point 32 :   0.1875 0.0625 0.4375  plane waves:    1772
 k-point 33 :   0.3125 0.0625 0.4375  plane waves:    1762
 k-point 34 :   0.4375 0.0625 0.4375  plane waves:    1755
 k-point 35 :   0.1875 0.1875 0.4375  plane waves:    1771
 k-point 36 :   0.3125 0.1875 0.4375  plane waves:    1768
 k-point 37 :   0.4375 0.1875 0.4375  plane waves:    1759
 k-point 38 :   0.3125 0.3125 0.4375  plane waves:    1764
 k-point 39 :   0.4375 0.3125 0.4375  plane waves:    1773
 k-point 40 :   0.4375 0.4375 0.4375  plane waves:    1780

 maximum and minimum number of plane-waves per node :      1790     1755

 maximum number of plane-waves:      1790
 maximum index in each direction: 
   IXMAX=    7   IYMAX=    7   IZMAX=    7
   IXMIN=   -7   IYMIN=   -7   IZMIN=   -7

 NGX is ok and might be reduce to  30
 NGY is ok and might be reduce to  30
 NGZ is ok and might be reduce to  30

 serial   3D FFT for wavefunctions
 parallel 3D FFT for charge:
    minimum data exchange during FFTs selected (reduces bandwidth)


 total amount of memory used by VASP on root node    48889. kBytes
========================================================================

   base      :      30000. kBytes
   nonlr-proj:       3344. kBytes
   fftplans  :       1096. kBytes
   grid      :       4792. kBytes
   one-center:        155. kBytes
   wavefun   :       9502. kBytes
 
     INWAV:  cpu time    0.00: real time    0.00
 Broyden mixing: mesh for mixing (old mesh)
   NGX = 15   NGY = 15   NGZ = 15
  (NGX  = 60   NGY  = 60   NGZ  = 60)
  gives a total of   3375 points

 charge density for first step will be calculated from the start-wavefunctions


--------------------------------------------------------------------------------------------------------


 Maximum index for non-local projection operator         7893
 Maximum index for augmentation-charges         3649 (set IRDMAX)


--------------------------------------------------------------------------------------------------------


 initial charge from wavefunction
 First call to EWALD:  gamma=   0.439
 Maximum number of real-space cells 3x 3x 3
 Maximum number of reciprocal cells 3x 3x 3

 FEWALD executed in parallel
    FEWALD:  cpu time    0.00: real time    0.00


----------------------------------------- Iteration    1(   1)  ---------------------------------------


    POTLOK:  cpu time    0.08: real time    0.08
    SETDIJ:  cpu time    0.02: real time    0.02
     EDDAV:  cpu time    9.50: real time    9.50
 BZINTS: Fermi energy:-24.207690; 38.000000 electrons
         Band energy:***********;  BLOECHL correction: -0.746366
       DOS:  cpu time    0.10: real time    0.10
    --------------------------------------------
      LOOP:  cpu time    9.70: real time    9.70

 eigenvalue-minimisations  :  6216
 total energy-change (2. order) :-0.8742853E+03  (-0.3379999E+04)
 number of electron      37.9999998 magnetization       0.0000000
 augmentation part       -1.2601564 magnetization      -0.0155956

 Free energy of the ion-electron system (eV)
  ---------------------------------------------------
  alpha Z        PSCENC =       254.59835865
  Ewald energy   TEWEN  =     -2504.15942190
  -Hartree energ DENC   =       -63.66679970
  -exchange      EXHF   =         0.00000000
  -V(xc)+E(xc)   XCENC  =       116.01282396
  PAW double counting   =    118631.88560498  -118631.40715284
  entropy T*S    EENTRO =         0.00000000
  eigenvalues    EBANDS =     -1718.07578133
  atomic energy  EATOM  =      3040.52701931
  ---------------------------------------------------
  free energy    TOTEN  =      -874.28534887 eV

  energy without entropy =     -874.28534887  energy(sigma->0) =     -874.28534887


--------------------------------------------------------------------------------------------------------




----------------------------------------- Iteration    1(   2)  ---------------------------------------


     EDDAV:  cpu time    8.56: real time    8.68
 BZINTS: Fermi energy:-42.125427; 38.000000 electrons
         Band energy:***********;  BLOECHL correction: -0.032917
       DOS:  cpu time    0.11: real time    0.11
    --------------------------------------------
      LOOP:  cpu time    8.67: real time    8.80

 eigenvalue-minimisations  :  5240
 total energy-change (2. order) :-0.4175113E+03  (-0.4011063E+03)
 number of electron      37.9999998 magnetization       0.0000000
 augmentation part       -1.2601564 magnetization      -0.0155956

 Free energy of the ion-electron system (eV)
  ---------------------------------------------------
  alpha Z        PSCENC =       254.59835865
  Ewald energy   TEWEN  =     -2504.15942190
  -Hartree energ DENC   =       -63.66679970
  -exchange      EXHF   =         0.00000000
  -V(xc)+E(xc)   XCENC  =       116.01282396
  PAW double counting   =    118631.88560498  -118631.40715284
  entropy T*S    EENTRO =         0.00000000
  eigenvalues    EBANDS =     -2135.58709413
  atomic energy  EATOM  =      3040.52701931
  ---------------------------------------------------
  free energy    TOTEN  =     -1291.79666167 eV

  energy without entropy =    -1291.79666167  energy(sigma->0) =    -1291.79666167


--------------------------------------------------------------------------------------------------------




----------------------------------------- Iteration    1(   3)  ---------------------------------------


     EDDAV:  cpu time    9.84: real time    9.85
 BZINTS: Fermi energy:-42.602352; 38.000000 electrons
         Band energy:***********;  BLOECHL correction:  0.000000
       DOS:  cpu time    0.01: real time    0.01
    --------------------------------------------
      LOOP:  cpu time    9.86: real time    9.87

 eigenvalue-minimisations  :  6176
 total energy-change (2. order) :-0.2520765E+02  (-0.2496692E+02)
 number of electron      37.9999998 magnetization       0.0000000
 augmentation part       -1.2601564 magnetization      -0.0155956

 Free energy of the ion-electron system (eV)
  ---------------------------------------------------
  alpha Z        PSCENC =       254.59835865
  Ewald energy   TEWEN  =     -2504.15942190
  -Hartree energ DENC   =       -63.66679970
  -exchange      EXHF   =         0.00000000
  -V(xc)+E(xc)   XCENC  =       116.01282396
  PAW double counting   =    118631.88560498  -118631.40715284
  entropy T*S    EENTRO =         0.00000000
  eigenvalues    EBANDS =     -2160.79474804
  atomic energy  EATOM  =      3040.52701931
  ---------------------------------------------------
  free energy    TOTEN  =     -1317.00431558 eV

  energy without entropy =    -1317.00431558  energy(sigma->0) =    -1317.00431558


--------------------------------------------------------------------------------------------------------




----------------------------------------- Iteration    1(   4)  ---------------------------------------


     EDDAV:  cpu time   11.11: real time   11.11
 BZINTS: Fermi energy:-42.580044; 38.000000 electrons
         Band energy:***********;  BLOECHL correction:  0.000000
       DOS:  cpu time    0.02: real time    0.02
    --------------------------------------------
      LOOP:  cpu time   11.14: real time   11.14

 eigenvalue-minimisations  :  7008
 total energy-change (2. order) :-0.8144092E+00  (-0.8141075E+00)
 number of electron      37.9999998 magnetization       0.0000000
 augmentation part       -1.2601564 magnetization      -0.0155956

 Free energy of the ion-electron system (eV)
  ---------------------------------------------------
  alpha Z        PSCENC =       254.59835865
  Ewald energy   TEWEN  =     -2504.15942190
  -Hartree energ DENC   =       -63.66679970
  -exchange      EXHF   =         0.00000000
  -V(xc)+E(xc)   XCENC  =       116.01282396
  PAW double counting   =    118631.88560498  -118631.40715284
  entropy T*S    EENTRO =         0.00000000
  eigenvalues    EBANDS =     -2161.60915727
  atomic energy  EATOM  =      3040.52701931
  ---------------------------------------------------
  free energy    TOTEN  =     -1317.81872481 eV

  energy without entropy =    -1317.81872481  energy(sigma->0) =    -1317.81872481


--------------------------------------------------------------------------------------------------------




----------------------------------------- Iteration    1(   5)  ---------------------------------------


     EDDAV:  cpu time   12.16: real time   12.18
 BZINTS: Fermi energy:-42.643857; 38.000000 electrons
         Band energy:***********;  BLOECHL correction:  0.000000
       DOS:  cpu time    0.02: real time    0.02
    CHARGE:  cpu time    0.51: real time    0.51
    MIXING:  cpu time    0.00: real time    0.00
    --------------------------------------------
      LOOP:  cpu time   12.69: real time   12.72

 eigenvalue-minimisations  :  7744
 total energy-change (2. order) :-0.2889630E-01  (-0.2889584E-01)
 number of electron      37.9999965 magnetization      -0.0000000
 augmentation part       15.7875002 magnetization      -0.0009531

 Broyden mixing:
  rms(total) = 0.38863E+02    rms(broyden)= 0.38854E+02
  rms(prec ) = 0.57564E+02
  weight for this iteration     100.00

 Free energy of the ion-electron system (eV)
  ---------------------------------------------------
  alpha Z        PSCENC =       254.59835865
  Ewald energy   TEWEN  =     -2504.15942190
  -Hartree energ DENC   =       -63.66679970
  -exchange      EXHF   =         0.00000000
  -V(xc)+E(xc)   XCENC  =       116.01282396
  PAW double counting   =    118631.88560498  -118631.40715284
  entropy T*S    EENTRO =         0.00000000
  eigenvalues    EBANDS =     -2161.63805357
  atomic energy  EATOM  =      3040.52701931
  ---------------------------------------------------
  free energy    TOTEN  =     -1317.84762111 eV

  energy without entropy =    -1317.84762111  energy(sigma->0) =    -1317.84762111


--------------------------------------------------------------------------------------------------------




----------------------------------------- Iteration    1(   6)  ---------------------------------------


    POTLOK:  cpu time    0.21: real time    0.21
    SETDIJ:  cpu time    0.02: real time    0.02
     EDDAV:  cpu time   13.27: real time   13.27
 BZINTS: Fermi energy: -3.001589; 38.000000 electrons
         Band energy:-661.087937;  BLOECHL correction:  0.000000
       DOS:  cpu time    0.02: real time    0.02
    CHARGE:  cpu time    0.52: real time    0.52
    MIXING:  cpu time    0.00: real time    0.00
    --------------------------------------------
      LOOP:  cpu time   14.05: real time   14.05

 eigenvalue-minimisations  :  8376
 total energy-change (2. order) : 0.1080285E+04  (-0.3613711E+03)
 number of electron      37.9999958 magnetization      -0.0000000
 augmentation part        6.6921510 magnetization       0.0102056

 Broyden mixing:
  rms(total) = 0.25093E+02    rms(broyden)= 0.25091E+02
  rms(prec ) = 0.29735E+02
  weight for this iteration     100.00

 eigenvalues of (default mixing * dielectric matrix)
  average eigenvalue GAMMA=   0.6494
  0.6494

 Free energy of the ion-electron system (eV)
  ---------------------------------------------------
  alpha Z        PSCENC =       254.59835865
  Ewald energy   TEWEN  =     -2504.15942190
  -Hartree energ DENC   =      -480.39162871
  -exchange      EXHF   =         0.00000000
  -V(xc)+E(xc)   XCENC  =       137.01527366
  PAW double counting   =    206691.58769522  -206715.65184288
  entropy T*S    EENTRO =         0.00000000
  eigenvalues    EBANDS =      -661.08793696
  atomic energy  EATOM  =      3040.52701931
  ---------------------------------------------------
  free energy    TOTEN  =      -237.56248362 eV

  energy without entropy =     -237.56248362  energy(sigma->0) =     -237.56248362


--------------------------------------------------------------------------------------------------------




----------------------------------------- Iteration    1(   7)  ---------------------------------------


    POTLOK:  cpu time    0.09: real time    0.09
    SETDIJ:  cpu time    0.02: real time    0.02
     EDDAV:  cpu time   11.54: real time   11.54
 BZINTS: Fermi energy:  1.361941; 38.000000 electrons
         Band energy:-449.842087;  BLOECHL correction:  0.000000
       DOS:  cpu time    0.02: real time    0.02
    CHARGE:  cpu time    0.52: real time    0.52
    MIXING:  cpu time    0.00: real time    0.00
    --------------------------------------------
      LOOP:  cpu time   12.19: real time   12.19

 eigenvalue-minimisations  :  6128
 total energy-change (2. order) : 0.1506970E+03  (-0.3713881E+02)
 number of electron      37.9999969 magnetization       0.0000000
 augmentation part        5.3167816 magnetization       0.0051971

 Broyden mixing:
  rms(total) = 0.16484E+02    rms(broyden)= 0.16483E+02
  rms(prec ) = 0.18599E+02
  weight for this iteration     100.00

 eigenvalues of (default mixing * dielectric matrix)
  average eigenvalue GAMMA=   1.3526
  1.1432  1.5620

 Free energy of the ion-electron system (eV)
  ---------------------------------------------------
  alpha Z        PSCENC =       254.59835865
  Ewald energy   TEWEN  =     -2504.15942190
  -Hartree energ DENC   =      -547.56976013
  -exchange      EXHF   =         0.00000000
  -V(xc)+E(xc)   XCENC  =       142.23746510
  PAW double counting   =    106079.06246972  -106101.71956815
  entropy T*S    EENTRO =         0.00000000
  eigenvalues    EBANDS =      -449.84208680
  atomic energy  EATOM  =      3040.52701931
  ---------------------------------------------------
  free energy    TOTEN  =       -86.86552421 eV

  energy without entropy =      -86.86552421  energy(sigma->0) =      -86.86552421


--------------------------------------------------------------------------------------------------------




----------------------------------------- Iteration    1(   8)  ---------------------------------------


    POTLOK:  cpu time    0.12: real time    0.12
    SETDIJ:  cpu time    0.02: real time    0.02
     EDDAV:  cpu time   10.40: real time   10.40
 BZINTS: Fermi energy:  3.504614; 38.000000 electrons
         Band energy:-362.639306;  BLOECHL correction: -0.057686
       DOS:  cpu time    0.10: real time    0.10
    CHARGE:  cpu time    0.53: real time    0.53
    MIXING:  cpu time    0.00: real time    0.00
    --------------------------------------------
      LOOP:  cpu time   11.16: real time   11.17

 eigenvalue-minimisations  :  6240
 total energy-change (2. order) : 0.2768697E+02  (-0.2338707E+02)
 number of electron      37.9999993 magnetization       0.0008251
 augmentation part        7.5314127 magnetization      -0.0154680

 Broyden mixing:
  rms(total) = 0.79200E+01    rms(broyden)= 0.79189E+01
  rms(prec ) = 0.14710E+02
  weight for this iteration     100.00

 eigenvalues of (default mixing * dielectric matrix)
  average eigenvalue GAMMA=   1.0105
  1.5700  1.1651  0.2964

 Free energy of the ion-electron system (eV)
  ---------------------------------------------------
  alpha Z        PSCENC =       254.59835865
  Ewald energy   TEWEN  =     -2504.15942190
  -Hartree energ DENC   =      -618.05772854
  -exchange      EXHF   =         0.00000000
  -V(xc)+E(xc)   XCENC  =       146.20611316
  PAW double counting   =     22934.91034166   -22950.56393141
  entropy T*S    EENTRO =         0.00000000
  eigenvalues    EBANDS =      -362.63930619
  atomic energy  EATOM  =      3040.52701931
  ---------------------------------------------------
  free energy    TOTEN  =       -59.17855527 eV

  energy without entropy =      -59.17855527  energy(sigma->0) =      -59.17855527


--------------------------------------------------------------------------------------------------------




----------------------------------------- Iteration    1(   9)  ---------------------------------------


    POTLOK:  cpu time    0.09: real time    0.09
    SETDIJ:  cpu time    0.02: real time    0.02
     EDDAV:  cpu time   10.39: real time   10.38
 BZINTS: Fermi energy:  3.715872; 38.000000 electrons
         Band energy:-357.198204;  BLOECHL correction: -0.056916
       DOS:  cpu time    0.09: real time    0.09
    CHARGE:  cpu time    0.53: real time    0.53
    MIXING:  cpu time    0.00: real time    0.00
    --------------------------------------------
      LOOP:  cpu time   11.12: real time   11.13

 eigenvalue-minimisations  :  6288
 total energy-change (2. order) : 0.3686275E+01  (-0.2589422E+01)
 number of electron      37.9999992 magnetization      -0.0205959
 augmentation part        6.7577731 magnetization      -0.0284864

 Broyden mixing:
  rms(total) = 0.77580E+01    rms(broyden)= 0.77580E+01
  rms(prec ) = 0.13026E+02
  weight for this iteration     100.00

 eigenvalues of (default mixing * dielectric matrix)
  average eigenvalue GAMMA=   0.9395
  1.4648  1.4648  0.5506  0.2778

 Free energy of the ion-electron system (eV)
  ---------------------------------------------------
  alpha Z        PSCENC =       254.59835865
  Ewald energy   TEWEN  =     -2504.15942190
  -Hartree energ DENC   =      -620.03770888
  -exchange      EXHF   =         0.00000000
  -V(xc)+E(xc)   XCENC  =       146.21683064
  PAW double counting   =     22457.90213303   -22473.34128705
  entropy T*S    EENTRO =         0.00000000
  eigenvalues    EBANDS =      -357.19820410
  atomic energy  EATOM  =      3040.52701931
  ---------------------------------------------------
  free energy    TOTEN  =       -55.49228031 eV

  energy without entropy =      -55.49228031  energy(sigma->0) =      -55.49228031


--------------------------------------------------------------------------------------------------------




----------------------------------------- Iteration    1(  10)  ---------------------------------------


    POTLOK:  cpu time    0.09: real time    0.09
    SETDIJ:  cpu time    0.02: real time    0.02
     EDDAV:  cpu time   10.12: real time   10.11
 BZINTS: Fermi energy:  0.089738; 38.000000 electrons
         Band energy:-461.511023;  BLOECHL correction: -0.045295
       DOS:  cpu time    0.10: real time    0.10
    CHARGE:  cpu time    0.52: real time    0.52
    MIXING:  cpu time    0.00: real time    0.00
    --------------------------------------------
      LOOP:  cpu time   10.85: real time   10.85

 eigenvalue-minimisations  :  5872
 total energy-change (2. order) :-0.5817202E+01  (-0.4726782E+01)
 number of electron      37.9999992 magnetization      -0.0494857
 augmentation part        8.3509354 magnetization      -0.0121998

 Broyden mixing:
  rms(total) = 0.63573E+01    rms(broyden)= 0.63568E+01
  rms(prec ) = 0.14620E+02
  weight for this iteration     100.00

 eigenvalues of (default mixing * dielectric matrix)
  average eigenvalue GAMMA=   1.1051
  1.9714  1.9714  0.8668  0.4455  0.2704

 Free energy of the ion-electron system (eV)
  ---------------------------------------------------
  alpha Z        PSCENC =       254.59835865
  Ewald energy   TEWEN  =     -2504.15942190
  -Hartree energ DENC   =      -519.85154041
  -exchange      EXHF   =         0.00000000
  -V(xc)+E(xc)   XCENC  =       139.47664567
  PAW double counting   =     17424.91944586   -17435.30896677
  entropy T*S    EENTRO =         0.00000000
  eigenvalues    EBANDS =      -461.51102280
  atomic energy  EATOM  =      3040.52701931
  ---------------------------------------------------
  free energy    TOTEN  =       -61.30948239 eV

  energy without entropy =      -61.30948239  energy(sigma->0) =      -61.30948239


--------------------------------------------------------------------------------------------------------




----------------------------------------- Iteration    1(  11)  ---------------------------------------


    POTLOK:  cpu time    0.09: real time    0.09
    SETDIJ:  cpu time    0.02: real time    0.02
     EDDAV:  cpu time   11.50: real time   11.52
 BZINTS: Fermi energy: -0.799969; 38.000000 electrons
         Band energy:-498.546831;  BLOECHL correction: -0.008347
       DOS:  cpu time    0.09: real time    0.09
    CHARGE:  cpu time    0.52: real time    0.52
    MIXING:  cpu time    0.00: real time    0.00
    --------------------------------------------
      LOOP:  cpu time   12.22: real time   12.24

 eigenvalue-minimisations  :  7168
 total energy-change (2. order) :-0.1874984E+01  (-0.1701323E+02)
 number of electron      37.9999974 magnetization       0.0478695
 augmentation part        6.0636664 magnetization       0.0039307

 Broyden mixing:
  rms(total) = 0.40209E+01    rms(broyden)= 0.40196E+01
  rms(prec ) = 0.71583E+01
  weight for this iteration     100.00

 eigenvalues of (default mixing * dielectric matrix)
  average eigenvalue GAMMA=   0.9910
  2.6006  0.9656  0.9489  0.9489  0.2410  0.2410

 Free energy of the ion-electron system (eV)
  ---------------------------------------------------
  alpha Z        PSCENC =       254.59835865
  Ewald energy   TEWEN  =     -2504.15942190
  -Hartree energ DENC   =      -486.33818540
  -exchange      EXHF   =         0.00000000
  -V(xc)+E(xc)   XCENC  =       136.27608053
  PAW double counting   =     10120.99848836   -10126.53997436
  entropy T*S    EENTRO =         0.00000000
  eigenvalues    EBANDS =      -498.54683110
  atomic energy  EATOM  =      3040.52701931
  ---------------------------------------------------
  free energy    TOTEN  =       -63.18446592 eV

  energy without entropy =      -63.18446592  energy(sigma->0) =      -63.18446592


--------------------------------------------------------------------------------------------------------




----------------------------------------- Iteration    1(  12)  ---------------------------------------


    POTLOK:  cpu time    0.09: real time    0.09
    SETDIJ:  cpu time    0.02: real time    0.02
     EDDAV:  cpu time   10.62: real time   10.64
 BZINTS: Fermi energy:  0.533935; 38.000000 electrons
         Band energy:-424.367168;  BLOECHL correction: -0.053760
       DOS:  cpu time    0.10: real time    0.10
    CHARGE:  cpu time    0.52: real time    0.52
    MIXING:  cpu time    0.00: real time    0.00
    --------------------------------------------
      LOOP:  cpu time   11.35: real time   11.38

 eigenvalue-minimisations  :  6504
 total energy-change (2. order) :-0.1048495E+02  (-0.2217510E+02)
 number of electron      37.9999991 magnetization      -0.0128820
 augmentation part        8.5789213 magnetization      -0.0103070

 Broyden mixing:
  rms(total) = 0.67979E+01    rms(broyden)= 0.67976E+01
  rms(prec ) = 0.15956E+02
  weight for this iteration     100.00

 eigenvalues of (default mixing * dielectric matrix)
  average eigenvalue GAMMA=   0.9049
  2.5283  1.0231  1.0231  0.9431  0.3037  0.3037  0.2095

 Free energy of the ion-electron system (eV)
  ---------------------------------------------------
  alpha Z        PSCENC =       254.59835865
  Ewald energy   TEWEN  =     -2504.15942190
  -Hartree energ DENC   =      -577.41090943
  -exchange      EXHF   =         0.00000000
  -V(xc)+E(xc)   XCENC  =       142.94462027
  PAW double counting   =      2817.73688967    -2823.53880771
  entropy T*S    EENTRO =         0.00000000
  eigenvalues    EBANDS =      -424.36716808
  atomic energy  EATOM  =      3040.52701931
  ---------------------------------------------------
  free energy    TOTEN  =       -73.66941922 eV

  energy without entropy =      -73.66941922  energy(sigma->0) =      -73.66941922


--------------------------------------------------------------------------------------------------------




----------------------------------------- Iteration    1(  13)  ---------------------------------------


    POTLOK:  cpu time    0.11: real time    0.12
    SETDIJ:  cpu time    0.02: real time    0.02
     EDDAV:  cpu time   10.39: real time   10.39
 BZINTS: Fermi energy:  1.209412; 38.000000 electrons
         Band energy:-404.025621;  BLOECHL correction:  0.000000
       DOS:  cpu time    0.02: real time    0.02
    CHARGE:  cpu time    0.51: real time    0.51
    MIXING:  cpu time    0.00: real time    0.00
    --------------------------------------------
      LOOP:  cpu time   11.05: real time   11.07

 eigenvalue-minimisations  :  6336
 total energy-change (2. order) : 0.2757556E+02  (-0.3025817E+01)
 number of electron      37.9999978 magnetization      -0.0372937
 augmentation part        5.7025461 magnetization      -0.0292333

 Broyden mixing:
  rms(total) = 0.17824E+01    rms(broyden)= 0.17817E+01
  rms(prec ) = 0.36056E+01
  weight for this iteration     100.00

 eigenvalues of (default mixing * dielectric matrix)
  average eigenvalue GAMMA=   0.9043
  2.3692  1.1167  1.1167  1.0964  0.6406  0.3404  0.3404  0.2139

 Free energy of the ion-electron system (eV)
  ---------------------------------------------------
  alpha Z        PSCENC =       254.59835865
  Ewald energy   TEWEN  =     -2504.15942190
  -Hartree energ DENC   =      -570.22416376
  -exchange      EXHF   =         0.00000000
  -V(xc)+E(xc)   XCENC  =       141.83461773
  PAW double counting   =      3147.58441451    -3152.22906612
  entropy T*S    EENTRO =         0.00000000
  eigenvalues    EBANDS =      -404.02562064
  atomic energy  EATOM  =      3040.52701931
  ---------------------------------------------------
  free energy    TOTEN  =       -46.09386223 eV

  energy without entropy =      -46.09386223  energy(sigma->0) =      -46.09386223


--------------------------------------------------------------------------------------------------------




----------------------------------------- Iteration    1(  14)  ---------------------------------------


    POTLOK:  cpu time    0.09: real time    0.09
    SETDIJ:  cpu time    0.02: real time    0.02
     EDDAV:  cpu time   10.79: real time   10.81
 BZINTS: Fermi energy:  1.268009; 38.000000 electrons
         Band energy:-383.640142;  BLOECHL correction:  0.000000
       DOS:  cpu time    0.02: real time    0.02
    CHARGE:  cpu time    0.52: real time    1.26
    MIXING:  cpu time    0.00: real time    0.00
    --------------------------------------------
      LOOP:  cpu time   11.44: real time   12.21

 eigenvalue-minimisations  :  6648
 total energy-change (2. order) : 0.2947123E+01  (-0.6848693E+00)
 number of electron      37.9999977 magnetization      -0.0013349
 augmentation part        5.3074267 magnetization       0.0028984

 Broyden mixing:
  rms(total) = 0.14098E+01    rms(broyden)= 0.14097E+01
  rms(prec ) = 0.25064E+01
  weight for this iteration     100.00

 eigenvalues of (default mixing * dielectric matrix)
  average eigenvalue GAMMA=   0.9121
  2.3171  1.1273  1.1273  1.1933  0.7656  0.7656  0.3496  0.3496  0.2137

 Free energy of the ion-electron system (eV)
  ---------------------------------------------------
  alpha Z        PSCENC =       254.59835865
  Ewald energy   TEWEN  =     -2504.15942190
  -Hartree energ DENC   =      -587.93729069
  -exchange      EXHF   =         0.00000000
  -V(xc)+E(xc)   XCENC  =       142.90444255
  PAW double counting   =      3299.46001895    -3304.89972442
  entropy T*S    EENTRO =         0.00000000
  eigenvalues    EBANDS =      -383.64014213
  atomic energy  EATOM  =      3040.52701931
  ---------------------------------------------------
  free energy    TOTEN  =       -43.14673968 eV

  energy without entropy =      -43.14673968  energy(sigma->0) =      -43.14673968


--------------------------------------------------------------------------------------------------------




----------------------------------------- Iteration    1(  15)  ---------------------------------------


    POTLOK:  cpu time    0.09: real time    0.09
    SETDIJ:  cpu time    0.02: real time    0.02
     EDDAV:  cpu time    9.55: real time    9.55
 BZINTS: Fermi energy:  2.124975; 38.000000 electrons
         Band energy:-360.783166;  BLOECHL correction:  0.000000
       DOS:  cpu time    0.02: real time    0.02
    CHARGE:  cpu time    0.51: real time    0.51
    MIXING:  cpu time    0.00: real time    0.00
    --------------------------------------------
      LOOP:  cpu time   10.19: real time   10.19

 eigenvalue-minimisations  :  5720
 total energy-change (2. order) : 0.2225706E+01  (-0.2276849E+00)
 number of electron      37.9999979 magnetization      -0.0126498
 augmentation part        5.1453250 magnetization      -0.0099240

 Broyden mixing:
  rms(total) = 0.80112E+00    rms(broyden)= 0.80107E+00
  rms(prec ) = 0.14530E+01
  weight for this iteration     100.00

 eigenvalues of (default mixing * dielectric matrix)
  average eigenvalue GAMMA=   1.0206
  1.9572  1.9572  1.5113  1.5113  0.9269  0.7141  0.7141  0.3500  0.3500  0.2138

 Free energy of the ion-electron system (eV)
  ---------------------------------------------------
  alpha Z        PSCENC =       254.59835865
  Ewald energy   TEWEN  =     -2504.15942190
  -Hartree energ DENC   =      -608.58775359
  -exchange      EXHF   =         0.00000000
  -V(xc)+E(xc)   XCENC  =       144.35819209
  PAW double counting   =      3516.89179803    -3523.76606118
  entropy T*S    EENTRO =         0.00000000
  eigenvalues    EBANDS =      -360.78316551
  atomic energy  EATOM  =      3040.52701931
  ---------------------------------------------------
  free energy    TOTEN  =       -40.92103410 eV

  energy without entropy =      -40.92103410  energy(sigma->0) =      -40.92103410


--------------------------------------------------------------------------------------------------------




----------------------------------------- Iteration    1(  16)  ---------------------------------------


    POTLOK:  cpu time    0.09: real time    0.09
    SETDIJ:  cpu time    0.02: real time    0.02
     EDDAV:  cpu time   10.68: real time   10.67
 BZINTS: Fermi energy:  2.744069; 38.000000 electrons
         Band energy:-342.521351;  BLOECHL correction:  0.000000
       DOS:  cpu time    0.02: real time    0.02
    CHARGE:  cpu time    0.51: real time    0.51
    MIXING:  cpu time    0.00: real time    0.00
    --------------------------------------------
      LOOP:  cpu time   11.32: real time   11.32

 eigenvalue-minimisations  :  6552
 total energy-change (2. order) : 0.7909340E+00  (-0.1556368E+00)
 number of electron      37.9999978 magnetization      -0.0144948
 augmentation part        4.8731365 magnetization      -0.0146131

 Broyden mixing:
  rms(total) = 0.56161E+00    rms(broyden)= 0.56159E+00
  rms(prec ) = 0.92287E+00
  weight for this iteration     100.00

 eigenvalues of (default mixing * dielectric matrix)
  average eigenvalue GAMMA=   0.9921
  1.9313  1.9313  1.5187  1.5187  0.9182  0.8433  0.8433  0.4971  0.3488  0.3488
  0.2138

 Free energy of the ion-electron system (eV)
  ---------------------------------------------------
  alpha Z        PSCENC =       254.59835865
  Ewald energy   TEWEN  =     -2504.15942190
  -Hartree energ DENC   =      -626.13597011
  -exchange      EXHF   =         0.00000000
  -V(xc)+E(xc)   XCENC  =       145.47878570
  PAW double counting   =      3642.67371992    -3650.59124043
  entropy T*S    EENTRO =         0.00000000
  eigenvalues    EBANDS =      -342.52135126
  atomic energy  EATOM  =      3040.52701931
  ---------------------------------------------------
  free energy    TOTEN  =       -40.13010011 eV

  energy without entropy =      -40.13010011  energy(sigma->0) =      -40.13010011


--------------------------------------------------------------------------------------------------------




----------------------------------------- Iteration    1(  17)  ---------------------------------------


    POTLOK:  cpu time    0.08: real time    0.08
    SETDIJ:  cpu time    0.02: real time    0.02
     EDDAV:  cpu time   11.31: real time   11.34
 BZINTS: Fermi energy:  2.572662; 38.000000 electrons
         Band energy:-342.997493;  BLOECHL correction:  0.000000
       DOS:  cpu time    0.02: real time    0.02
    CHARGE:  cpu time    0.51: real time    0.51
    MIXING:  cpu time    0.00: real time    0.00
    --------------------------------------------
      LOOP:  cpu time   11.94: real time   12.40

 eigenvalue-minimisations  :  6840
 total energy-change (2. order) :-0.1732407E+00  (-0.1676725E-01)
 number of electron      37.9999978 magnetization      -0.0058375
 augmentation part        4.8386904 magnetization      -0.0056024

 Broyden mixing:
  rms(total) = 0.63431E+00    rms(broyden)= 0.63431E+00
  rms(prec ) = 0.11648E+01
  weight for this iteration     100.00

 eigenvalues of (default mixing * dielectric matrix)
  average eigenvalue GAMMA=   1.0877
  2.0288  2.0288  2.3573  1.2776  1.1098  1.1098  0.9532  0.6365  0.6365  0.3499
  0.3499  0.2138

 Free energy of the ion-electron system (eV)
  ---------------------------------------------------
  alpha Z        PSCENC =       254.59835865
  Ewald energy   TEWEN  =     -2504.15942190
  -Hartree energ DENC   =      -625.84654816
  -exchange      EXHF   =         0.00000000
  -V(xc)+E(xc)   XCENC  =       145.42022940
  PAW double counting   =      3597.93258248    -3605.77806750
  entropy T*S    EENTRO =         0.00000000
  eigenvalues    EBANDS =      -342.99749309
  atomic energy  EATOM  =      3040.52701931
  ---------------------------------------------------
  free energy    TOTEN  =       -40.30334081 eV

  energy without entropy =      -40.30334081  energy(sigma->0) =      -40.30334081


--------------------------------------------------------------------------------------------------------




----------------------------------------- Iteration    1(  18)  ---------------------------------------


    POTLOK:  cpu time    0.09: real time    0.09
    SETDIJ:  cpu time    0.02: real time    0.02
     EDDAV:  cpu time   11.00: real time   10.99
 BZINTS: Fermi energy:  2.653558; 38.000000 electrons
         Band energy:-335.817481;  BLOECHL correction:  0.000000
       DOS:  cpu time    0.01: real time    0.02
    CHARGE:  cpu time    0.51: real time    0.51
    MIXING:  cpu time    0.00: real time    0.00
    --------------------------------------------
      LOOP:  cpu time   11.63: real time   11.63

 eigenvalue-minimisations  :  6288
 total energy-change (2. order) : 0.1613288E+00  (-0.1816924E-01)
 number of electron      37.9999978 magnetization      -0.0006988
 augmentation part        4.7836826 magnetization      -0.0012511

 Broyden mixing:
  rms(total) = 0.43009E+00    rms(broyden)= 0.43008E+00
  rms(prec ) = 0.93806E+00
  weight for this iteration     100.00

 eigenvalues of (default mixing * dielectric matrix)
  average eigenvalue GAMMA=   1.3009
  3.0425  3.0425  2.9764  1.4149  1.4149  1.0195  1.0195  0.2138  0.3498  0.3498
  0.7977  0.6744  0.5962

 Free energy of the ion-electron system (eV)
  ---------------------------------------------------
  alpha Z        PSCENC =       254.59835865
  Ewald energy   TEWEN  =     -2504.15942190
  -Hartree energ DENC   =      -632.90980022
  -exchange      EXHF   =         0.00000000
  -V(xc)+E(xc)   XCENC  =       145.91740936
  PAW double counting   =      3556.60390001    -3564.90199618
  entropy T*S    EENTRO =         0.00000000
  eigenvalues    EBANDS =      -335.81748101
  atomic energy  EATOM  =      3040.52701931
  ---------------------------------------------------
  free energy    TOTEN  =       -40.14201198 eV

  energy without entropy =      -40.14201198  energy(sigma->0) =      -40.14201198


--------------------------------------------------------------------------------------------------------




----------------------------------------- Iteration    1(  19)  ---------------------------------------


    POTLOK:  cpu time    0.08: real time    0.09
    SETDIJ:  cpu time    0.02: real time    0.02
     EDDAV:  cpu time   10.31: real time   10.33
 BZINTS: Fermi energy:  3.377321; 38.000000 electrons
         Band energy:-311.819023;  BLOECHL correction:  0.000000
       DOS:  cpu time    0.02: real time    0.02
    CHARGE:  cpu time    0.51: real time    0.51
    MIXING:  cpu time    0.00: real time    0.00
    --------------------------------------------
      LOOP:  cpu time   10.95: real time   10.97

 eigenvalue-minimisations  :  6360
 total energy-change (2. order) :-0.2686887E+00  (-0.1810654E+00)
 number of electron      37.9999979 magnetization      -0.0002755
 augmentation part        4.5804042 magnetization      -0.0008509

 Broyden mixing:
  rms(total) = 0.53526E+00    rms(broyden)= 0.53521E+00
  rms(prec ) = 0.10897E+01
  weight for this iteration     100.00

 eigenvalues of (default mixing * dielectric matrix)
  average eigenvalue GAMMA=   1.2338
  3.7310  2.6513  2.6513  1.4575  1.4575  0.9851  0.9851  0.7084  0.7084  0.2138
  0.3498  0.3498  0.5120  0.5120

 Free energy of the ion-electron system (eV)
  ---------------------------------------------------
  alpha Z        PSCENC =       254.59835865
  Ewald energy   TEWEN  =     -2504.15942190
  -Hartree energ DENC   =      -657.18990283
  -exchange      EXHF   =         0.00000000
  -V(xc)+E(xc)   XCENC  =       147.61106829
  PAW double counting   =      3749.14994297    -3759.12874184
  entropy T*S    EENTRO =         0.00000000
  eigenvalues    EBANDS =      -311.81902331
  atomic energy  EATOM  =      3040.52701931
  ---------------------------------------------------
  free energy    TOTEN  =       -40.41070066 eV

  energy without entropy =      -40.41070066  energy(sigma->0) =      -40.41070066


--------------------------------------------------------------------------------------------------------




----------------------------------------- Iteration    1(  20)  ---------------------------------------


    POTLOK:  cpu time    0.09: real time    0.09
    SETDIJ:  cpu time    0.02: real time    0.02
     EDDAV:  cpu time    9.45: real time    9.45
 BZINTS: Fermi energy:  3.374365; 38.000000 electrons
         Band energy:-313.530761;  BLOECHL correction:  0.000000
       DOS:  cpu time    0.01: real time    0.02
    CHARGE:  cpu time    0.51: real time    0.51
    MIXING:  cpu time    0.00: real time    0.00
    --------------------------------------------
      LOOP:  cpu time   10.09: real time   10.10

 eigenvalue-minimisations  :  5704
 total energy-change (2. order) : 0.2970842E-01  (-0.8022889E-02)
 number of electron      37.9999979 magnetization      -0.0002618
 augmentation part        4.5854208 magnetization      -0.0006212

 Broyden mixing:
  rms(total) = 0.52605E+00    rms(broyden)= 0.52605E+00
  rms(prec ) = 0.10714E+01
  weight for this iteration     100.00

 eigenvalues of (default mixing * dielectric matrix)
  average eigenvalue GAMMA=   1.2065
  4.0206  2.3721  2.3721  1.5111  1.5111  0.9860  0.9860  0.7156  0.7156  0.2138
  0.3498  0.3498  0.7071  0.7071  0.5802

 Free energy of the ion-electron system (eV)
  ---------------------------------------------------
  alpha Z        PSCENC =       254.59835865
  Ewald energy   TEWEN  =     -2504.15942190
  -Hartree energ DENC   =      -655.37998285
  -exchange      EXHF   =         0.00000000
  -V(xc)+E(xc)   XCENC  =       147.49645435
  PAW double counting   =      3769.28334706    -3779.21600570
  entropy T*S    EENTRO =         0.00000000
  eigenvalues    EBANDS =      -313.53076115
  atomic energy  EATOM  =      3040.52701931
  ---------------------------------------------------
  free energy    TOTEN  =       -40.38099224 eV

[...]
      3     -29.9981      1.00000
      4     -21.7066      1.00000
      5     -13.3855      1.00000
      6     -13.0759      1.00000
      7     -13.0543      1.00000
      8      -7.2880      1.00000
      9      -7.2756      1.00000
     10      -7.0192      1.00000
     11      -1.1673      1.00000
     12      -0.7067      1.00000
     13      -0.4093      1.00000
     14       0.3374      1.00000
     15       0.5081      1.00000
     16       0.6458      1.00000
     17       2.2350      1.00000
     18       2.3083      1.00000
     19       2.8664      1.00000
     20       6.4340      0.00000
     21       6.4767      0.00000
     22       6.7345      0.00000
     23       8.4549      0.00000
     24      10.1869      0.00000
     25      10.4864      0.00000
     26      11.2448      0.00000
     27      11.4589      0.00000
     28      11.5883      0.00000
     29      13.1680      0.00000
     30      15.6581      0.00000
     31      16.9952      0.00000
     32      17.0744      0.00000

 k-point    38 :       0.3125    0.3125    0.4375
  band No.  band energies     occupation 
      1     -30.0289      1.00000
      2     -30.0159      1.00000
      3     -30.0156      1.00000
      4     -21.7007      1.00000
      5     -13.3438      1.00000
      6     -13.0290      1.00000
      7     -13.0208      1.00000
      8      -7.4752      1.00000
      9      -7.3694      1.00000
     10      -7.1160      1.00000
     11      -1.0422      1.00000
     12      -0.4434      1.00000
     13      -0.3249      1.00000
     14      -0.0233      1.00000
     15       0.5660      1.00000
     16       0.6143      1.00000
     17       2.3894      1.00000
     18       2.5407      1.00000
     19       2.7290      1.00000
     20       6.4727      0.00000
     21       6.6239      0.00000
     22       6.6276      0.00000
     23       9.2405      0.00000
     24       9.7624      0.00000
     25      10.6323      0.00000
     26      10.6694      0.00000
     27      10.7382      0.00000
     28      11.7795      0.00000
     29      12.6336      0.00000
     30      15.4049      0.00000
     31      17.0839      0.00000
     32      17.5548      0.00000

 k-point    39 :       0.4375    0.3125    0.4375
  band No.  band energies     occupation 
      1     -30.0283      1.00000
      2     -30.0278      1.00000
      3     -30.0152      1.00000
      4     -21.6833      1.00000
      5     -13.1853      1.00000
      6     -13.0157      1.00000
      7     -13.0032      1.00000
      8      -7.5346      1.00000
      9      -7.5034      1.00000
     10      -7.3452      1.00000
     11      -1.2003      1.00000
     12      -0.7018      1.00000
     13      -0.3478      1.00000
     14       0.1119      1.00000
     15       0.5400      1.00000
     16       0.5799      1.00000
     17       2.5893      1.00000
     18       2.6353      1.00000
     19       2.8958      1.00000
     20       6.6844      0.00000
     21       6.7181      0.00000
     22       6.8230      0.00000
     23       9.3798      0.00000
     24      10.1173      0.00000
     25      10.2401      0.00000
     26      10.4452      0.00000
     27      10.5355      0.00000
     28      12.1214      0.00000
     29      13.0060      0.00000
     30      15.4666      0.00000
     31      17.4664      0.00000
     32      17.5569      0.00000

 k-point    40 :       0.4375    0.4375    0.4375
  band No.  band energies     occupation 
      1     -30.0277      1.00000
      2     -30.0273      1.00000
      3     -30.0272      1.00000
      4     -21.6666      1.00000
      5     -13.0314      1.00000
      6     -12.9714      1.00000
      7     -12.9713      1.00000
      8      -7.6712      1.00000
      9      -7.6575      1.00000
     10      -7.5856      1.00000
     11      -1.3321      1.00000
     12      -0.7283      1.00000
     13      -0.6878      1.00000
     14       0.4326      1.00000
     15       0.5576      1.00000
     16       0.5822      1.00000
     17       2.8667      1.00000
     18       2.8836      1.00000
     19       2.9444      1.00000
     20       6.8859      0.00000
     21       6.8877      0.00000
     22       6.9151      0.00000
     23       9.7332      0.00000
     24       9.7493      0.00000
     25       9.8318      0.00000
     26      10.2624      0.00000
     27      10.3239      0.00000
     28      12.8674      0.00000
     29      12.9140      0.00000
     30      15.3194      0.00000
     31      17.9120      0.00000
     32      17.9936      0.00000


--------------------------------------------------------------------------------------------------------


 soft charge-density along one line, spin component           1
         0         1         2         3         4         5         6         7         8         9
 total charge-density along one line
 
 soft charge-density along one line, spin component           2
         0         1         2         3         4         5         6         7         8         9
 total charge-density along one line
 
 pseudopotential strength for first ion, spin component:           1
  1.157  -4.986   0.000  -0.001   0.000   0.000   0.000   0.000
 -4.986   0.650  -0.000   0.000  -0.000   0.000  -0.000   0.000
  0.000  -0.000  -7.693   0.000   0.000   4.446   0.000   0.000
 -0.001   0.000   0.000  -7.693   0.000   0.000   4.446   0.000
  0.000  -0.000   0.000   0.000  -7.693   0.000   0.000   4.446
  0.000   0.000   4.446   0.000   0.000   6.784  -0.000  -0.000
  0.000  -0.000   0.000   4.446   0.000  -0.000   6.784  -0.000
  0.000   0.000   0.000   0.000   4.446  -0.000  -0.000   6.784
  0.000  -0.000  -0.000   0.000   0.000  -0.000   0.000   0.000
  0.000  -0.000  -0.000   0.000   0.000  -0.000   0.000   0.000
 -0.000   0.000  -0.000  -0.000  -0.000  -0.000  -0.000  -0.000
  0.000  -0.000   0.000   0.000  -0.000   0.000  -0.000  -0.000
 -0.000   0.000  -0.000   0.000   0.000  -0.000   0.000   0.000
  0.000  -0.000  -0.000   0.000   0.000  -0.000   0.000   0.000
  0.000  -0.000  -0.000   0.000   0.000  -0.000   0.000   0.000
 -0.000   0.000  -0.000  -0.000  -0.000  -0.000  -0.000  -0.000
  0.000  -0.000   0.000  -0.000  -0.000   0.000  -0.000  -0.000
 -0.000   0.000  -0.000   0.000   0.000  -0.000   0.000   0.000
 pseudopotential strength for first ion, spin component:           2
  1.157  -4.986   0.000  -0.001   0.000   0.000   0.000   0.000
 -4.986   0.650  -0.000   0.000  -0.000   0.000  -0.000   0.000
  0.000  -0.000  -7.693   0.000   0.000   4.446   0.000   0.000
 -0.001   0.000   0.000  -7.693   0.000   0.000   4.446   0.000
  0.000  -0.000   0.000   0.000  -7.693   0.000   0.000   4.446
  0.000   0.000   4.446   0.000   0.000   6.784  -0.000  -0.000
  0.000  -0.000   0.000   4.446   0.000  -0.000   6.784  -0.000
  0.000   0.000   0.000   0.000   4.446  -0.000  -0.000   6.784
  0.000  -0.000  -0.000  -0.000   0.000  -0.000  -0.000   0.000
  0.000  -0.000  -0.000   0.000  -0.000  -0.000   0.000  -0.000
 -0.000   0.000  -0.000  -0.000  -0.000  -0.000  -0.000  -0.000
  0.000  -0.000  -0.000   0.000  -0.000  -0.000  -0.000  -0.000
 -0.000   0.000  -0.000   0.000   0.000  -0.000   0.000   0.000
  0.000  -0.000  -0.000  -0.000   0.000  -0.000  -0.000   0.000
  0.000  -0.000  -0.000   0.000  -0.000  -0.000   0.000  -0.000
 -0.000   0.000  -0.000  -0.000  -0.000  -0.000  -0.000  -0.000
  0.000  -0.000  -0.000  -0.000  -0.000  -0.000  -0.000  -0.000
 -0.000   0.000  -0.000   0.000   0.000  -0.000   0.000   0.000
 total augmentation occupancy for first ion, spin component:           1
  2.004  -0.003   0.000  -0.000   0.000   0.000  -0.000   0.000   0.000  -0.000   0.001   0.000   0.000   0.000   0.000  -0.001
 -0.003   0.399  -0.000  -0.003   0.000   0.000   0.001   0.000   0.000   0.000  -0.006   0.000   0.000   0.000   0.000   0.003
  0.000   0.000   2.021   0.000   0.000  -0.009  -0.000   0.000   0.000  -0.005   0.000   0.000   0.000   0.000   0.002  -0.000
 -0.000  -0.003   0.000   2.021   0.000   0.000  -0.009   0.000   0.000   0.000  -0.002   0.000   0.000   0.000   0.000   0.001
  0.000   0.000   0.000   0.000   2.021   0.000   0.000  -0.009   0.000   0.000   0.000  -0.005   0.000   0.000   0.000   0.000
  0.000  -0.000  -0.009   0.000   0.000   0.010   0.000   0.000   0.000   0.002   0.000   0.000   0.000   0.000  -0.001   0.000
 -0.000   0.001  -0.000  -0.009   0.000   0.000   0.010   0.000   0.000   0.000   0.001   0.000   0.000   0.000   0.000  -0.001
  0.000   0.000   0.000   0.000  -0.009   0.000   0.000   0.010  -0.000  -0.000   0.000   0.002   0.000   0.000   0.000   0.000
  0.000   0.000   0.000   0.000  -0.000   0.000   0.000   0.000   2.892   0.000   0.000   0.000   0.000  -1.536   0.000   0.000
  0.000   0.000  -0.005   0.000   0.000   0.002   0.000   0.000   0.000   2.835   0.000   0.000   0.000   0.000  -1.506   0.000
  0.001  -0.006   0.000  -0.002   0.000  -0.000   0.001   0.000   0.000   0.000   1.819   0.000   0.000   0.000   0.000  -0.959
  0.000   0.000   0.000   0.000  -0.005   0.000   0.000   0.002   0.000   0.000   0.000   2.835   0.000   0.000   0.000   0.000
  0.000   0.000  -0.000   0.000   0.000   0.000   0.000   0.000   0.000   0.000   0.000   0.000   1.784   0.000   0.000   0.000
  0.000   0.000   0.000   0.000   0.000   0.000   0.000   0.000  -1.536   0.000   0.000  -0.000   0.000   0.817  -0.000   0.000
 -0.000   0.000   0.002   0.000   0.000  -0.001   0.000   0.000   0.000  -1.506   0.000   0.000   0.000  -0.000   0.801  -0.000
 -0.001   0.003   0.000   0.001   0.000   0.000  -0.001   0.000   0.000   0.000  -0.959   0.000   0.000   0.000  -0.000   0.507
  0.000   0.000   0.000   0.000   0.002   0.000   0.000  -0.001   0.000   0.000   0.000  -1.506   0.000   0.000   0.000   0.000
  0.000   0.000   0.000   0.000   0.000   0.000   0.000   0.000   0.000   0.000   0.000   0.000  -0.941  -0.000  -0.000   0.000
 total augmentation occupancy for first ion, spin component:           2
 -0.000  -0.000   0.000   0.000   0.000   0.000   0.000   0.000   0.000   0.000  -0.000  -0.000   0.000   0.000   0.000   0.000
 -0.000   0.000   0.000   0.000   0.000   0.000  -0.000  -0.000   0.000   0.000  -0.000   0.000   0.000   0.000   0.000   0.000
  0.000   0.000  -0.000  -0.000   0.000  -0.000   0.000   0.000   0.000   0.000   0.000   0.000   0.000   0.000  -0.000   0.000
  0.000   0.000  -0.000  -0.000   0.000   0.000  -0.000  -0.000   0.000  -0.000  -0.000   0.000   0.000   0.000   0.000   0.000
  0.000   0.000   0.000   0.000  -0.000   0.000   0.000  -0.000   0.000   0.000   0.000   0.000  -0.000   0.000  -0.000  -0.000
  0.000   0.000  -0.000   0.000   0.000   0.000   0.000   0.000   0.000  -0.000   0.000  -0.000   0.000   0.000   0.000   0.000
  0.000  -0.000   0.000  -0.000   0.000   0.000   0.000   0.000   0.000   0.000   0.000  -0.000   0.000   0.000   0.000  -0.000
  0.000  -0.000   0.000  -0.000  -0.000   0.000   0.000   0.000   0.000  -0.000   0.000  -0.000   0.000   0.000  -0.000   0.000
  0.000   0.000   0.000   0.000   0.000   0.000   0.000   0.000   0.000   0.000   0.000  -0.000   0.000  -0.000  -0.000   0.000
  0.000   0.000   0.000  -0.000   0.000  -0.000   0.000  -0.000   0.000   0.000   0.000   0.000   0.000   0.000  -0.000   0.000
 -0.000  -0.000   0.000  -0.000   0.000   0.000   0.000   0.000   0.000   0.000  -0.000   0.000   0.000   0.000   0.000   0.000
 -0.000   0.000   0.000   0.000   0.000  -0.000  -0.000  -0.000  -0.000   0.000   0.000   0.000  -0.000   0.000   0.000   0.000
  0.000   0.000   0.000   0.000  -0.000   0.000   0.000   0.000   0.000   0.000   0.000  -0.000   0.000   0.000   0.000   0.000
  0.000   0.000   0.000   0.000   0.000   0.000   0.000   0.000  -0.000   0.000   0.000   0.000   0.000   0.000   0.000   0.000
  0.000   0.000  -0.000   0.000  -0.000   0.000   0.000  -0.000  -0.000  -0.000   0.000   0.000   0.000   0.000   0.000   0.000
  0.000   0.000   0.000   0.000  -0.000   0.000  -0.000   0.000   0.000   0.000   0.000   0.000   0.000   0.000   0.000  -0.000
 -0.000   0.000  -0.000   0.000  -0.000  -0.000  -0.000   0.000  -0.000   0.000   0.000  -0.000   0.000   0.000   0.000   0.000
  0.000   0.000  -0.000   0.000   0.000   0.000   0.000   0.000   0.000   0.000   0.000   0.000  -0.000   0.000   0.000   0.000


------------------------ aborting loop because EDIFF is reached ----------------------------------------


 


 total charge     
 
# of ion     s       p       d       tot
----------------------------------------
  1        2.006   5.648   0.313   7.968
  2        0.294   6.411   1.861   8.565
  3        1.575   3.309   0.000   4.884
  4        1.552   3.601   0.000   5.152
  5        1.563   3.455   0.000   5.017
------------------------------------------------
tot        6.990  22.423   2.174  31.587
 


 magnetization (x)
 
# of ion     s       p       d       tot
----------------------------------------
  1       -0.000   0.000   0.000  -0.000
  2       -0.000  -0.000   0.000   0.000
  3       -0.000   0.000   0.000   0.000
  4       -0.000   0.000   0.000  -0.000
  5        0.000  -0.000   0.000  -0.000
------------------------------------------------
tot       -0.000  -0.000   0.000  -0.000
 
    CHARGE:  cpu time    0.50: real time    0.50
    FORLOC:  cpu time    0.00: real time    0.00
    FORNL :  cpu time    2.69: real time    2.69
    STRESS:  cpu time    8.05: real time    8.05
    FORCOR:  cpu time    0.09: real time    0.09
    FORHAR:  cpu time    0.01: real time    0.01
    MIXING:  cpu time    0.00: real time    0.00
    OFIELD:  cpu time    0.00: real time    0.00

  FORCE on cell =-STRESS in cart. coord.  units (eV):
  Direction    XX          YY          ZZ          XY          YZ          ZX
  --------------------------------------------------------------------------------------
  Alpha Z   254.59836   254.59836   254.59836
  Ewald    -831.98348  -831.98348  -840.19458    -0.00000     0.00000     0.00000
  Hartree   214.41321   214.41321   210.12762    -0.00000    -0.00000    -0.00000
  E(xc)    -171.29347  -171.29347  -171.30863    -0.00000    -0.00000     0.00000
  Local     -28.54000   -28.54000   -16.02489    -0.00000     0.00000    -0.00000
  n-local  -129.34428  -126.46073  -127.97956    -0.34718    -0.35173    -0.31363
  augment    63.29049    63.29049    63.21841     0.00000    -0.00000    -0.00000
  Kinetic   621.56044   633.17850   627.07363    -3.14665    -3.38968    -2.83720
  Fock        0.00000     0.00000     0.00000     0.00000     0.00000     0.00000
  -------------------------------------------------------------------------------------
  Total      -0.04793    -0.04793    -0.48964     0.00000    -0.00000     0.00000
  in kB      -1.16689    -1.16689   -11.91963     0.00000    -0.00000     0.00000
  external pressure =       -4.75 kB  Pullay stress =        0.00 kB


 VOLUME and BASIS-vectors are now :
 -----------------------------------------------------------------------------
  energy-cutoff  :      520.00
  volume of cell :       65.81
      direct lattice vectors                 reciprocal lattice vectors
     4.029524000  0.000000000  0.000000000     0.248168270  0.000000000  0.000000000
     0.000000000  4.029524000  0.000000000     0.000000000  0.248168270  0.000000000
     0.000000000  0.000000000  4.053344000     0.000000000  0.000000000  0.246709877

  length of vectors
     4.029524000  4.029524000  4.053344000     0.248168270  0.248168270  0.246709877


 FORCES acting on ions
    electron-ion (+dipol)            ewald-force                    non-local-force                 convergence-correction
 -----------------------------------------------------------------------------------------------
   -.682E-14 -.703E-14 0.838E+00   -.982E-14 -.133E-14 -.757E+00   0.000E+00 -.217E-18 -.988E-01   0.224E-13 -.165E-13 0.155E-03
   0.163E-12 0.209E-11 0.856E+01   0.205E-13 0.227E-13 -.833E+01   0.000E+00 0.260E-17 -.805E-01   -.151E-13 -.692E-13 -.699E-02
   -.973E-14 0.430E-13 0.217E+01   -.164E-13 0.586E-14 -.225E+01   0.000E+00 0.000E+00 0.580E-01   0.415E-13 -.696E-13 0.142E-02
   0.127E-12 -.135E-13 0.217E+01   0.575E-14 -.191E-13 -.225E+01   0.000E+00 0.000E+00 0.580E-01   -.560E-13 0.363E-13 0.142E-02
   0.129E-12 0.574E-12 -.124E+02   0.146E-14 -.739E-14 0.136E+02   0.000E+00 0.000E+00 -.124E+01   -.741E-13 -.379E-13 -.670E-02
 -----------------------------------------------------------------------------------------------
   0.402E-12 0.268E-11 0.131E+01   0.154E-14 0.728E-15 -.178E-14   0.000E+00 0.239E-17 -.130E+01   -.813E-13 -.157E-12 -.107E-01
 
 
 POSITION                                       TOTAL-FORCE (eV/Angst)
 -----------------------------------------------------------------------------------
      0.00000      0.00000      0.01922        -0.000000     -0.000000     -0.017660
      2.01476      2.01476      2.05426        -0.000000      0.000000      0.136879
      0.00000      2.01476      2.03317        -0.000000     -0.000000     -0.019203
      2.01476      0.00000      2.03317         0.000000     -0.000000     -0.019203
      2.01476      2.01476      4.05030        -0.000000     -0.000000     -0.080814
 -----------------------------------------------------------------------------------
    total drift:                                0.000000      0.000000      0.001381


--------------------------------------------------------------------------------------------------------



  FREE ENERGIE OF THE ION-ELECTRON SYSTEM (eV)
  ---------------------------------------------------
  free  energy   TOTEN  =       -39.88824556 eV

  energy  without entropy=      -39.88824556  energy(sigma->0) =      -39.88824556
 


--------------------------------------------------------------------------------------------------------


    POTLOK:  cpu time    0.11: real time    0.11


--------------------------------------------------------------------------------------------------------


 writing wavefunctions
     LOOP+:  cpu time  335.81: real time  340.24
    4ORBIT:  cpu time    0.00: real time    0.00
 


 total charge     
 
# of ion     s       p       d       tot
----------------------------------------
  1        2.006   5.648   0.313   7.968
  2        0.294   6.411   1.861   8.565
  3        1.575   3.309   0.000   4.884
  4        1.552   3.601   0.000   5.152
  5        1.563   3.455   0.000   5.017
------------------------------------------------
tot        6.990  22.423   2.174  31.587
 


 magnetization (x)
 
# of ion     s       p       d       tot
----------------------------------------
  1       -0.000   0.000   0.000  -0.000
  2       -0.000  -0.000   0.000   0.000
  3       -0.000   0.000   0.000   0.000
  4       -0.000   0.000   0.000  -0.000
  5        0.000  -0.000   0.000  -0.000
------------------------------------------------
tot       -0.000  -0.000   0.000  -0.000
 
 BZINTS: Fermi energy:  3.009154; 38.000000 electrons
         Band energy:-328.830316;  BLOECHL correction:  0.000000

 total amount of memory used by VASP on root node    48889. kBytes
========================================================================

   base      :      30000. kBytes
   nonlr-proj:       3344. kBytes
   fftplans  :       1096. kBytes
   grid      :       4792. kBytes
   one-center:        155. kBytes
   wavefun   :       9502. kBytes
 
  
  
 General timing and accounting informations for this job:
 ========================================================
  
                  Total CPU time used (sec):      345.030
                            User time (sec):      333.119
                          System time (sec):       11.910
                         Elapsed time (sec):      353.179
  
                   Maximum memory used (kb):       66280.
                   Average memory used (kb):           0.
  
                          Minor page faults:      3250333
                          Major page faults:            9
                 Voluntary context switches:         1295
