
Running Job 1 of 1 mol.qin
qchem mol.qin_16571.0 /tmp/qchem16571/ 1
srun -n 1 /global/common/cori/software/qchem/5.1beta/exe/qcprog.exe mol.qin_16571.0 /tmp/qchem16571/

Process 0 of 1 is on nid00723 - thread support 0
initial socket setup ...start
initial socket setup ...done 
now start server 0 ... 
Check license passed

                  Welcome to Q-Chem
     A Quantum Leap Into The Future Of Chemistry


 Q-Chem 5.1, Q-Chem, Inc., Pleasanton, CA (2018)

 Yihan Shao,  Zhengting Gan,  E. Epifanovsky,  A. T. B. Gilbert,  M. Wormit,  
 J. Kussmann,  A. W. Lange,  A. Behn,  Jia Deng,  Xintian Feng,  D. Ghosh,  
 M. Goldey,  P. R. Horn,  L. D. Jacobson,  I. Kaliman,  T. Kus,  A. Landau,  
 Jie Liu,  E. I. Proynov,  R. M. Richard,  R. P. Steele,  E. J. Sundstrom,  
 H. L. Woodcock III,  P. M. Zimmerman,  D. Zuev,  B. Albrecht,  E. Alguire,  
 S. A. Baeppler,  D. Barton,  Z. Benda,  Y. A. Bernard,  E. J. Berquist,  
 K. B. Bravaya,  H. Burton,  D. Casanova,  Chun-Min Chang,  Yunqing Chen,  
 A. Chien,  K. D. Closser,  M. P. Coons,  S. Coriani,  S. Dasgupta,  
 A. L. Dempwolff,  M. Diedenhofen,  Hainam Do,  R. G. Edgar,  Po-Tung Fang,  
 S. Faraji,  S. Fatehi,  Qingguo Feng,  K. D. Fenk,  J. Fosso-Tande,  
 Qinghui Ge,  A. Ghysels,  G. Gidofalvi,  J. Gomes,  J. Gonthier,  A. Gunina,  
 M. W. D. Hanson-Heine,  P. H. P. Harbach,  A. W. Hauser,  J. E. Herr,  
 E. G. Hohenstein,  Z. C. Holden,  Kerwin Hui,  T.-C. Jagau,  Hyunjun Ji,  
 B. Kaduk,  K. Khistyaev,  Jaehoon Kim,  P. Klunzinger,  K. Koh,  
 D. Kosenkov,  L. Koulias,  T. Kowalczyk,  C. M. Krauter,  A. Kunitsa,  
 Ka Un Lao,  A. Laurent,  K. V. Lawler,  Joonho Lee,  D. Lefrancois,  
 S. Lehtola,  D. S. Levine,  Yi-Pei Li,  You-Sheng Lin,  Fenglai Liu,  
 E. Livshits,  A. Luenser,  P. Manohar,  E. Mansoor,  S. F. Manzer,  
 Shan-Ping Mao,  Yuezhi Mao,  N. Mardirossian,  A. V. Marenich,  
 T. Markovich,  L. A. Martinez-Martinez,  S. A. Maurer,  N. J. Mayhall,  
 S. C. McKenzie,  J.-M. Mewes,  A. F. Morrison,  J. W. Mullinax,  K. Nanda,  
 T. S. Nguyen-Beck,  R. Olivares-Amaya,  J. A. Parkhill,  T. M. Perrine,  
 F. Plasser,  P. Pokhilko,  S. Prager,  A. Prociuk,  E. Ramos,  D. R. Rehn,  
 F. Rob,  M. Schneider,  N. Sergueev,  S. M. Sharada,  S. Sharma,  
 D. W. Small,  T. Stauch,  T. Stein,  Yu-Chuan Su,  A. J. W. Thom,  
 A. Tkatchenko,  T. Tsuchimochi,  N. M. Tubman,  L. Vogt,  M. L. Vidal,  
 O. Vydrov,  M. A. Watson,  J. Wenzel,  M. de Wergifosse,  T. A. Wesolowski,  
 A. White,  J. Witte,  A. Yamada,  Jun Yang,  K. Yao,  S. Yeganeh,  
 S. R. Yost,  Zhi-Qiang You,  A. Zech,  Igor Ying Zhang,  Xing Zhang,  
 Yan Zhao,  Ying Zhu,  B. R. Brooks,  G. K. L. Chan,  C. J. Cramer,  
 M. S. Gordon,  W. J. Hehre,  A. Klamt,  M. W. Schmidt,  C. D. Sherrill,  
 D. G. Truhlar,  A. Aspuru-Guzik,  R. Baer,  A. T. Bell,  N. A. Besley,  
 Jeng-Da Chai,  R. A. DiStasio Jr.,  A. Dreuw,  B. D. Dunietz,  
 T. R. Furlani,  Chao-Ping Hsu,  Yousung Jung,  Jing Kong,  D. S. Lambrecht,  
 WanZhen Liang,  C. Ochsenfeld,  V. A. Rassolov,  L. V. Slipchenko,  
 J. E. Subotnik,  T. Van Voorhis,  J. M. Herbert,  A. I. Krylov,  
 P. M. W. Gill,  M. Head-Gordon

 Contributors to earlier versions of Q-Chem not listed above: 
 R. D. Adamson,  B. Austin,  J. Baker,  G. J. O. Beran,  K. Brandhorst,  
 S. T. Brown,  E. F. C. Byrd,  A. K. Chakraborty,  C.-L. Cheng,  
 Siu Hung Chien,  D. M. Chipman,  D. L. Crittenden,  H. Dachsel,  
 R. J. Doerksen,  A. D. Dutoi,  L. Fusti-Molnar,  W. A. Goddard III,  
 A. Golubeva-Zadorozhnaya,  S. R. Gwaltney,  G. Hawkins,  A. Heyden,  
 S. Hirata,  G. Kedziora,  F. J. Keil,  C. Kelley,  Jihan Kim,  R. A. King,  
 R. Z. Khaliullin,  P. P. Korambath,  W. Kurlancheek,  A. M. Lee,  M. S. Lee,  
 S. V. Levchenko,  Ching Yeh Lin,  D. Liotard,  R. C. Lochan,  I. Lotan,  
 P. E. Maslen,  N. Nair,  D. P. O'Neill,  D. Neuhauser,  E. Neuscamman,  
 C. M. Oana,  R. Olson,  B. Peters,  R. Peverati,  P. A. Pieniazek,  
 Y. M. Rhee,  J. Ritchie,  M. A. Rohrdanz,  E. Rosta,  N. J. Russ,  
 H. F. Schaefer III,  N. E. Schultz,  N. Shenvi,  A. C. Simmonett,  A. Sodt,  
 D. Stuck,  K. S. Thanthiriwatte,  V. Vanovschi,  Tao Wang,  A. Warshel,  
 C. F. Williams,  Q. Wu,  X. Xu,  W. Zhang

 Please cite Q-Chem as follows:
 Y. Shao et al., Mol. Phys. 113, 184-215 (2015)
 DOI: 10.1080/00268976.2014.952696

 Q-Chem 5.1.0 for Intel X86 EM64T Linux

 Parts of Q-Chem use Armadillo 8.300.2 (Tropical Shenanigans).
 http://arma.sourceforge.net/

 Q-Chem begins on Tue Jul 17 09:53:57 2018  

Host: cori06
0

     Scratch files written to /tmp/qchem16571//
 Mar1918  _RNUM -1
 Parallel job on  1  processors
Processing $rem in /global/common/cori/software/qchem/5.1beta/config/preferences.
 MEM_TOTAL  2000 

Checking the input file for inconsistencies... 	...done.

--------------------------------------------------------------
User input:
--------------------------------------------------------------
$molecule
0 1
O      1.0779461358      0.4156058164     -0.0001699550
O     -1.0779251904      0.4156006725     -0.0001642688
O      0.0000153960     -1.5660514257     -0.0007249284
C      2.3378573525     -0.2740876603     -0.0003657878
C     -2.3378312132     -0.2740971318     -0.0003549504
C      3.4279270160      0.7710482239     -0.0001105907
C     -3.4279073909      0.7710326145     -0.0000792947
C      0.0000129302     -0.3621017209     -0.0004221015
H      2.3882948054     -0.9152360994      0.8828499512
H      2.3882644537     -0.9147824530     -0.8839115151
H     -2.3882452303     -0.9147842799     -0.8839062385
H     -2.3882596941     -0.9152554460      0.8828543780
H      4.4046080060      0.2804615390     -0.0002569863
H      3.3637054397      1.4058853949     -0.8861777077
H      3.3637451825      1.4054192249      0.8862932609
H     -4.4045853461      0.2804399688     -0.0002204135
H     -3.3637203204      1.4053962834      0.8863294289
H     -3.3636986218      1.4058782794     -0.8861413840
$end

$rem
job_type = freq
basis = 6-311++g*
max_scf_cycles = 200
gen_scfman = true
scf_algorithm = gdm
method = wb97xd
geom_opt_max_cycles = 200
$end
--------------------------------------------------------------
 ----------------------------------------------------------------
             Standard Nuclear Orientation (Angstroms)
    I     Atom           X                Y                Z
 ----------------------------------------------------------------
    1      O       1.0779352922     0.4087998860     0.0000159844
    2      O      -1.0779360340     0.4087994890     0.0000134467
    3      O       0.0000001906    -1.5728550611    -0.0000038293
    4      C       2.3378449908    -0.2808963917     0.0000126462
    5      C      -2.3378435749    -0.2808955684     0.0000056470
    6      C       3.4279169549     0.7642371238    -0.0000124127
    7      C      -3.4279174520     0.7642366136    -0.0000072696
    8      C       0.0000003750    -0.3689053184    -0.0000286356
    9      H       2.3882776626    -0.9218045668     0.8834030220
   10      H       2.3882540516    -0.9218317127    -0.8833585025
   11      H      -2.3882556324    -0.9218230244    -0.8833714492
   12      H      -2.3882768369    -0.9218133983     0.8833892300
   13      H       4.4045968651     0.2736482674    -0.0000215776
   14      H       3.3637001568     1.3988332854    -0.8862525014
   15      H       3.3637331371     1.3988494615     0.8862185286
   16      H      -4.4045964871     0.2736460975    -0.0000186087
   17      H      -3.3637323660     1.3988413380     0.8862290354
   18      H      -3.3637039048     1.3988409878    -0.8862418429
 ----------------------------------------------------------------
 Molecular Point Group                 C1    NOp =  1
 Largest Abelian Subgroup              C1    NOp =  1
 Nuclear Repulsion Energy =   393.5237982519 hartrees
 There are       32 alpha and       32 beta electrons
 Requested basis set is 6-311++G(d)
 There are 88 shells and 216 basis functions

 Total QAlloc Memory Limit   2000 MB
 Mega-Array Size       188 MB
 MEM_STATIC part       192 MB
 A cutoff of  1.0D-12 yielded   3471 shell pairs
 There are     21500 function pairs (     23079 Cartesian)
 
 -------------------------------------------------------
 OpenMP Integral Computing Module                       
 Release: version 1.0, May 2013, Q-Chem Inc. Pittsburgh 
 -------------------------------------------------------
 Integral Job Info:
 Integral job number is                      11
 Integral operator is                         1
 short-range coefficients              22203600
 long-range coefficients              100000000
 Omega coefficients                         200
 if combine SR and LR in K                    1
 Integral screening is                        0
 Integral computing path is                   2
 max size of driver memory is            800000
 size of driver memory is                593474
 size of scratch memory is              2428936
 max col of scratch BK array               1296
 max len of scratch array in speh3          155
 max len of scratch index in speh4           18
 max int batch size is                      520
 min int batch size is                       52
 fixed nKL is                                52
 max L of basis functions is                  2
 order of int derivative is                   0
 number of shells is                         88
 number of basis is                         224
 number of cartesian basis is               224
 number of contracted shell pairs          3471
 number of primitive shell pairs           8733
 maxK2 (contraction) of shell pair           36
 max number of K2 of shell pair               1
 max number of CS2 of shell pair            728
 max number of PS2 of shell pair           1332
 mem total for path MDJ                  543950
 -------------------------------------------------------
 Smallest overlap matrix eigenvalue = 4.18E-05
 Guess from superposition of atomic densities
 Warning:  Energy on first SCF cycle will be non-variational
 SAD guess density has 64.000000 electrons

 -----------------------------------------------------------------------
  General SCF calculation program by
  Eric Jon Sundstrom, Paul Horn, Yuezhi Mao, Dmitri Zuev, Alec White,
  David Stuck, Shaama M.S., Shane Yost, Joonho Lee, David Small,
  Daniel Levine, Susi Lehtola, Hugh Burton, Evgeny Epifanovsky
 -----------------------------------------------------------------------
 Exchange:     0.2220 Hartree-Fock + 1.0000 wB97X-D + LR-HF
 Correlation:  1.0000 wB97X-D
 Using SG-2 standard quadrature grid
 Dispersion:   Grimme D
 using 32 threads for integral computing
 -------------------------------------------------------
 OpenMP Integral computing Module                
 Release: version 1.0, May 2013, Q-Chem Inc. Pittsburgh 
 -------------------------------------------------------
 using 32 threads for integral computing
 -------------------------------------------------------
 OpenMP Integral computing Module                
 Release: version 1.0, May 2013, Q-Chem Inc. Pittsburgh 
 -------------------------------------------------------
 -------------------------------------------------------
 OpenMP BLAS3 based DFT computing Module                
 Release: version 1.0, May 2013, Q-Chem Inc. Pittsburgh 
 -------------------------------------------------------
 A restricted SCF calculation will be
 performed using Roothaan-Hall, GDM
 SCF converges when RMS gradient is below 1.0e-08
 ---------------------------------------
  Cycle       Energy         DIIS error
 ---------------------------------------
    1    -424.0151818711      4.51e-02  Roothaan Step
 ---------------------------------------
  Cycle       Energy        RMS Gradient
 ---------------------------------------
    1    -422.0531467446      1.86e-01   Descent step
    2    -422.1951330685      5.69e-02   Normal BFGS step
    3    -422.2117917913      4.46e-02   Normal BFGS step
    4    -422.2158148765      1.37e-02   Normal BFGS step
    5    -422.2171442012      2.68e-03   Normal BFGS step
    6    -422.2172204149      1.34e-03   Normal BFGS step
    7    -422.2172483491      2.35e-04   Normal BFGS step
    8    -422.2172487731      5.66e-05   Normal BFGS step
    9    -422.2172488506      1.45e-05   Normal BFGS step
   10    -422.2172488549      9.79e-06   Normal BFGS step
   11    -422.2172488555      2.71e-06   Normal BFGS step
   12    -422.2172488556      4.42e-07   Normal BFGS step
   13    -422.2172488556      1.63e-07   Normal BFGS step
   14    -422.2172488556      3.12e-08   Normal BFGS step
   15    -422.2172488556      1.71e-08   Normal BFGS step
   16    -422.2172488556      1.26e-08   Normal BFGS step
   17    -422.2172488556      6.43e-09  Convergence criterion met
 ---------------------------------------
 SCF time:   CPU 453.72s  wall 16.00s 
 SCF   energy in the final basis set =     -422.2172488556
 
 --------------------------------------------------------------
 
                    Orbital Energies (a.u.)
 --------------------------------------------------------------
 
 Alpha MOs
 -- Occupied --
-19.296 -19.296 -19.232 -10.457 -10.345 -10.345 -10.282 -10.282
 -1.256  -1.166  -1.127  -0.898  -0.867  -0.769  -0.720  -0.672
 -0.649  -0.613  -0.580  -0.576  -0.527  -0.519  -0.512  -0.487
 -0.477  -0.469  -0.451  -0.446  -0.442  -0.397  -0.389  -0.378
 -- Virtual --
  0.041   0.048   0.063   0.063   0.073   0.074   0.077   0.091
  0.096   0.111   0.114   0.119   0.127   0.140   0.142   0.146
  0.153   0.166   0.176   0.176   0.184   0.185   0.189   0.193
  0.199   0.202   0.210   0.221   0.228   0.234   0.236   0.242
  0.250   0.250   0.277   0.280   0.281   0.291   0.301   0.312
  0.321   0.329   0.347   0.353   0.354   0.362   0.370   0.377
  0.385   0.391   0.398   0.411   0.426   0.454   0.462   0.473
  0.491   0.498   0.510   0.518   0.537   0.556   0.576   0.601
  0.605   0.613   0.650   0.675   0.701   0.713   0.718   0.725
  0.734   0.736   0.743   0.752   0.754   0.761   0.769   0.790
  0.812   0.834   0.848   0.862   0.895   0.973   1.017   1.041
  1.076   1.144   1.153   1.180   1.187   1.218   1.246   1.258
  1.273   1.286   1.306   1.382   1.386   1.401   1.456   1.515
  1.521   1.617   1.623   1.626   1.676   1.680   1.708   1.709
  1.717   1.764   1.775   1.806   1.835   1.840   1.850   1.857
  1.935   1.952   1.988   2.014   2.074   2.145   2.186   2.538
  2.544   2.580   2.591   2.595   2.596   2.600   2.601   2.659
  2.709   2.710   2.904   2.905   2.920   2.956   3.019   3.024
  3.058   3.075   3.143   3.214   3.227   3.237   3.242   3.273
  3.292   3.330   3.335   3.355   3.355   3.495   3.506   3.693
  3.746   3.853   3.978   4.066   4.092   4.234   4.257   5.109
  5.133   5.158   5.319   5.348   5.484   5.665   5.966   5.999
 23.621  23.682  23.820  23.821  23.964  50.016  50.072  50.159
 --------------------------------------------------------------
 
          Ground-State Mulliken Net Atomic Charges

     Atom                 Charge (a.u.)
  ----------------------------------------
      1 O                    -0.036741
      2 O                    -0.036740
      3 O                    -0.277589
      4 C                    -0.290742
      5 C                    -0.290743
      6 C                    -0.949279
      7 C                    -0.949279
      8 C                     0.115854
      9 H                     0.285927
     10 H                     0.285922
     11 H                     0.285922
     12 H                     0.285926
     13 H                     0.253430
     14 H                     0.266174
     15 H                     0.266177
     16 H                     0.253430
     17 H                     0.266177
     18 H                     0.266174
  ----------------------------------------
  Sum of atomic charges =    -0.000000

 -----------------------------------------------------------------
                    Cartesian Multipole Moments
 -----------------------------------------------------------------
    Charge (ESU x 10^10)
                -0.0000
    Dipole Moment (Debye)
         X       0.0000      Y       0.5806      Z      -0.0001
       Tot       0.5806
    Quadrupole Moments (Debye-Ang)
        XX     -35.8642     XY       0.0000     YY     -55.1256
        XZ       0.0000     YZ      -0.0000     ZZ     -47.0426
    Octopole Moments (Debye-Ang^2)
       XXX       0.0002    XXY      -4.8895    XYY       0.0000
       YYY       7.5744    XXZ       0.0004    XYZ       0.0000
       YYZ       0.0001    XZZ       0.0000    YZZ      -0.8705
       ZZZ       0.0002
    Hexadecapole Moments (Debye-Ang^3)
      XXXX   -1531.8637   XXXY       0.0001   XXYY    -311.5085
      XYYY       0.0000   YYYY    -260.0756   XXXZ       0.0001
      XXYZ       0.0004   XYYZ       0.0000   YYYZ      -0.0000
      XXZZ    -282.4367   XYZZ      -0.0000   YYZZ     -48.2713
      XZZZ       0.0000   YZZZ      -0.0001   ZZZZ     -71.7944
 -----------------------------------------------------------------
 Calculating MO derivatives via CPSCF
 D1JvT checksum  = 1444176 35835.0534858553
 D1KAT checksum  = 3165696 3088.8313792743
 D1JvT checksum  = 1444176 23335.2803411361
 D1KAT checksum  = 3165696 1355.6310788372
   1         3          54      0.201667    0.027133
   2         3          54      0.034545    0.006165
   3         3          54      0.004242    0.000768
   4         3          54      0.000534    0.000102
   5        36          21      0.000045    0.000012
   6        56           1      0.000001    0.000001
   7        57           0      0.000000    0.000000    Roots Converged
 Time for AOints: 132.1 s (CPU) 6.9 s (wall)
 ------------------------------------------------------------------------------
                     AOints        : Timing summary (seconds)
 ------------------------------------------------------------------------------
     job step          cpu (% of tot)      sys (% of tot)     wall (% of tot)
 ------------------------------------------------------------------------------
  cpscf_lag         0.1185E+04 (51.2)   0.5745E-02 (60.8)   0.2275E+03 (53.7)
  iterzp            0.9961E+03 (43.1)   0.2758E-02 (29.2)   0.1892E+03 (44.6)
  make_fx           0.0000E+00 ( 0.0)   0.0000E+00 ( 0.0)   0.0000E+00 ( 0.0)
  AOints            0.1321E+03 ( 5.7)   0.9380E-03 ( 9.9)   0.6949E+01 ( 1.6)
 ------------------------------------------------------------------------------
   Grand Totals     0.2313E+04          0.9444E-02          0.4239E+03
 ------------------------------------------------------------------------------
 Calculating analytic Hessian of the SCF energy
 Polarizability Matrix (a.u.)
            1           2           3
    1 -86.7481387  -0.0000029  -0.0000238
    2  -0.0000029 -67.5110427   0.0000860
    3  -0.0000238   0.0000860 -56.3621924
atom: 0 element: 8
atom: 1 element: 8
atom: 2 element: 8
atom: 3 element: 6
atom: 4 element: 6
atom: 5 element: 6
atom: 6 element: 6
atom: 7 element: 6
atom: 8 element: 1
atom: 9 element: 1
atom: 10 element: 1
atom: 11 element: 1
atom: 12 element: 1
atom: 13 element: 1
atom: 14 element: 1
atom: 15 element: 1
atom: 16 element: 1
atom: 17 element: 1
 
 Direct stationary perturbation theory relativistic correction:
 
 rels  =       0.135278309738
 relv  =      -0.629623379549
 rel2e =       0.000000000000
 E_rel =      -0.494345069812
 
 Hessian of the SCF Energy
            1           2           3           4           5           6
    1   0.5696502   0.0440613   0.0000057  -0.1075773  -0.0169258  -0.0000009
    2   0.0440613   0.3762125   0.0000075   0.0169258   0.0229749   0.0000001
    3   0.0000057   0.0000075   0.0779421   0.0000006   0.0000001   0.0126805
    4  -0.1075773   0.0169258   0.0000006   0.5696519  -0.0440582  -0.0000042
    5  -0.0169258   0.0229749   0.0000001  -0.0440582   0.3762124   0.0000075
    6  -0.0000009   0.0000001   0.0126805  -0.0000042   0.0000075   0.0779421
    7  -0.0062325  -0.0554230  -0.0000001  -0.0062326   0.0554230   0.0000001
    8  -0.0525381  -0.0714231   0.0000002   0.0525381  -0.0714230   0.0000003
    9  -0.0000011  -0.0000018   0.0304785   0.0000011  -0.0000017   0.0304784
   10  -0.1499223   0.0421629  -0.0000005   0.0089035  -0.0016999  -0.0000002
   11   0.0722484  -0.1313881  -0.0000017  -0.0087938  -0.0030543  -0.0000002
   12   0.0000007  -0.0000020  -0.0670248   0.0000000  -0.0000002   0.0032839
   13   0.0089034   0.0016999   0.0000002  -0.1499255  -0.0421644   0.0000000
   14   0.0087938  -0.0030543  -0.0000002  -0.0722501  -0.1313890  -0.0000020
   15   0.0000000  -0.0000002   0.0032839  -0.0000011  -0.0000021  -0.0670247
   16  -0.0453320  -0.0219308   0.0000001  -0.0022946  -0.0011105  -0.0000001
   17   0.0211775   0.0161417   0.0000000   0.0024665   0.0008990   0.0000000
   18   0.0000003   0.0000001   0.0017501  -0.0000000   0.0000000  -0.0000437
   19  -0.0022945   0.0011105   0.0000001  -0.0453320   0.0219307   0.0000001
   20  -0.0024665   0.0008990   0.0000000  -0.0211776   0.0161418   0.0000002
   21  -0.0000000   0.0000000  -0.0000437  -0.0000004   0.0000002   0.0017501
   22  -0.2220572  -0.0725637  -0.0000053  -0.2220557   0.0725623   0.0000048
   23  -0.0949850  -0.1853559  -0.0000060   0.0949837  -0.1853549  -0.0000058
   24  -0.0000045  -0.0000038  -0.0728677   0.0000040  -0.0000036  -0.0728678
   25  -0.0203468   0.0235074  -0.0271364  -0.0018366  -0.0002901   0.0007267
   26   0.0128663  -0.0125486   0.0126756   0.0008586   0.0001226  -0.0000021
   27  -0.0045514  -0.0018914   0.0066232  -0.0001765  -0.0006931  -0.0004085
   28  -0.0203463   0.0235086   0.0271358  -0.0018364  -0.0002901  -0.0007265
   29   0.0128660  -0.0125494  -0.0126754   0.0008586   0.0001226   0.0000021
   30   0.0045513   0.0018915   0.0066228   0.0001765   0.0006931  -0.0004084
   31  -0.0018365   0.0002901   0.0007265  -0.0203464  -0.0235085  -0.0271361
   32  -0.0008586   0.0001226   0.0000021  -0.0128660  -0.0125493  -0.0126756
   33  -0.0001765   0.0006931  -0.0004084  -0.0045515   0.0018913   0.0066227
   34  -0.0018366   0.0002901  -0.0007267  -0.0203467  -0.0235077   0.0271362
   35  -0.0008586   0.0001226  -0.0000021  -0.0128664  -0.0125487   0.0126755
   36   0.0001765  -0.0006931  -0.0004085   0.0045514  -0.0018915   0.0066233
   37  -0.0056702  -0.0053113  -0.0000001  -0.0011671  -0.0002342  -0.0000000
   38  -0.0064454  -0.0034647  -0.0000000  -0.0007971  -0.0002605  -0.0000000
   39   0.0000000   0.0000001   0.0008842   0.0000000   0.0000000  -0.0000147
   40   0.0028354   0.0009059   0.0000838   0.0001976   0.0001870  -0.0000366
   41   0.0008008   0.0016268  -0.0011230  -0.0003330   0.0001589   0.0000287
   42   0.0006378  -0.0002873   0.0002335   0.0002001  -0.0000959   0.0000178
   43   0.0028353   0.0009059  -0.0000838   0.0001976   0.0001870   0.0000366
   44   0.0008007   0.0016268   0.0011229  -0.0003330   0.0001589  -0.0000286
   45  -0.0006379   0.0002871   0.0002334  -0.0002001   0.0000959   0.0000178
   46  -0.0011672   0.0002342   0.0000000  -0.0056703   0.0053113   0.0000001
   47   0.0007971  -0.0002605  -0.0000000   0.0064454  -0.0034647  -0.0000001
   48  -0.0000000   0.0000000  -0.0000147   0.0000000   0.0000000   0.0008842
   49   0.0001976  -0.0001870  -0.0000366   0.0028353  -0.0009059   0.0000837
   50   0.0003330   0.0001589  -0.0000286  -0.0008007   0.0016268   0.0011229
   51   0.0002001   0.0000959   0.0000178   0.0006379   0.0002871   0.0002334
   52   0.0001976  -0.0001870   0.0000366   0.0028354  -0.0009059  -0.0000838
   53   0.0003330   0.0001589   0.0000287  -0.0008008   0.0016268  -0.0011230
   54  -0.0002001  -0.0000959   0.0000178  -0.0006378  -0.0002872   0.0002334
            7           8           9          10          11          12
    1  -0.0062325  -0.0525381  -0.0000011  -0.1499223   0.0722484   0.0000007
    2  -0.0554230  -0.0714231  -0.0000018   0.0421629  -0.1313881  -0.0000020
    3  -0.0000001   0.0000002   0.0304785  -0.0000005  -0.0000017  -0.0670248
    4  -0.0062326   0.0525381   0.0000011   0.0089035  -0.0087938   0.0000000
    5   0.0554230  -0.0714230  -0.0000017  -0.0016999  -0.0030543  -0.0000002
    6   0.0000001   0.0000003   0.0304784  -0.0000002  -0.0000002   0.0032839
    7   0.1218046   0.0000001   0.0000001   0.0042151  -0.0057139   0.0000003
    8   0.0000001   0.8593627  -0.0000095   0.0196455  -0.0090294  -0.0000002
    9   0.0000001  -0.0000095   0.0397094  -0.0000002   0.0000001  -0.0039522
   10   0.0042151   0.0196455  -0.0000002   0.4562218   0.0401459   0.0000031
   11  -0.0057139  -0.0090294   0.0000001   0.0401459   0.5708364   0.0000030
   12   0.0000003  -0.0000002  -0.0039522   0.0000031   0.0000030   0.6260784
   13   0.0042152  -0.0196455   0.0000002  -0.0024615   0.0005824   0.0000000
   14   0.0057140  -0.0090295   0.0000001  -0.0005824   0.0016395  -0.0000000
   15  -0.0000002  -0.0000002  -0.0039522  -0.0000001  -0.0000000   0.0022756
   16   0.0008587  -0.0020480   0.0000000  -0.1378129  -0.0676102   0.0000017
   17  -0.0010795   0.0023772  -0.0000000  -0.0826061  -0.1626526   0.0000015
   18  -0.0000002   0.0000001   0.0010308   0.0000019   0.0000014  -0.0870389
   19   0.0008587   0.0020480  -0.0000000   0.0001610  -0.0004399   0.0000000
   20   0.0010795   0.0023772  -0.0000000   0.0002600  -0.0004621  -0.0000000
   21   0.0000001   0.0000001   0.0010308   0.0000000  -0.0000000   0.0000606
   22  -0.1171213  -0.0000001  -0.0000000  -0.0660025  -0.0110800  -0.0000014
   23  -0.0000001  -0.7094686   0.0000129  -0.0118445   0.0246871   0.0000015
   24  -0.0000000   0.0000092  -0.0955059  -0.0000002   0.0000009  -0.0037081
   25  -0.0001922  -0.0031708   0.0004969  -0.0490593  -0.0012590   0.0004193
   26   0.0000129   0.0014076  -0.0001652   0.0030100  -0.1361469   0.1200885
   27   0.0010638  -0.0020400   0.0003035  -0.0066100   0.1228664  -0.2350400
   28  -0.0001922  -0.0031708  -0.0004969  -0.0490589  -0.0012620  -0.0004241
   29   0.0000128   0.0014076   0.0001652   0.0030080  -0.1361551  -0.1200926
   30  -0.0010640   0.0020401   0.0003033   0.0066059  -0.1228706  -0.2350336
   31  -0.0001922   0.0031707   0.0004969   0.0004268  -0.0001987   0.0003390
   32  -0.0000128   0.0014076   0.0001652   0.0002523  -0.0000904   0.0000939
   33   0.0010640   0.0020401   0.0003034   0.0000274  -0.0000417  -0.0000903
   34  -0.0001922   0.0031708  -0.0004969   0.0004269  -0.0001987  -0.0003390
   35  -0.0000129   0.0014077  -0.0001652   0.0002523  -0.0000904  -0.0000939
   36  -0.0010638  -0.0020400   0.0003035  -0.0000274   0.0000417  -0.0000903
   37  -0.0001825  -0.0010112   0.0000000  -0.0176288   0.0157984   0.0000001
   38   0.0001977  -0.0003113   0.0000000  -0.0186493   0.0128472   0.0000002
   39   0.0000000  -0.0000000  -0.0001747   0.0000004  -0.0000004  -0.0024418
   40  -0.0003080   0.0007678  -0.0001442   0.0007254  -0.0160405   0.0235046
   41  -0.0003642   0.0003121  -0.0001676   0.0034407  -0.0155796   0.0215841
   42  -0.0000142  -0.0002841  -0.0000455   0.0000369  -0.0009526   0.0013934
   43  -0.0003080   0.0007678   0.0001441   0.0007248  -0.0160407  -0.0235042
   44  -0.0003642   0.0003121   0.0001676   0.0034402  -0.0155797  -0.0215836
   45   0.0000143   0.0002841  -0.0000455  -0.0000369   0.0009536   0.0013947
   46  -0.0001825   0.0010112  -0.0000000   0.0003151  -0.0002381  -0.0000000
   47  -0.0001977  -0.0003113   0.0000000  -0.0000243   0.0001276   0.0000000
   48  -0.0000000  -0.0000000  -0.0001747   0.0000000  -0.0000000  -0.0000427
   49  -0.0003080  -0.0007678  -0.0001441  -0.0000871   0.0000502   0.0000018
   50   0.0003642   0.0003121   0.0001676  -0.0001056   0.0000455  -0.0000376
   51  -0.0000142   0.0002841  -0.0000455  -0.0000273   0.0000133  -0.0000119
   52  -0.0003080  -0.0007678   0.0001442  -0.0000871   0.0000502  -0.0000018
   53   0.0003642   0.0003121  -0.0001676  -0.0001056   0.0000455   0.0000376
   54   0.0000142  -0.0002841  -0.0000455   0.0000273  -0.0000133  -0.0000119
           13          14          15          16          17          18
    1   0.0089034   0.0087938   0.0000000  -0.0453320   0.0211775   0.0000003
    2   0.0016999  -0.0030543  -0.0000002  -0.0219308   0.0161417   0.0000001
    3   0.0000002  -0.0000002   0.0032839   0.0000001   0.0000000   0.0017501
    4  -0.1499255  -0.0722501  -0.0000011  -0.0022946   0.0024665  -0.0000000
    5  -0.0421644  -0.1313890  -0.0000021  -0.0011105   0.0008990   0.0000000
    6   0.0000000  -0.0000020  -0.0670247  -0.0000001   0.0000000  -0.0000437
    7   0.0042152   0.0057140  -0.0000002   0.0008587  -0.0010795  -0.0000002
    8  -0.0196455  -0.0090295  -0.0000002  -0.0020480   0.0023772   0.0000001
    9   0.0000002   0.0000001  -0.0039522   0.0000000  -0.0000000   0.0010308
   10  -0.0024615  -0.0005824  -0.0000001  -0.1378129  -0.0826061   0.0000019
   11   0.0005824   0.0016395  -0.0000000  -0.0676102  -0.1626526   0.0000014
   12   0.0000000  -0.0000000   0.0022756   0.0000017   0.0000015  -0.0870389
   13   0.4562252  -0.0401435  -0.0000033   0.0001610  -0.0002600  -0.0000000
   14  -0.0401435   0.5708365   0.0000020   0.0004399  -0.0004621  -0.0000000
   15  -0.0000033   0.0000020   0.6260769  -0.0000000  -0.0000000   0.0000606
   16   0.0001610   0.0004399  -0.0000000   0.5432806  -0.0386125   0.0000024
   17  -0.0002600  -0.0004621  -0.0000000  -0.0386125   0.5538610   0.0000010
   18  -0.0000000  -0.0000000   0.0000606   0.0000024   0.0000010   0.5863990
   19  -0.1378128   0.0676099  -0.0000009  -0.0001319   0.0001294  -0.0000000
   20   0.0826058  -0.1626521   0.0000008  -0.0001294   0.0001343   0.0000000
   21  -0.0000009   0.0000007  -0.0870388   0.0000000   0.0000000  -0.0000028
   22  -0.0660026   0.0110800   0.0000013  -0.0022093   0.0009477  -0.0000001
   23   0.0118444   0.0246871   0.0000014   0.0061699  -0.0063013  -0.0000002
   24   0.0000000   0.0000009  -0.0037082   0.0000006  -0.0000002  -0.0002524
   25   0.0004269   0.0001987   0.0003390   0.0022245  -0.0145524   0.0217355
   26  -0.0002523  -0.0000904  -0.0000939  -0.0001948  -0.0117363   0.0183933
   27   0.0000274   0.0000417  -0.0000903   0.0005752  -0.0023552   0.0028436
   28   0.0004268   0.0001987  -0.0003390   0.0022240  -0.0145527  -0.0217350
   29  -0.0002523  -0.0000904   0.0000939  -0.0001950  -0.0117364  -0.0183925
   30  -0.0000274  -0.0000417  -0.0000903  -0.0005753   0.0023561   0.0028447
   31  -0.0490591   0.0012616   0.0004237  -0.0000616   0.0000663  -0.0000020
   32  -0.0030083  -0.1361525  -0.1200912  -0.0000316   0.0000392  -0.0000080
   33  -0.0066063  -0.1228692  -0.2350353  -0.0000230   0.0000245   0.0000001
   34  -0.0490592   0.0012590  -0.0004192  -0.0000616   0.0000663   0.0000020
   35  -0.0030102  -0.1361493   0.1200893  -0.0000316   0.0000392   0.0000080
   36   0.0066100   0.1228672  -0.2350368   0.0000230  -0.0000245   0.0000001
   37   0.0003151   0.0002381   0.0000000  -0.2609210   0.1050230   0.0000021
   38   0.0000243   0.0001276   0.0000000   0.1080821  -0.1050438  -0.0000010
   39  -0.0000000  -0.0000000  -0.0000427   0.0000021  -0.0000009  -0.0483623
   40  -0.0000871  -0.0000502   0.0000018  -0.0499493   0.0108772  -0.0164282
   41   0.0001056   0.0000455   0.0000376   0.0085741  -0.1377438   0.1244047
   42  -0.0000273  -0.0000133  -0.0000119  -0.0149339   0.1261141  -0.2296088
   43  -0.0000871  -0.0000502  -0.0000018  -0.0499486   0.0108728   0.0164213
   44   0.0001056   0.0000455  -0.0000376   0.0085699  -0.1377487  -0.1244069
   45   0.0000273   0.0000133  -0.0000119   0.0149272  -0.1261164  -0.2296057
   46  -0.0176288  -0.0157985  -0.0000002  -0.0000579   0.0000591   0.0000000
   47   0.0186493   0.0128472   0.0000003   0.0000407  -0.0000465   0.0000000
   48  -0.0000002  -0.0000002  -0.0024418  -0.0000000   0.0000000  -0.0000020
   49   0.0007249   0.0160405   0.0235044   0.0000159  -0.0000113   0.0000004
   50  -0.0034402  -0.0155795  -0.0215837   0.0000089  -0.0000101  -0.0000027
   51   0.0000369   0.0009534   0.0013944   0.0000014  -0.0000108  -0.0000062
   52   0.0007253   0.0160407  -0.0235044   0.0000159  -0.0000113  -0.0000004
   53  -0.0034406  -0.0155797   0.0215839   0.0000089  -0.0000101   0.0000027
   54  -0.0000369  -0.0009528   0.0013936  -0.0000014   0.0000108  -0.0000062
           19          20          21          22          23          24
    1  -0.0022945  -0.0024665  -0.0000000  -0.2220572  -0.0949850  -0.0000045
    2   0.0011105   0.0008990   0.0000000  -0.0725637  -0.1853559  -0.0000038
    3   0.0000001   0.0000000  -0.0000437  -0.0000053  -0.0000060  -0.0728677
    4  -0.0453320  -0.0211776  -0.0000004  -0.2220557   0.0949837   0.0000040
    5   0.0219307   0.0161418   0.0000002   0.0725623  -0.1853549  -0.0000036
    6   0.0000001   0.0000002   0.0017501   0.0000048  -0.0000058  -0.0728678
    7   0.0008587   0.0010795   0.0000001  -0.1171213  -0.0000001  -0.0000000
    8   0.0020480   0.0023772   0.0000001  -0.0000001  -0.7094686   0.0000092
    9  -0.0000000  -0.0000000   0.0010308  -0.0000000   0.0000129  -0.0955059
   10   0.0001610   0.0002600   0.0000000  -0.0660025  -0.0118445  -0.0000002
   11  -0.0004399  -0.0004621  -0.0000000  -0.0110800   0.0246871   0.0000009
   12   0.0000000  -0.0000000   0.0000606  -0.0000014   0.0000015  -0.0037081
   13  -0.1378128   0.0826058  -0.0000009  -0.0660026   0.0118444   0.0000000
   14   0.0676099  -0.1626521   0.0000007   0.0110800   0.0246871   0.0000009
   15  -0.0000009   0.0000008  -0.0870388   0.0000013   0.0000014  -0.0037082
   16  -0.0001319  -0.0001294   0.0000000  -0.0022093   0.0061699   0.0000006
   17   0.0001294   0.0001343   0.0000000   0.0009477  -0.0063013  -0.0000002
   18  -0.0000000   0.0000000  -0.0000028  -0.0000001  -0.0000002  -0.0002524
   19   0.5432803   0.0386129  -0.0000020  -0.0022093  -0.0061699  -0.0000005
   20   0.0386129   0.5538610   0.0000006  -0.0009477  -0.0063013  -0.0000002
   21  -0.0000020   0.0000006   0.5863988   0.0000000  -0.0000002  -0.0002524
   22  -0.0022093  -0.0009477   0.0000000   0.6772851   0.0000014   0.0000006
   23  -0.0061699  -0.0063013  -0.0000002   0.0000014   1.0511369  -0.0000031
   24  -0.0000005  -0.0000002  -0.0002524   0.0000006  -0.0000031   0.2443582
   25  -0.0000616  -0.0000663  -0.0000020   0.0049896   0.0086007  -0.0028072
   26   0.0000316   0.0000392   0.0000080  -0.0034524  -0.0022600   0.0000372
   27  -0.0000230  -0.0000245   0.0000001   0.0014863   0.0041250   0.0008583
   28  -0.0000616  -0.0000663   0.0000020   0.0049892   0.0086007   0.0028073
   29   0.0000316   0.0000392  -0.0000080  -0.0034525  -0.0022597  -0.0000374
   30   0.0000229   0.0000244   0.0000001  -0.0014863  -0.0041253   0.0008584
   31   0.0022240   0.0145525   0.0217351   0.0049892  -0.0086006  -0.0028074
   32   0.0001950  -0.0117363  -0.0183927   0.0034525  -0.0022597  -0.0000374
   33   0.0005753   0.0023560   0.0028445   0.0014863  -0.0041253   0.0008584
   34   0.0022244   0.0145526  -0.0217353   0.0049896  -0.0086007   0.0028072
   35   0.0001949  -0.0117364   0.0183931   0.0034525  -0.0022600   0.0000372
   36  -0.0005752  -0.0023554   0.0028437  -0.0014863   0.0041250   0.0008583
   37  -0.0000579  -0.0000591  -0.0000000   0.0011814   0.0022118   0.0000002
   38  -0.0000407  -0.0000465  -0.0000000  -0.0005579   0.0016797   0.0000001
   39   0.0000000   0.0000000  -0.0000020   0.0000000   0.0000000   0.0006205
   40   0.0000159   0.0000113   0.0000004  -0.0004869  -0.0013668  -0.0000707
   41  -0.0000089  -0.0000101   0.0000027   0.0004333  -0.0005123  -0.0000724
   42   0.0000014   0.0000108  -0.0000062  -0.0000508   0.0001098   0.0000325
   43   0.0000159   0.0000113  -0.0000004  -0.0004869  -0.0013668   0.0000706
   44  -0.0000089  -0.0000101  -0.0000027   0.0004334  -0.0005123   0.0000724
   45  -0.0000014  -0.0000108  -0.0000062   0.0000508  -0.0001097   0.0000325
   46  -0.2609207  -0.1050233  -0.0000025   0.0011814  -0.0022118  -0.0000001
   47  -0.1080824  -0.1050442  -0.0000013   0.0005579   0.0016797   0.0000001
   48  -0.0000025  -0.0000012  -0.0483624  -0.0000000   0.0000000   0.0006205
   49  -0.0499487  -0.0108729  -0.0164216  -0.0004869   0.0013668  -0.0000707
   50  -0.0085700  -0.1377465  -0.1244060  -0.0004334  -0.0005123   0.0000724
   51  -0.0149275  -0.1261155  -0.2296078  -0.0000508  -0.0001097   0.0000325
   52  -0.0499492  -0.0108768   0.0164275  -0.0004869   0.0013668   0.0000707
   53  -0.0085737  -0.1377461   0.1244055  -0.0004333  -0.0005123  -0.0000724
   54   0.0149332   0.1261149  -0.2296064   0.0000508   0.0001098   0.0000325
           25          26          27          28          29          30
    1  -0.0203468   0.0128663  -0.0045514  -0.0203463   0.0128660   0.0045513
    2   0.0235074  -0.0125486  -0.0018914   0.0235086  -0.0125494   0.0018915
    3  -0.0271364   0.0126756   0.0066232   0.0271358  -0.0126754   0.0066228
    4  -0.0018366   0.0008586  -0.0001765  -0.0018364   0.0008586   0.0001765
    5  -0.0002901   0.0001226  -0.0006931  -0.0002901   0.0001226   0.0006931
    6   0.0007267  -0.0000021  -0.0004085  -0.0007265   0.0000021  -0.0004084
    7  -0.0001922   0.0000129   0.0010638  -0.0001922   0.0000128  -0.0010640
    8  -0.0031708   0.0014076  -0.0020400  -0.0031708   0.0014076   0.0020401
    9   0.0004969  -0.0001652   0.0003035  -0.0004969   0.0001652   0.0003033
   10  -0.0490593   0.0030100  -0.0066100  -0.0490589   0.0030080   0.0066059
   11  -0.0012590  -0.1361469   0.1228664  -0.0012620  -0.1361551  -0.1228706
   12   0.0004193   0.1200885  -0.2350400  -0.0004241  -0.1200926  -0.2350336
   13   0.0004269  -0.0002523   0.0000274   0.0004268  -0.0002523  -0.0000274
   14   0.0001987  -0.0000904   0.0000417   0.0001987  -0.0000904  -0.0000417
   15   0.0003390  -0.0000939  -0.0000903  -0.0003390   0.0000939  -0.0000903
   16   0.0022245  -0.0001948   0.0005752   0.0022240  -0.0001950  -0.0005753
   17  -0.0145524  -0.0117363  -0.0023552  -0.0145527  -0.0117364   0.0023561
   18   0.0217355   0.0183933   0.0028436  -0.0217350  -0.0183925   0.0028447
   19  -0.0000616   0.0000316  -0.0000230  -0.0000616   0.0000316   0.0000229
   20  -0.0000663   0.0000392  -0.0000245  -0.0000663   0.0000392   0.0000244
   21  -0.0000020   0.0000080   0.0000001   0.0000020  -0.0000080   0.0000001
   22   0.0049896  -0.0034524   0.0014863   0.0049892  -0.0034525  -0.0014863
   23   0.0086007  -0.0022600   0.0041250   0.0086007  -0.0022597  -0.0041253
   24  -0.0028072   0.0000372   0.0008583   0.0028073  -0.0000374   0.0008584
   25   0.0641809  -0.0088007   0.0075906   0.0020583  -0.0016150   0.0000200
   26  -0.0088007   0.1502174  -0.1352373  -0.0016153   0.0120311  -0.0153251
   27   0.0075906  -0.1352373   0.2433641  -0.0000204   0.0153242  -0.0207896
   28   0.0020583  -0.0016153  -0.0000204   0.0641807  -0.0087983  -0.0075858
   29  -0.0016150   0.0120311   0.0153242  -0.0087983   0.1502262   0.1352414
   30   0.0000200  -0.0153251  -0.0207896  -0.0075858   0.1352414   0.2433571
   31  -0.0000284   0.0000361  -0.0000410  -0.0001987   0.0000713   0.0000185
   32  -0.0000361   0.0000049   0.0000141  -0.0000713   0.0000567   0.0000052
   33  -0.0000410  -0.0000141  -0.0000038  -0.0000185   0.0000052   0.0000401
   34  -0.0001988   0.0000713  -0.0000185  -0.0000284   0.0000361   0.0000410
   35  -0.0000713   0.0000567  -0.0000052  -0.0000361   0.0000049  -0.0000141
   36   0.0000185  -0.0000052   0.0000401   0.0000410   0.0000141  -0.0000038
   37   0.0004642  -0.0002233   0.0007247   0.0004642  -0.0002233  -0.0007247
   38   0.0008485   0.0006512   0.0005060   0.0008485   0.0006512  -0.0005060
   39  -0.0000488  -0.0000133  -0.0000694   0.0000488   0.0000133  -0.0000693
   40  -0.0034755  -0.0033768  -0.0004244   0.0008542   0.0010150  -0.0003866
   41  -0.0040258  -0.0020323  -0.0009104   0.0007046   0.0003147  -0.0002824
   42  -0.0006430  -0.0002478   0.0014991   0.0006665   0.0000899   0.0008626
   43   0.0008542   0.0010150   0.0003866  -0.0034755  -0.0033767   0.0004247
   44   0.0007046   0.0003147   0.0002824  -0.0040257  -0.0020322   0.0009106
   45  -0.0006666  -0.0000899   0.0008626   0.0006433   0.0002481   0.0014991
   46  -0.0000414   0.0000278  -0.0000097  -0.0000414   0.0000278   0.0000097
   47   0.0000150  -0.0000078   0.0000047   0.0000150  -0.0000078  -0.0000047
   48  -0.0000037  -0.0000013   0.0000019   0.0000037   0.0000013   0.0000019
   49   0.0000146  -0.0000022   0.0000085   0.0000276  -0.0000117  -0.0000119
   50   0.0000065  -0.0000161   0.0000013   0.0000060  -0.0000073   0.0000088
   51   0.0000005  -0.0000033  -0.0000000  -0.0000018   0.0000041   0.0000049
   52   0.0000276  -0.0000117   0.0000119   0.0000146  -0.0000022  -0.0000085
   53   0.0000060  -0.0000073  -0.0000088   0.0000065  -0.0000161  -0.0000013
   54   0.0000018  -0.0000041   0.0000049  -0.0000005   0.0000033  -0.0000000
           31          32          33          34          35          36
    1  -0.0018365  -0.0008586  -0.0001765  -0.0018366  -0.0008586   0.0001765
    2   0.0002901   0.0001226   0.0006931   0.0002901   0.0001226  -0.0006931
    3   0.0007265   0.0000021  -0.0004084  -0.0007267  -0.0000021  -0.0004085
    4  -0.0203464  -0.0128660  -0.0045515  -0.0203467  -0.0128664   0.0045514
    5  -0.0235085  -0.0125493   0.0018913  -0.0235077  -0.0125487  -0.0018915
    6  -0.0271361  -0.0126756   0.0066227   0.0271362   0.0126755   0.0066233
    7  -0.0001922  -0.0000128   0.0010640  -0.0001922  -0.0000129  -0.0010638
    8   0.0031707   0.0014076   0.0020401   0.0031708   0.0014077  -0.0020400
    9   0.0004969   0.0001652   0.0003034  -0.0004969  -0.0001652   0.0003035
   10   0.0004268   0.0002523   0.0000274   0.0004269   0.0002523  -0.0000274
   11  -0.0001987  -0.0000904  -0.0000417  -0.0001987  -0.0000904   0.0000417
   12   0.0003390   0.0000939  -0.0000903  -0.0003390  -0.0000939  -0.0000903
   13  -0.0490591  -0.0030083  -0.0066063  -0.0490592  -0.0030102   0.0066100
   14   0.0012616  -0.1361525  -0.1228692   0.0012590  -0.1361493   0.1228672
   15   0.0004237  -0.1200912  -0.2350353  -0.0004192   0.1200893  -0.2350368
   16  -0.0000616  -0.0000316  -0.0000230  -0.0000616  -0.0000316   0.0000230
   17   0.0000663   0.0000392   0.0000245   0.0000663   0.0000392  -0.0000245
   18  -0.0000020  -0.0000080   0.0000001   0.0000020   0.0000080   0.0000001
   19   0.0022240   0.0001950   0.0005753   0.0022244   0.0001949  -0.0005752
   20   0.0145525  -0.0117363   0.0023560   0.0145526  -0.0117364  -0.0023554
   21   0.0217351  -0.0183927   0.0028445  -0.0217353   0.0183931   0.0028437
   22   0.0049892   0.0034525   0.0014863   0.0049896   0.0034525  -0.0014863
   23  -0.0086006  -0.0022597  -0.0041253  -0.0086007  -0.0022600   0.0041250
   24  -0.0028074  -0.0000374   0.0008584   0.0028072   0.0000372   0.0008583
   25  -0.0000284  -0.0000361  -0.0000410  -0.0001988  -0.0000713   0.0000185
   26   0.0000361   0.0000049  -0.0000141   0.0000713   0.0000567  -0.0000052
   27  -0.0000410   0.0000141  -0.0000038  -0.0000185  -0.0000052   0.0000401
   28  -0.0001987  -0.0000713  -0.0000185  -0.0000284  -0.0000361   0.0000410
   29   0.0000713   0.0000567   0.0000052   0.0000361   0.0000049   0.0000141
   30   0.0000185   0.0000052   0.0000401   0.0000410  -0.0000141  -0.0000038
   31   0.0641810   0.0087987   0.0075863   0.0020583   0.0016152   0.0000204
   32   0.0087987   0.1502235   0.1352401   0.0016150   0.0120311   0.0153245
   33   0.0075863   0.1352401   0.2433592  -0.0000200  -0.0153248  -0.0207897
   34   0.0020583   0.0016150  -0.0000200   0.0641808   0.0088008  -0.0075906
   35   0.0016152   0.0120311  -0.0153248   0.0088008   0.1502201  -0.1352381
   36   0.0000204   0.0153245  -0.0207897  -0.0075906  -0.1352381   0.2433608
   37  -0.0000414  -0.0000278  -0.0000097  -0.0000414  -0.0000278   0.0000097
   38  -0.0000150  -0.0000078  -0.0000047  -0.0000150  -0.0000078   0.0000047
   39  -0.0000037   0.0000013   0.0000019   0.0000037  -0.0000013   0.0000019
   40   0.0000146   0.0000022   0.0000085   0.0000276   0.0000117  -0.0000119
   41  -0.0000065  -0.0000161  -0.0000013  -0.0000060  -0.0000073  -0.0000088
   42   0.0000005   0.0000033  -0.0000000  -0.0000018  -0.0000041   0.0000049
   43   0.0000276   0.0000117   0.0000119   0.0000146   0.0000022  -0.0000085
   44  -0.0000060  -0.0000073   0.0000088  -0.0000065  -0.0000161   0.0000013
   45   0.0000018   0.0000041   0.0000049  -0.0000005  -0.0000033  -0.0000000
   46   0.0004642   0.0002233   0.0007247   0.0004642   0.0002233  -0.0007247
   47  -0.0008485   0.0006512  -0.0005060  -0.0008485   0.0006512   0.0005060
   48  -0.0000488   0.0000133  -0.0000693   0.0000488  -0.0000133  -0.0000694
   49  -0.0034755   0.0033767  -0.0004246   0.0008542  -0.0010150  -0.0003866
   50   0.0040257  -0.0020322   0.0009105  -0.0007047   0.0003147   0.0002824
   51  -0.0006432   0.0002480   0.0014991   0.0006666  -0.0000899   0.0008626
   52   0.0008542  -0.0010150   0.0003866  -0.0034755   0.0033768   0.0004244
   53  -0.0007046   0.0003147  -0.0002824   0.0040258  -0.0020323  -0.0009104
   54  -0.0006666   0.0000899   0.0008626   0.0006430  -0.0002479   0.0014991
           37          38          39          40          41          42
    1  -0.0056702  -0.0064454   0.0000000   0.0028354   0.0008008   0.0006378
    2  -0.0053113  -0.0034647   0.0000001   0.0009059   0.0016268  -0.0002873
    3  -0.0000001  -0.0000000   0.0008842   0.0000838  -0.0011230   0.0002335
    4  -0.0011671  -0.0007971   0.0000000   0.0001976  -0.0003330   0.0002001
    5  -0.0002342  -0.0002605   0.0000000   0.0001870   0.0001589  -0.0000959
    6  -0.0000000  -0.0000000  -0.0000147  -0.0000366   0.0000287   0.0000178
    7  -0.0001825   0.0001977   0.0000000  -0.0003080  -0.0003642  -0.0000142
    8  -0.0010112  -0.0003113  -0.0000000   0.0007678   0.0003121  -0.0002841
    9   0.0000000   0.0000000  -0.0001747  -0.0001442  -0.0001676  -0.0000455
   10  -0.0176288  -0.0186493   0.0000004   0.0007254   0.0034407   0.0000369
   11   0.0157984   0.0128472  -0.0000004  -0.0160405  -0.0155796  -0.0009526
   12   0.0000001   0.0000002  -0.0024418   0.0235046   0.0215841   0.0013934
   13   0.0003151   0.0000243  -0.0000000  -0.0000871   0.0001056  -0.0000273
   14   0.0002381   0.0001276  -0.0000000  -0.0000502   0.0000455  -0.0000133
   15   0.0000000   0.0000000  -0.0000427   0.0000018   0.0000376  -0.0000119
   16  -0.2609210   0.1080821   0.0000021  -0.0499493   0.0085741  -0.0149339
   17   0.1050230  -0.1050438  -0.0000009   0.0108772  -0.1377438   0.1261141
   18   0.0000021  -0.0000010  -0.0483623  -0.0164282   0.1244047  -0.2296088
   19  -0.0000579  -0.0000407   0.0000000   0.0000159  -0.0000089   0.0000014
   20  -0.0000591  -0.0000465   0.0000000   0.0000113  -0.0000101   0.0000108
   21  -0.0000000  -0.0000000  -0.0000020   0.0000004   0.0000027  -0.0000062
   22   0.0011814  -0.0005579   0.0000000  -0.0004869   0.0004333  -0.0000508
   23   0.0022118   0.0016797   0.0000000  -0.0013668  -0.0005123   0.0001098
   24   0.0000002   0.0000001   0.0006205  -0.0000707  -0.0000724   0.0000325
   25   0.0004642   0.0008485  -0.0000488  -0.0034755  -0.0040258  -0.0006430
   26  -0.0002233   0.0006512  -0.0000133  -0.0033768  -0.0020323  -0.0002478
   27   0.0007247   0.0005060  -0.0000694  -0.0004244  -0.0009104   0.0014991
   28   0.0004642   0.0008485   0.0000488   0.0008542   0.0007046   0.0006665
   29  -0.0002233   0.0006512   0.0000133   0.0010150   0.0003147   0.0000899
   30  -0.0007247  -0.0005060  -0.0000693  -0.0003866  -0.0002824   0.0008626
   31  -0.0000414  -0.0000150  -0.0000037   0.0000146  -0.0000065   0.0000005
   32  -0.0000278  -0.0000078   0.0000013   0.0000022  -0.0000161   0.0000033
   33  -0.0000097  -0.0000047   0.0000019   0.0000085  -0.0000013  -0.0000000
   34  -0.0000414  -0.0000150   0.0000037   0.0000276  -0.0000060  -0.0000018
   35  -0.0000278  -0.0000078  -0.0000013   0.0000117  -0.0000073  -0.0000041
   36   0.0000097   0.0000047   0.0000019  -0.0000119  -0.0000088   0.0000049
   37   0.2837558  -0.1156336  -0.0000024  -0.0002275  -0.0002763  -0.0002532
   38  -0.1156336   0.1099094   0.0000013   0.0160837  -0.0083724  -0.0021853
   39  -0.0000024   0.0000013   0.0470950  -0.0252548   0.0106027   0.0012860
   40  -0.0002275   0.0160837  -0.0252548   0.0510775  -0.0072973   0.0167660
   41  -0.0002763  -0.0083724   0.0106027  -0.0072973   0.1489845  -0.1381694
   42  -0.0002532  -0.0021853   0.0012860   0.0167660  -0.1381694   0.2438575
   43  -0.0002269   0.0160844   0.0252547  -0.0012059  -0.0017315  -0.0023963
   44  -0.0002765  -0.0083727  -0.0106027  -0.0017309   0.0128163   0.0159197
   45   0.0002533   0.0021848   0.0012852   0.0023958  -0.0159202  -0.0195204
   46  -0.0000380  -0.0000139  -0.0000000   0.0000111  -0.0000096   0.0000022
   47   0.0000139   0.0000164   0.0000000   0.0000007   0.0000024  -0.0000066
   48   0.0000000   0.0000000  -0.0000002   0.0000000  -0.0000004   0.0000012
   49   0.0000111  -0.0000007   0.0000000  -0.0000068   0.0000029   0.0000028
   50   0.0000096   0.0000024   0.0000004  -0.0000029   0.0000030   0.0000016
   51   0.0000022   0.0000066   0.0000012   0.0000028  -0.0000016  -0.0000058
   52   0.0000111  -0.0000007  -0.0000000  -0.0000122  -0.0000030   0.0000063
   53   0.0000096   0.0000024  -0.0000004   0.0000030   0.0000097  -0.0000027
   54  -0.0000022  -0.0000066   0.0000012  -0.0000063  -0.0000027   0.0000102
           43          44          45          46          47          48
    1   0.0028353   0.0008007  -0.0006379  -0.0011672   0.0007971  -0.0000000
    2   0.0009059   0.0016268   0.0002871   0.0002342  -0.0002605   0.0000000
    3  -0.0000838   0.0011229   0.0002334   0.0000000  -0.0000000  -0.0000147
    4   0.0001976  -0.0003330  -0.0002001  -0.0056703   0.0064454   0.0000000
    5   0.0001870   0.0001589   0.0000959   0.0053113  -0.0034647   0.0000000
    6   0.0000366  -0.0000286   0.0000178   0.0000001  -0.0000001   0.0008842
    7  -0.0003080  -0.0003642   0.0000143  -0.0001825  -0.0001977  -0.0000000
    8   0.0007678   0.0003121   0.0002841   0.0010112  -0.0003113  -0.0000000
    9   0.0001441   0.0001676  -0.0000455  -0.0000000   0.0000000  -0.0001747
   10   0.0007248   0.0034402  -0.0000369   0.0003151  -0.0000243   0.0000000
   11  -0.0160407  -0.0155797   0.0009536  -0.0002381   0.0001276  -0.0000000
   12  -0.0235042  -0.0215836   0.0013947  -0.0000000   0.0000000  -0.0000427
   13  -0.0000871   0.0001056   0.0000273  -0.0176288   0.0186493  -0.0000002
   14  -0.0000502   0.0000455   0.0000133  -0.0157985   0.0128472  -0.0000002
   15  -0.0000018  -0.0000376  -0.0000119  -0.0000002   0.0000003  -0.0024418
   16  -0.0499486   0.0085699   0.0149272  -0.0000579   0.0000407  -0.0000000
   17   0.0108728  -0.1377487  -0.1261164   0.0000591  -0.0000465   0.0000000
   18   0.0164213  -0.1244069  -0.2296057   0.0000000   0.0000000  -0.0000020
   19   0.0000159  -0.0000089  -0.0000014  -0.2609207  -0.1080824  -0.0000025
   20   0.0000113  -0.0000101  -0.0000108  -0.1050233  -0.1050442  -0.0000012
   21  -0.0000004  -0.0000027  -0.0000062  -0.0000025  -0.0000013  -0.0483624
   22  -0.0004869   0.0004334   0.0000508   0.0011814   0.0005579  -0.0000000
   23  -0.0013668  -0.0005123  -0.0001097  -0.0022118   0.0016797   0.0000000
   24   0.0000706   0.0000724   0.0000325  -0.0000001   0.0000001   0.0006205
   25   0.0008542   0.0007046  -0.0006666  -0.0000414   0.0000150  -0.0000037
   26   0.0010150   0.0003147  -0.0000899   0.0000278  -0.0000078  -0.0000013
   27   0.0003866   0.0002824   0.0008626  -0.0000097   0.0000047   0.0000019
   28  -0.0034755  -0.0040257   0.0006433  -0.0000414   0.0000150   0.0000037
   29  -0.0033767  -0.0020322   0.0002481   0.0000278  -0.0000078   0.0000013
   30   0.0004247   0.0009106   0.0014991   0.0000097  -0.0000047   0.0000019
   31   0.0000276  -0.0000060   0.0000018   0.0004642  -0.0008485  -0.0000488
   32   0.0000117  -0.0000073   0.0000041   0.0002233   0.0006512   0.0000133
   33   0.0000119   0.0000088   0.0000049   0.0007247  -0.0005060  -0.0000693
   34   0.0000146  -0.0000065  -0.0000005   0.0004642  -0.0008485   0.0000488
   35   0.0000022  -0.0000161  -0.0000033   0.0002233   0.0006512  -0.0000133
   36  -0.0000085   0.0000013  -0.0000000  -0.0007247   0.0005060  -0.0000694
   37  -0.0002269  -0.0002765   0.0002533  -0.0000380   0.0000139   0.0000000
   38   0.0160844  -0.0083727   0.0021848  -0.0000139   0.0000164   0.0000000
   39   0.0252547  -0.0106027   0.0012852  -0.0000000   0.0000000  -0.0000002
   40  -0.0012059  -0.0017309   0.0023958   0.0000111   0.0000007   0.0000000
   41  -0.0017315   0.0128163  -0.0159202  -0.0000096   0.0000024  -0.0000004
   42  -0.0023963   0.0159197  -0.0195204   0.0000022  -0.0000066   0.0000012
   43   0.0510768  -0.0072930  -0.0167589   0.0000111   0.0000007  -0.0000000
   44  -0.0072930   0.1489897   0.1381716  -0.0000096   0.0000024   0.0000004
   45  -0.0167589   0.1381716   0.2438540  -0.0000022   0.0000066   0.0000012
   46   0.0000111  -0.0000096  -0.0000022   0.2837555   0.1156339   0.0000028
   47   0.0000007   0.0000024   0.0000066   0.1156339   0.1099099   0.0000016
   48  -0.0000000   0.0000004   0.0000012   0.0000028   0.0000016   0.0470950
   49  -0.0000122  -0.0000030  -0.0000063  -0.0002269  -0.0160841  -0.0252548
   50   0.0000030   0.0000097   0.0000027   0.0002765  -0.0083726  -0.0106029
   51   0.0000063   0.0000027   0.0000102  -0.0002533   0.0021847   0.0012852
   52  -0.0000068   0.0000029  -0.0000028  -0.0002274  -0.0160839   0.0252547
   53  -0.0000029   0.0000030  -0.0000016   0.0002763  -0.0083725   0.0106027
   54  -0.0000028   0.0000016  -0.0000058   0.0002532  -0.0021853   0.0012860
           49          50          51          52          53          54
    1   0.0001976   0.0003330   0.0002001   0.0001976   0.0003330  -0.0002001
    2  -0.0001870   0.0001589   0.0000959  -0.0001870   0.0001589  -0.0000959
    3  -0.0000366  -0.0000286   0.0000178   0.0000366   0.0000287   0.0000178
    4   0.0028353  -0.0008007   0.0006379   0.0028354  -0.0008008  -0.0006378
    5  -0.0009059   0.0016268   0.0002871  -0.0009059   0.0016268  -0.0002872
    6   0.0000837   0.0011229   0.0002334  -0.0000838  -0.0011230   0.0002334
    7  -0.0003080   0.0003642  -0.0000142  -0.0003080   0.0003642   0.0000142
    8  -0.0007678   0.0003121   0.0002841  -0.0007678   0.0003121  -0.0002841
    9  -0.0001441   0.0001676  -0.0000455   0.0001442  -0.0001676  -0.0000455
   10  -0.0000871  -0.0001056  -0.0000273  -0.0000871  -0.0001056   0.0000273
   11   0.0000502   0.0000455   0.0000133   0.0000502   0.0000455  -0.0000133
   12   0.0000018  -0.0000376  -0.0000119  -0.0000018   0.0000376  -0.0000119
   13   0.0007249  -0.0034402   0.0000369   0.0007253  -0.0034406  -0.0000369
   14   0.0160405  -0.0155795   0.0009534   0.0160407  -0.0155797  -0.0009528
   15   0.0235044  -0.0215837   0.0013944  -0.0235044   0.0215839   0.0013936
   16   0.0000159   0.0000089   0.0000014   0.0000159   0.0000089  -0.0000014
   17  -0.0000113  -0.0000101  -0.0000108  -0.0000113  -0.0000101   0.0000108
   18   0.0000004  -0.0000027  -0.0000062  -0.0000004   0.0000027  -0.0000062
   19  -0.0499487  -0.0085700  -0.0149275  -0.0499492  -0.0085737   0.0149332
   20  -0.0108729  -0.1377465  -0.1261155  -0.0108768  -0.1377461   0.1261149
   21  -0.0164216  -0.1244060  -0.2296078   0.0164275   0.1244055  -0.2296064
   22  -0.0004869  -0.0004334  -0.0000508  -0.0004869  -0.0004333   0.0000508
   23   0.0013668  -0.0005123  -0.0001097   0.0013668  -0.0005123   0.0001098
   24  -0.0000707   0.0000724   0.0000325   0.0000707  -0.0000724   0.0000325
   25   0.0000146   0.0000065   0.0000005   0.0000276   0.0000060   0.0000018
   26  -0.0000022  -0.0000161  -0.0000033  -0.0000117  -0.0000073  -0.0000041
   27   0.0000085   0.0000013  -0.0000000   0.0000119  -0.0000088   0.0000049
   28   0.0000276   0.0000060  -0.0000018   0.0000146   0.0000065  -0.0000005
   29  -0.0000117  -0.0000073   0.0000041  -0.0000022  -0.0000161   0.0000033
   30  -0.0000119   0.0000088   0.0000049  -0.0000085  -0.0000013  -0.0000000
   31  -0.0034755   0.0040257  -0.0006432   0.0008542  -0.0007046  -0.0006666
   32   0.0033767  -0.0020322   0.0002480  -0.0010150   0.0003147   0.0000899
   33  -0.0004246   0.0009105   0.0014991   0.0003866  -0.0002824   0.0008626
   34   0.0008542  -0.0007047   0.0006666  -0.0034755   0.0040258   0.0006430
   35  -0.0010150   0.0003147  -0.0000899   0.0033768  -0.0020323  -0.0002479
   36  -0.0003866   0.0002824   0.0008626   0.0004244  -0.0009104   0.0014991
   37   0.0000111   0.0000096   0.0000022   0.0000111   0.0000096  -0.0000022
   38  -0.0000007   0.0000024   0.0000066  -0.0000007   0.0000024  -0.0000066
   39   0.0000000   0.0000004   0.0000012  -0.0000000  -0.0000004   0.0000012
   40  -0.0000068  -0.0000029   0.0000028  -0.0000122   0.0000030  -0.0000063
   41   0.0000029   0.0000030  -0.0000016  -0.0000030   0.0000097  -0.0000027
   42   0.0000028   0.0000016  -0.0000058   0.0000063  -0.0000027   0.0000102
   43  -0.0000122   0.0000030   0.0000063  -0.0000068  -0.0000029  -0.0000028
   44  -0.0000030   0.0000097   0.0000027   0.0000029   0.0000030   0.0000016
   45  -0.0000063   0.0000027   0.0000102  -0.0000028  -0.0000016  -0.0000058
   46  -0.0002269   0.0002765  -0.0002533  -0.0002274   0.0002763   0.0002532
   47  -0.0160841  -0.0083726   0.0021847  -0.0160839  -0.0083725  -0.0021853
   48  -0.0252548  -0.0106029   0.0012852   0.0252547   0.0106027   0.0012860
   49   0.0510769   0.0072931   0.0167592  -0.0012059   0.0017314   0.0023963
   50   0.0072931   0.1489873   0.1381707   0.0017309   0.0128163   0.0159200
   51   0.0167592   0.1381707   0.2438564  -0.0023958  -0.0159199  -0.0195204
   52  -0.0012059   0.0017309  -0.0023958   0.0510774   0.0072969  -0.0167652
   53   0.0017314   0.0128163  -0.0159199   0.0072969   0.1489870  -0.1381702
   54   0.0023963   0.0159200  -0.0195204  -0.0167652  -0.1381702   0.2438550
 Gradient time:  CPU 2785.79 s  wall 690.59 s
 **********************************************************************
 **                                                                  **
 **                       VIBRATIONAL ANALYSIS                       **
 **                       --------------------                       **
 **                                                                  **
 **        VIBRATIONAL FREQUENCIES (CM**-1) AND NORMAL MODES         **
 **     FORCE CONSTANTS (mDYN/ANGSTROM) AND REDUCED MASSES (AMU)     **
 **                  INFRARED INTENSITIES (KM/MOL)                   **
 **                                                                  **
 **********************************************************************
 

 Mode:                 1                      2                      3
 Frequency:        45.52                  60.57                  96.38
 Force Cnst:      0.0022                 0.0090                 0.0117
 Red. Mass:       1.7990                 4.1707                 2.1322
 IR Active:          YES                    YES                    YES
 IR Intens:        0.000                  0.708                  6.636
 Raman Active:       YES                    YES                    YES
               X      Y      Z        X      Y      Z        X      Y      Z
 O         -0.000  0.000  0.038   -0.000 -0.000  0.236   -0.000 -0.000  0.036
 O         -0.000 -0.000 -0.038    0.000 -0.000  0.236    0.000 -0.000  0.036
 O          0.000 -0.000 -0.000    0.000 -0.000 -0.137    0.000 -0.000  0.170
 C         -0.000  0.000  0.150    0.000  0.000  0.020    0.000  0.000 -0.159
 C         -0.000 -0.000 -0.150   -0.000  0.000  0.020   -0.000  0.000 -0.159
 C         -0.000 -0.000 -0.108   -0.000  0.000 -0.224   -0.000  0.000 -0.007
 C          0.000  0.000  0.108    0.000  0.000 -0.224    0.000  0.000 -0.007
 C          0.000 -0.000  0.000    0.000 -0.000  0.097   -0.000 -0.000  0.093
 H          0.019  0.193  0.290    0.163  0.027  0.031    0.051 -0.184 -0.297
 H         -0.019 -0.193  0.290   -0.163 -0.027  0.031   -0.051  0.184 -0.297
 H         -0.019  0.193 -0.290    0.163 -0.027  0.031    0.051  0.184 -0.297
 H          0.019 -0.193 -0.290   -0.163  0.027  0.031   -0.051 -0.184 -0.297
 H         -0.000 -0.000 -0.004   -0.000  0.000 -0.391   -0.000  0.000 -0.219
 H         -0.009 -0.210 -0.258   -0.170 -0.033 -0.235   -0.086  0.218  0.155
 H          0.009  0.210 -0.258    0.170  0.033 -0.235    0.086 -0.218  0.155
 H         -0.000  0.000  0.004    0.000  0.000 -0.391    0.000  0.000 -0.219
 H          0.009 -0.210  0.258   -0.170  0.033 -0.235   -0.086 -0.218  0.155
 H         -0.009  0.210  0.258    0.170 -0.033 -0.235    0.086  0.218  0.155
 TransDip  -0.000  0.000 -0.000    0.000  0.000 -0.027    0.000  0.000 -0.083

 Mode:                 4                      5                      6
 Frequency:       128.24                 162.62                 260.53
 Force Cnst:      0.0332                 0.0427                 0.0468
 Red. Mass:       3.4285                 2.7408                 1.1710
 IR Active:          YES                    YES                    YES
 IR Intens:        2.798                  0.000                  0.767
 Raman Active:       YES                    YES                    YES
               X      Y      Z        X      Y      Z        X      Y      Z
 O         -0.026 -0.115 -0.000    0.000 -0.000  0.237    0.000 -0.000  0.044
 O          0.026 -0.115 -0.000    0.000  0.000 -0.237    0.000  0.000  0.044
 O          0.000 -0.147 -0.000   -0.000 -0.000  0.000   -0.000 -0.000  0.006
 C          0.044  0.035  0.000    0.000 -0.000  0.002    0.000 -0.000 -0.065
 C         -0.044  0.035  0.000    0.000  0.000 -0.002    0.000  0.000 -0.065
 C         -0.124  0.216  0.000   -0.000  0.000 -0.049   -0.000  0.000 -0.001
 C          0.124  0.216  0.000   -0.000 -0.000  0.049   -0.000 -0.000 -0.001
 C          0.000 -0.148 -0.000    0.000 -0.000  0.000   -0.000 -0.000  0.032
 H          0.134  0.044  0.003    0.124 -0.102 -0.079    0.029 -0.074 -0.120
 H          0.134  0.044 -0.002   -0.124  0.101 -0.079   -0.029  0.074 -0.120
 H         -0.134  0.044 -0.002   -0.124 -0.101  0.079    0.029  0.074 -0.120
 H         -0.134  0.044  0.003    0.124  0.102  0.079   -0.029 -0.074 -0.120
 H         -0.036  0.393  0.000   -0.000  0.000 -0.411    0.000  0.000  0.409
 H         -0.243  0.206  0.002   -0.238  0.192  0.106    0.274 -0.201 -0.165
 H         -0.243  0.206 -0.002    0.238 -0.192  0.106   -0.274  0.201 -0.165
 H          0.036  0.393  0.000   -0.000 -0.000  0.411   -0.000 -0.000  0.409
 H          0.243  0.206 -0.002    0.238  0.192 -0.106    0.273  0.201 -0.165
 H          0.243  0.206  0.002   -0.238 -0.192 -0.106   -0.274 -0.201 -0.165
 TransDip  -0.000  0.054  0.000   -0.000  0.000 -0.000    0.000  0.000 -0.028

 Mode:                 7                      8                      9
 Frequency:       263.72                 269.79                 355.25
 Force Cnst:      0.1619                 0.0578                 0.2531
 Red. Mass:       3.9520                 1.3468                 3.4038
 IR Active:          YES                    YES                    YES
 IR Intens:        5.683                  0.000                  0.369
 Raman Active:       YES                    YES                    YES
               X      Y      Z        X      Y      Z        X      Y      Z
 O         -0.095  0.163 -0.000    0.000 -0.000 -0.092   -0.034  0.053 -0.000
 O         -0.095 -0.163  0.000    0.000  0.000  0.092    0.034  0.053  0.000
 O          0.240 -0.000  0.000   -0.000 -0.000 -0.000    0.000  0.078  0.000
 C         -0.121  0.100  0.000    0.000 -0.000  0.063   -0.156 -0.093 -0.000
 C         -0.121 -0.100 -0.000    0.000  0.000 -0.063    0.156 -0.093 -0.000
 C          0.080 -0.122  0.000   -0.000  0.000  0.005   -0.247 -0.052  0.000
 C          0.080  0.122 -0.000   -0.000 -0.000 -0.005    0.247 -0.052  0.000
 C          0.002 -0.000  0.000   -0.000 -0.000  0.000   -0.000  0.077  0.000
 H         -0.191  0.086 -0.008   -0.051  0.094  0.134   -0.201 -0.092  0.003
 H         -0.191  0.086  0.008    0.051 -0.094  0.134   -0.201 -0.092 -0.003
 H         -0.191 -0.086 -0.008    0.051  0.094 -0.134    0.201 -0.092 -0.003
 H         -0.191 -0.086  0.008   -0.051 -0.094 -0.134    0.201 -0.092  0.003
 H         -0.047 -0.379 -0.000    0.000  0.000 -0.395   -0.177  0.094  0.000
 H          0.257 -0.110 -0.004   -0.265  0.197  0.165   -0.353 -0.055  0.005
 H          0.257 -0.111  0.004    0.265 -0.197  0.165   -0.353 -0.055 -0.005
 H         -0.047  0.379  0.000    0.000 -0.000  0.395    0.177  0.094  0.000
 H          0.257  0.111 -0.005    0.265  0.197 -0.165    0.353 -0.055 -0.005
 H          0.257  0.110  0.004   -0.265 -0.197 -0.165    0.353 -0.055  0.005
 TransDip  -0.076  0.000 -0.000    0.000  0.000  0.000   -0.000 -0.019  0.000

 Mode:                10                     11                     12
 Frequency:       398.69                 517.41                 760.64
 Force Cnst:      0.3829                 0.6415                 2.6292
 Red. Mass:       4.0886                 4.0669                 7.7128
 IR Active:          YES                    YES                    YES
 IR Intens:       21.652                  1.545                  1.136
 Raman Active:       YES                    YES                    YES
               X      Y      Z        X      Y      Z        X      Y      Z
 O          0.055 -0.004 -0.000    0.162 -0.025 -0.000   -0.181 -0.344 -0.000
 O          0.055  0.004 -0.000   -0.162 -0.025 -0.000   -0.181  0.344  0.000
 O          0.311  0.000  0.000    0.000  0.168  0.000    0.295 -0.000 -0.000
 C         -0.041 -0.154 -0.000    0.190 -0.186  0.000    0.013 -0.006 -0.000
 C         -0.041  0.154  0.000   -0.190 -0.186  0.000    0.013  0.006  0.000
 C         -0.199 -0.043  0.000    0.009  0.025 -0.000    0.075  0.076 -0.000
 C         -0.199  0.043 -0.000   -0.009  0.025 -0.000    0.075 -0.076 -0.000
 C          0.082  0.000 -0.000   -0.000  0.155  0.000   -0.235 -0.000  0.000
 H         -0.071 -0.149  0.004    0.170 -0.166  0.012    0.184 -0.008 -0.010
 H         -0.071 -0.149 -0.004    0.170 -0.166 -0.012    0.184 -0.008  0.010
 H         -0.071  0.149  0.004   -0.170 -0.166 -0.012    0.184  0.008 -0.010
 H         -0.071  0.149 -0.004   -0.170 -0.166  0.012    0.184  0.008  0.010
 H         -0.082  0.196  0.000    0.175  0.360 -0.000   -0.042 -0.175  0.000
 H         -0.370 -0.050  0.007   -0.226  0.015  0.010    0.278  0.072 -0.016
 H         -0.370 -0.050 -0.007   -0.226  0.015 -0.010    0.278  0.072  0.016
 H         -0.082 -0.196 -0.000   -0.175  0.360  0.000   -0.042  0.175 -0.000
 H         -0.370  0.050  0.007    0.226  0.015 -0.010    0.278 -0.072 -0.016
 H         -0.370  0.050 -0.007    0.226  0.015  0.010    0.278 -0.072  0.016
 TransDip  -0.149 -0.000  0.000    0.000 -0.040  0.000    0.034 -0.000  0.000

 Mode:                13                     14                     15
 Frequency:       812.88                 833.33                 842.60
 Force Cnst:      1.1252                 0.4496                 0.6437
 Red. Mass:       2.8902                 1.0988                 1.5388
 IR Active:          YES                    YES                    YES
 IR Intens:       24.581                  0.000                  3.293
 Raman Active:       YES                    YES                    YES
               X      Y      Z        X      Y      Z        X      Y      Z
 O          0.000  0.000 -0.068    0.000  0.000  0.019    0.000  0.000 -0.055
 O         -0.000  0.000 -0.068    0.000 -0.000 -0.019   -0.000  0.000 -0.055
 O         -0.000 -0.000 -0.109   -0.000  0.000  0.000    0.000 -0.000 -0.051
 C          0.000 -0.000 -0.056   -0.000 -0.000 -0.053    0.000 -0.000  0.048
 C         -0.000 -0.000 -0.056   -0.000  0.000  0.053   -0.000 -0.000  0.048
 C         -0.000 -0.000 -0.021   -0.000 -0.000 -0.030    0.000 -0.000  0.033
 C         -0.000 -0.000 -0.021    0.000  0.000  0.030   -0.000 -0.000  0.033
 C          0.000 -0.000  0.368    0.000  0.000 -0.000   -0.000 -0.000  0.172
 H          0.070  0.299  0.160    0.118  0.298  0.162   -0.133 -0.279 -0.152
 H         -0.070 -0.299  0.160   -0.118 -0.298  0.162    0.133  0.279 -0.152
 H          0.070 -0.299  0.160   -0.118  0.298 -0.162   -0.133  0.279 -0.152
 H         -0.070  0.299  0.160    0.118 -0.298 -0.162    0.133 -0.279 -0.152
 H          0.000  0.000  0.113    0.000  0.000  0.136   -0.000  0.000 -0.138
 H          0.166  0.204  0.116    0.192  0.237  0.130   -0.193 -0.238 -0.128
 H         -0.166 -0.204  0.116   -0.192 -0.237  0.130    0.193  0.238 -0.128
 H         -0.000  0.000  0.113    0.000 -0.000 -0.136    0.000  0.000 -0.138
 H          0.166 -0.204  0.116   -0.192  0.237 -0.130   -0.193  0.238 -0.128
 H         -0.166  0.204  0.116    0.192 -0.237 -0.130    0.193 -0.238 -0.128
 TransDip  -0.000  0.000  0.159   -0.000  0.000 -0.000    0.000 -0.000  0.058

 Mode:                16                     17                     18
 Frequency:       898.40                 938.20                1035.96
 Force Cnst:      1.1732                 1.1590                 2.4505
 Red. Mass:       2.4672                 2.2348                 3.8755
 IR Active:          YES                    YES                    YES
 IR Intens:       18.329                  5.571                 11.218
 Raman Active:       YES                    YES                    YES
               X      Y      Z        X      Y      Z        X      Y      Z
 O         -0.110  0.078  0.000   -0.048  0.132  0.000    0.085  0.142  0.000
 O         -0.110 -0.078 -0.000    0.048  0.132  0.000   -0.085  0.142  0.000
 O          0.018 -0.000 -0.000   -0.000 -0.132  0.000   -0.000 -0.152  0.000
 C          0.064 -0.122  0.000    0.011 -0.055  0.000    0.178  0.090  0.000
 C          0.064  0.122 -0.000   -0.011 -0.055  0.000   -0.178  0.090  0.000
 C          0.133  0.011 -0.000    0.100 -0.022 -0.000   -0.148 -0.110 -0.000
 C          0.133 -0.011  0.000   -0.100 -0.022 -0.000    0.148 -0.110 -0.000
 C         -0.096 -0.000  0.000    0.000 -0.079 -0.000    0.000 -0.082 -0.000
 H         -0.088 -0.117  0.005   -0.168 -0.060  0.002    0.269  0.133  0.021
 H         -0.088 -0.117 -0.005   -0.168 -0.060 -0.002    0.269  0.133 -0.021
 H         -0.088  0.117  0.005    0.168 -0.060 -0.002   -0.269  0.133 -0.021
 H         -0.088  0.117 -0.005    0.168 -0.060  0.002   -0.269  0.133  0.021
 H          0.353  0.458 -0.000    0.319  0.431 -0.000   -0.228 -0.265  0.000
 H         -0.170  0.034  0.036   -0.223  0.009  0.042   -0.117 -0.160 -0.031
 H         -0.170  0.034 -0.036   -0.223  0.009 -0.042   -0.117 -0.160  0.031
 H          0.353 -0.458  0.000   -0.319  0.431  0.000    0.228 -0.265  0.000
 H         -0.170 -0.034  0.036    0.223  0.009 -0.042    0.117 -0.160  0.031
 H         -0.170 -0.034 -0.036    0.223  0.009  0.042    0.117 -0.160 -0.031
 TransDip   0.137 -0.000  0.000    0.000 -0.076 -0.000    0.000 -0.107 -0.000

 Mode:                19                     20                     21
 Frequency:      1074.91                1150.41                1163.60
 Force Cnst:      2.1583                 1.6453                 1.8724
 Red. Mass:       3.1704                 2.1100                 2.3472
 IR Active:          YES                    YES                    YES
 IR Intens:      148.665                  4.014                 14.164
 Raman Active:       YES                    YES                    YES
               X      Y      Z        X      Y      Z        X      Y      Z
 O         -0.101  0.071 -0.000    0.003 -0.063  0.000   -0.010 -0.094  0.000
 O         -0.101 -0.071  0.000    0.003  0.063 -0.000    0.010 -0.094 -0.000
 O          0.003  0.000 -0.000    0.011 -0.000  0.000    0.000  0.082 -0.000
 C          0.240  0.007 -0.000    0.007  0.160 -0.000    0.001  0.160 -0.000
 C          0.240 -0.007 -0.000    0.007 -0.160  0.000   -0.001  0.160 -0.000
 C         -0.116 -0.070  0.000    0.029 -0.135  0.000    0.035 -0.131  0.000
 C         -0.116  0.070 -0.000    0.029  0.135 -0.000   -0.035 -0.131  0.000
 C         -0.054  0.000 -0.000   -0.010 -0.000 -0.000   -0.000  0.018  0.000
 H          0.345  0.072  0.030    0.019  0.154 -0.010    0.030  0.154 -0.011
 H          0.345  0.072 -0.030    0.019  0.154  0.010    0.030  0.154  0.011
 H          0.345 -0.072  0.030    0.019 -0.154 -0.010   -0.030  0.154  0.011
 H          0.345 -0.072 -0.030    0.019 -0.154  0.010   -0.030  0.154 -0.011
 H         -0.209 -0.265  0.000    0.207  0.253 -0.000    0.210  0.252 -0.000
 H         -0.030 -0.138 -0.045   -0.370 -0.087  0.061   -0.365 -0.080  0.063
 H         -0.030 -0.138  0.045   -0.370 -0.087 -0.060   -0.365 -0.080 -0.063
 H         -0.209  0.265 -0.000    0.207 -0.253  0.000   -0.210  0.252 -0.000
 H         -0.030  0.138 -0.045   -0.370  0.087  0.060    0.365 -0.080 -0.063
 H         -0.030  0.138  0.045   -0.370  0.087 -0.061    0.365 -0.080  0.063
 TransDip   0.391  0.000  0.000   -0.064  0.000 -0.000    0.000  0.121 -0.000

 Mode:                22                     23                     24
 Frequency:      1185.23                1193.36                1195.63
 Force Cnst:      7.1468                 1.2947                 1.3067
 Red. Mass:       8.6350                 1.5430                 1.5515
 IR Active:          YES                    YES                    YES
 IR Intens:        0.764                  0.000                  8.140
 Raman Active:       YES                    YES                    YES
               X      Y      Z        X      Y      Z        X      Y      Z
 O         -0.427  0.002  0.000   -0.000 -0.000 -0.036   -0.000 -0.000 -0.035
 O          0.427  0.002 -0.000    0.000  0.000  0.036    0.000 -0.000 -0.035
 O          0.000  0.157 -0.000    0.000  0.000 -0.000    0.000  0.000 -0.004
 C          0.261 -0.091 -0.000    0.000  0.000  0.122    0.000  0.000  0.123
 C         -0.261 -0.091 -0.000   -0.000 -0.000 -0.122   -0.000  0.000  0.123
 C         -0.041 -0.028  0.000    0.000 -0.000 -0.088    0.000 -0.000 -0.089
 C          0.041 -0.028  0.000    0.000  0.000  0.088   -0.000 -0.000 -0.089
 C          0.000  0.076  0.000   -0.000  0.000  0.000   -0.000  0.000  0.006
 H          0.301 -0.009  0.036    0.190 -0.295 -0.099    0.185 -0.297 -0.098
 H          0.301 -0.009 -0.036   -0.190  0.295 -0.099   -0.185  0.297 -0.098
 H         -0.301 -0.009 -0.036   -0.190 -0.295  0.099    0.185  0.297 -0.098
 H         -0.301 -0.009  0.036    0.190  0.295  0.099   -0.185 -0.297 -0.098
 H         -0.071 -0.107 -0.000    0.000  0.000  0.188    0.000  0.000  0.189
 H          0.017 -0.097 -0.045    0.155  0.238  0.079    0.155  0.240  0.080
 H          0.017 -0.097  0.045   -0.155 -0.238  0.079   -0.155 -0.240  0.080
 H          0.071 -0.107 -0.000    0.000 -0.000 -0.188   -0.000  0.000  0.189
 H         -0.017 -0.097  0.045   -0.155  0.238 -0.079    0.155 -0.240  0.080
 H         -0.017 -0.097 -0.045    0.155 -0.238 -0.079   -0.155  0.240  0.080
 TransDip  -0.000  0.028 -0.000   -0.000  0.000  0.000   -0.000  0.000  0.091

 Mode:                25                     26                     27
 Frequency:      1329.24                1331.00                1339.09
 Force Cnst:      1.1368                 1.1365                 3.8946
 Red. Mass:       1.0920                 1.0888                 3.6863
 IR Active:          YES                    YES                    YES
 IR Intens:        0.000                  1.561               1071.612
 Raman Active:       YES                    YES                    YES
               X      Y      Z        X      Y      Z        X      Y      Z
 O          0.000  0.000 -0.024    0.000  0.000  0.023   -0.136 -0.071 -0.000
 O          0.000 -0.000  0.024    0.000 -0.000  0.023   -0.136  0.071  0.000
 O          0.000  0.000 -0.000    0.000 -0.000  0.000   -0.038  0.000 -0.000
 C         -0.000  0.000 -0.009   -0.000 -0.000  0.008    0.089  0.008 -0.000
 C         -0.000 -0.000  0.009   -0.000 -0.000  0.008    0.089 -0.008  0.000
 C          0.000 -0.000  0.054   -0.000 -0.000 -0.054   -0.005  0.019  0.000
 C          0.000  0.000 -0.054    0.000  0.000 -0.054   -0.005 -0.019 -0.000
 C         -0.000  0.000 -0.000   -0.000  0.000  0.003    0.401 -0.000  0.000
 H          0.470  0.033 -0.005   -0.471 -0.031  0.006   -0.430 -0.005  0.005
 H         -0.470 -0.033 -0.005    0.471  0.031  0.006   -0.430 -0.005 -0.005
 H         -0.470  0.033  0.005   -0.471  0.031  0.006   -0.431  0.005  0.005
 H          0.470 -0.033  0.005    0.471 -0.031  0.006   -0.430  0.005 -0.005
 H          0.000  0.000 -0.080    0.000  0.000  0.079   -0.043 -0.052 -0.000
 H         -0.076 -0.128 -0.032    0.074  0.125  0.031   -0.009 -0.059 -0.049
 H          0.076  0.128 -0.032   -0.074 -0.125  0.031   -0.009 -0.059  0.049
 H          0.000 -0.000  0.080    0.000 -0.000  0.079   -0.043  0.052  0.000
 H          0.075 -0.128  0.032    0.074 -0.125  0.031   -0.009  0.059 -0.049
 H         -0.075  0.128  0.032   -0.074  0.125  0.031   -0.009  0.059  0.049
 TransDip  -0.000  0.000  0.000   -0.000  0.000 -0.040    1.048  0.000  0.000

 Mode:                28                     29                     30
 Frequency:      1419.93                1433.79                1456.94
 Force Cnst:      1.4732                 1.6179                 1.7071
 Red. Mass:       1.2402                 1.3358                 1.3650
 IR Active:          YES                    YES                    YES
 IR Intens:        1.668                108.521                 16.206
 Raman Active:       YES                    YES                    YES
               X      Y      Z        X      Y      Z        X      Y      Z
 O         -0.003  0.021  0.000    0.031  0.001  0.000    0.004 -0.019 -0.000
 O          0.003  0.021  0.000    0.031 -0.001 -0.000   -0.004 -0.019 -0.000
 O         -0.000  0.006 -0.000    0.010 -0.000  0.000    0.000 -0.004  0.000
 C         -0.075 -0.026  0.000    0.036  0.014 -0.000    0.069  0.034  0.000
 C          0.075 -0.026 -0.000    0.036 -0.014  0.000   -0.069  0.034  0.000
 C         -0.025 -0.053  0.000    0.055  0.069 -0.000   -0.085 -0.050  0.000
 C          0.025 -0.053  0.000    0.055 -0.069  0.000    0.085 -0.050  0.000
 C          0.000 -0.017  0.000   -0.091  0.000 -0.000   -0.000  0.014 -0.000
 H          0.371  0.062  0.038   -0.204 -0.069 -0.041   -0.273 -0.007 -0.016
 H          0.371  0.062 -0.038   -0.204 -0.069  0.041   -0.273 -0.007  0.016
 H         -0.371  0.062 -0.038   -0.204  0.069 -0.041    0.273 -0.007  0.016
 H         -0.371  0.062  0.038   -0.204  0.069  0.041    0.273 -0.007 -0.016
 H          0.134  0.256 -0.000   -0.168 -0.366  0.000    0.119  0.347 -0.000
 H          0.164  0.141  0.117   -0.269 -0.156 -0.130    0.310  0.047  0.039
 H          0.164  0.141 -0.117   -0.269 -0.156  0.130    0.310  0.047 -0.039
 H         -0.134  0.256 -0.000   -0.168  0.366 -0.000   -0.119  0.347 -0.000
 H         -0.164  0.141 -0.117   -0.269  0.156 -0.130   -0.310  0.047 -0.039
 H         -0.164  0.141  0.117   -0.269  0.156  0.130   -0.310  0.047  0.039
 TransDip   0.000 -0.041 -0.000   -0.334  0.000 -0.000   -0.000  0.129 -0.000

 Mode:                31                     32                     33
 Frequency:      1469.81                1513.23                1513.31
 Force Cnst:      2.0418                 1.3978                 1.3977
 Red. Mass:       1.6041                 1.0361                 1.0359
 IR Active:          YES                    YES                    YES
 IR Intens:       21.770                  0.000                 16.991
 Raman Active:       YES                    YES                    YES
               X      Y      Z        X      Y      Z        X      Y      Z
 O         -0.042  0.007 -0.000   -0.000  0.000  0.001   -0.000  0.000  0.001
 O         -0.042 -0.007  0.000   -0.000 -0.000 -0.001    0.000  0.000  0.001
 O         -0.013  0.000 -0.000   -0.000  0.000 -0.000   -0.000 -0.000 -0.000
 C         -0.088 -0.049 -0.000    0.000  0.000 -0.017    0.000  0.000 -0.017
 C         -0.088  0.049  0.000    0.000 -0.000  0.017   -0.000  0.000 -0.017
 C          0.076  0.026 -0.000   -0.000 -0.000 -0.032   -0.000 -0.000 -0.031
 C          0.076 -0.026  0.000   -0.000  0.000  0.031    0.000 -0.000 -0.031
 C          0.127  0.000  0.000   -0.000 -0.000  0.000    0.000  0.000  0.001
 H          0.359  0.064  0.057    0.015  0.030  0.002    0.015  0.030  0.001
 H          0.359  0.064 -0.057   -0.015 -0.030  0.002   -0.015 -0.030  0.002
 H          0.359 -0.064  0.057   -0.015  0.030 -0.002    0.015 -0.030  0.002
 H          0.359 -0.064 -0.057    0.015 -0.030 -0.002   -0.015  0.030  0.001
 H         -0.073 -0.260  0.000   -0.000 -0.000  0.498   -0.000 -0.000  0.497
 H         -0.249  0.031  0.025   -0.350  0.033  0.029   -0.350  0.033  0.029
 H         -0.249  0.031 -0.025    0.350 -0.032  0.028    0.350 -0.032  0.029
 H         -0.073  0.260 -0.000   -0.000  0.000 -0.497    0.000 -0.000  0.497
 H         -0.249 -0.031  0.025    0.350  0.032 -0.028   -0.350 -0.032  0.029
 H         -0.249 -0.031 -0.025   -0.350 -0.033 -0.029    0.350  0.033  0.029
 TransDip   0.149  0.000  0.000   -0.000 -0.000  0.000    0.000  0.000  0.132

 Mode:                34                     35                     36
 Frequency:      1517.09                1517.50                1534.27
 Force Cnst:      1.4355                 1.4330                 1.5018
 Red. Mass:       1.0586                 1.0562                 1.0828
 IR Active:          YES                    YES                    YES
 IR Intens:        3.703                  2.982                 18.180
 Raman Active:       YES                    YES                    YES
               X      Y      Z        X      Y      Z        X      Y      Z
 O         -0.003  0.003 -0.000   -0.005  0.003 -0.000    0.003 -0.008 -0.000
 O         -0.003 -0.003  0.000    0.005  0.003 -0.000   -0.003 -0.008 -0.000
 O         -0.001 -0.000 -0.000    0.000 -0.003  0.000    0.000 -0.006  0.000
 C          0.025  0.026  0.000    0.024  0.023  0.000    0.019 -0.052  0.000
 C          0.025 -0.026 -0.000   -0.024  0.023  0.000   -0.019 -0.052  0.000
 C          0.004 -0.031  0.000    0.005 -0.032  0.000    0.008 -0.012  0.000
 C          0.004  0.031 -0.000   -0.005 -0.032  0.000   -0.008 -0.012  0.000
 C         -0.003  0.000  0.000    0.000  0.004 -0.000   -0.000  0.010 -0.000
 H         -0.033 -0.211 -0.159   -0.031 -0.196 -0.146   -0.119  0.328  0.268
 H         -0.033 -0.211  0.159   -0.031 -0.196  0.146   -0.119  0.328 -0.268
 H         -0.033  0.211 -0.159    0.031 -0.196  0.146    0.119  0.327 -0.268
 H         -0.033  0.211  0.159    0.032 -0.196 -0.146    0.119  0.327  0.268
 H         -0.079 -0.175 -0.000   -0.081 -0.182 -0.000   -0.048 -0.120 -0.000
 H         -0.065  0.310  0.243   -0.069  0.319  0.249   -0.044  0.168  0.129
 H         -0.066  0.310 -0.243   -0.070  0.319 -0.249   -0.044  0.168 -0.129
 H         -0.079  0.175  0.000    0.081 -0.182 -0.000    0.048 -0.119 -0.000
 H         -0.066 -0.310  0.242    0.070  0.319 -0.249    0.044  0.168 -0.129
 H         -0.065 -0.310 -0.242    0.069  0.319  0.249    0.044  0.168  0.129
 TransDip  -0.062  0.000  0.000    0.000  0.055 -0.000   -0.000  0.137 -0.000

 Mode:                37                     38                     39
 Frequency:      1535.77                1831.03                3057.14
 Force Cnst:      1.5270                23.3636                 5.7069
 Red. Mass:       1.0988                11.8277                 1.0364
 IR Active:          YES                    YES                    YES
 IR Intens:        3.800                377.371                 23.731
 Raman Active:       YES                    YES                    YES
               X      Y      Z        X      Y      Z        X      Y      Z
 O         -0.015  0.004 -0.000   -0.039 -0.070 -0.000   -0.000 -0.000 -0.000
 O         -0.015 -0.004 -0.000    0.039 -0.070 -0.000   -0.000  0.000  0.000
 O         -0.005 -0.000 -0.000   -0.000 -0.480  0.000   -0.000 -0.000 -0.000
 C         -0.025  0.048 -0.000   -0.029  0.018  0.000    0.001 -0.002  0.000
 C         -0.025 -0.048  0.000    0.029  0.018  0.000    0.001  0.002 -0.000
 C         -0.005  0.013 -0.000    0.012 -0.011 -0.000   -0.029 -0.021  0.000
 C         -0.005 -0.013  0.000   -0.012 -0.011 -0.000   -0.029  0.021 -0.000
 C          0.037  0.000  0.000    0.000  0.806 -0.000    0.000  0.000  0.000
 H          0.146 -0.314 -0.258    0.144  0.019 -0.044   -0.003  0.019 -0.029
 H          0.146 -0.314  0.258    0.144  0.019  0.044   -0.003  0.019  0.029
 H          0.146  0.315 -0.259   -0.144  0.019  0.044   -0.003 -0.019 -0.029
 H          0.146  0.315  0.259   -0.144  0.019 -0.044   -0.003 -0.019  0.029
 H          0.052  0.122  0.000    0.035  0.044 -0.000    0.393 -0.201 -0.000
 H          0.038 -0.179 -0.137   -0.029 -0.024 -0.007   -0.028  0.222 -0.317
 H          0.038 -0.179  0.137   -0.029 -0.024  0.007   -0.028  0.222  0.317
 H          0.052 -0.122 -0.000   -0.035  0.044  0.000    0.393  0.201  0.000
 H          0.038  0.179 -0.137    0.029 -0.024  0.007   -0.028 -0.222 -0.317
 H          0.038  0.179  0.137    0.029 -0.024 -0.007   -0.028 -0.222  0.317
 TransDip   0.062  0.000 -0.000    0.000  0.622  0.000   -0.156  0.000  0.000

 Mode:                40                     41                     42
 Frequency:      3057.30                3075.88                3076.67
 Force Cnst:      5.7075                 5.9010                 5.9067
 Red. Mass:       1.0364                 1.0586                 1.0591
 IR Active:          YES                    YES                    YES
 IR Intens:       13.579                  9.296                 29.000
 Raman Active:       YES                    YES                    YES
               X      Y      Z        X      Y      Z        X      Y      Z
 O          0.000 -0.000 -0.000    0.002 -0.000 -0.000   -0.001 -0.000  0.000
 O         -0.000 -0.000 -0.000    0.002  0.000  0.000    0.001 -0.000  0.000
 O         -0.000  0.000 -0.000   -0.000 -0.000 -0.000    0.000 -0.002  0.000
 C          0.001 -0.003  0.000    0.002 -0.047  0.000   -0.002  0.047 -0.000
 C         -0.001 -0.003  0.000    0.002  0.047 -0.000    0.002  0.047 -0.000
 C         -0.029 -0.021  0.000   -0.002  0.008 -0.000    0.002 -0.008  0.000
 C          0.029 -0.021  0.000   -0.002 -0.008  0.000   -0.002 -0.008  0.000
 C          0.000 -0.000  0.000   -0.002  0.000  0.000    0.000  0.004  0.000
 H         -0.003  0.021 -0.033   -0.020  0.279 -0.407    0.021 -0.280  0.408
 H         -0.003  0.021  0.033   -0.020  0.279  0.407    0.021 -0.279 -0.408
 H          0.003  0.021  0.033   -0.020 -0.280 -0.408   -0.021 -0.279 -0.406
 H          0.003  0.021 -0.033   -0.020 -0.280  0.408   -0.021 -0.279  0.407
 H          0.393 -0.202 -0.000    0.024 -0.017 -0.000   -0.023  0.016  0.000
 H         -0.028  0.222 -0.317    0.004 -0.034  0.051   -0.004  0.036 -0.055
 H         -0.028  0.222  0.317    0.004 -0.034 -0.051   -0.004  0.036  0.055
 H         -0.393 -0.201 -0.000    0.025  0.017  0.000    0.023  0.016  0.000
 H          0.028  0.222  0.316    0.004  0.034  0.051    0.004  0.036  0.055
 H          0.028  0.222 -0.316    0.004  0.034 -0.051    0.004  0.036 -0.055
 TransDip  -0.000 -0.118  0.000    0.098  0.000  0.000   -0.000  0.172 -0.000

 Mode:                43                     44                     45
 Frequency:      3118.80                3119.17                3133.82
 Force Cnst:      6.3495                 6.3514                 6.3729
 Red. Mass:       1.1079                 1.1080                 1.1014
 IR Active:          YES                    YES                    YES
 IR Intens:        0.000                  8.199                 21.590
 Raman Active:       YES                    YES                    YES
               X      Y      Z        X      Y      Z        X      Y      Z
 O         -0.000 -0.000 -0.000    0.000  0.000  0.000    0.000 -0.000  0.000
 O         -0.000 -0.000  0.000   -0.000  0.000  0.000    0.000  0.000 -0.000
 O          0.000 -0.000  0.000   -0.000  0.000  0.000   -0.000 -0.000 -0.000
 C          0.000  0.000  0.059   -0.000 -0.000 -0.059   -0.001  0.006  0.000
 C          0.000 -0.000 -0.060    0.000 -0.000 -0.059   -0.001 -0.006  0.000
 C          0.000 -0.000 -0.032   -0.000  0.000  0.033   -0.043  0.049 -0.000
 C          0.000  0.000  0.032    0.000  0.000  0.032   -0.043 -0.049  0.000
 C          0.000  0.000  0.000   -0.000 -0.000  0.000    0.001  0.000 -0.000
 H         -0.016  0.256 -0.351    0.016 -0.256  0.351    0.002 -0.033  0.046
 H          0.016 -0.256 -0.351   -0.016  0.257  0.351    0.002 -0.033 -0.046
 H          0.016  0.258  0.353    0.016  0.255  0.349    0.002  0.033  0.046
 H         -0.016 -0.258  0.353   -0.016 -0.255  0.349    0.002  0.033 -0.046
 H         -0.000  0.000 -0.006    0.000 -0.000  0.006    0.490 -0.242 -0.000
 H          0.018 -0.139  0.193   -0.019  0.143 -0.198    0.012 -0.172  0.256
 H         -0.018  0.139  0.193    0.019 -0.143 -0.198    0.012 -0.172 -0.256
 H         -0.000 -0.000  0.006   -0.000 -0.000  0.006    0.490  0.242  0.000
 H         -0.018 -0.140 -0.194   -0.018 -0.142 -0.197    0.012  0.172  0.256
 H          0.018  0.140 -0.194    0.018  0.142 -0.197    0.012  0.172 -0.256
 TransDip  -0.000 -0.000 -0.000   -0.000 -0.000 -0.092   -0.149  0.000  0.000

 Mode:                46                     47                     48
 Frequency:      3133.96                3147.66                3147.99
 Force Cnst:      6.3730                 6.4554                 6.4572
 Red. Mass:       1.1013                 1.1059                 1.1059
 IR Active:          YES                    YES                    YES
 IR Intens:       34.340                  0.000                 83.911
 Raman Active:       YES                    YES                    YES
               X      Y      Z        X      Y      Z        X      Y      Z
 O         -0.000  0.000  0.000   -0.000  0.000 -0.000    0.000  0.000  0.000
 O          0.000  0.000 -0.000   -0.000 -0.000  0.000   -0.000  0.000  0.000
 O         -0.000  0.000 -0.000    0.000 -0.000  0.000   -0.000  0.000  0.000
 C          0.001 -0.006 -0.000    0.000  0.000  0.033   -0.000 -0.000 -0.034
 C         -0.001 -0.006  0.000    0.000 -0.000 -0.033    0.000 -0.000 -0.034
 C          0.043 -0.049  0.000    0.000  0.000  0.058   -0.000 -0.000 -0.058
 C         -0.043 -0.049  0.000    0.000 -0.000 -0.058    0.000 -0.000 -0.058
 C          0.000 -0.001 -0.000    0.000  0.000  0.000    0.000 -0.000  0.000
 H         -0.002  0.034 -0.048   -0.006  0.140 -0.192    0.006 -0.144  0.197
 H         -0.002  0.034  0.048    0.006 -0.140 -0.192   -0.006  0.144  0.197
 H          0.002  0.034  0.048    0.006  0.141  0.193    0.006  0.143  0.196
 H          0.002  0.034 -0.048   -0.006 -0.141  0.193   -0.006 -0.143  0.196
 H         -0.490  0.242  0.000    0.000 -0.000  0.009   -0.000  0.000 -0.009
 H         -0.012  0.172 -0.256   -0.028  0.257 -0.351    0.028 -0.257  0.350
 H         -0.012  0.172  0.256    0.028 -0.257 -0.351   -0.028  0.257  0.350
 H          0.490  0.242  0.000    0.000  0.000 -0.009    0.000  0.000 -0.009
 H          0.012  0.172  0.256    0.028  0.258  0.352    0.027  0.256  0.349
 H          0.012  0.172 -0.256   -0.028 -0.258  0.352   -0.027 -0.256  0.349
 TransDip  -0.000 -0.188  0.000   -0.000 -0.000 -0.001   -0.000 -0.000 -0.293

 STANDARD THERMODYNAMIC QUANTITIES AT   298.15 K  AND     1.00 ATM

   This Molecule has  0 Imaginary Frequencies
   Zero point vibrational energy:       96.431 kcal/mol

   Atom    1 Element O  Has Mass   15.99491
   Atom    2 Element O  Has Mass   15.99491
   Atom    3 Element O  Has Mass   15.99491
   Atom    4 Element C  Has Mass   12.00000
   Atom    5 Element C  Has Mass   12.00000
   Atom    6 Element C  Has Mass   12.00000
   Atom    7 Element C  Has Mass   12.00000
   Atom    8 Element C  Has Mass   12.00000
   Atom    9 Element H  Has Mass    1.00783
   Atom   10 Element H  Has Mass    1.00783
   Atom   11 Element H  Has Mass    1.00783
   Atom   12 Element H  Has Mass    1.00783
   Atom   13 Element H  Has Mass    1.00783
   Atom   14 Element H  Has Mass    1.00783
   Atom   15 Element H  Has Mass    1.00783
   Atom   16 Element H  Has Mass    1.00783
   Atom   17 Element H  Has Mass    1.00783
   Atom   18 Element H  Has Mass    1.00783
   Molecular Mass:   118.063030 amu
   Principal axes and moments of inertia in amu*Bohr^2:
                             1           2           3
    Eigenvalues --      286.35105  2015.44165  2256.71059
          X               1.00000     0.00000    -0.00000
          Y              -0.00000     1.00000    -0.00000
          Z               0.00000     0.00000     1.00000
   Rotational Symmetry Number is   1
   The Molecule is an Asymmetric Top
   Translational Enthalpy:        0.889 kcal/mol
   Rotational Enthalpy:           0.889 kcal/mol
   Vibrational Enthalpy:        100.582 kcal/mol
   gas constant (RT):             0.592 kcal/mol
   Translational Entropy:        40.213  cal/mol.K
   Rotational Entropy:           28.656  cal/mol.K
   Vibrational Entropy:          27.710  cal/mol.K

   Total Enthalpy:              102.952 kcal/mol
   Total Entropy:                96.579  cal/mol.K
Archival summary:
1\1\nid00723\FREQ\ProcedureUnspecified\BasisUnspecified\3510\sblau\TueJul1710:05:452018TueJul1710:05:452018\0\\#,FREQ,ProcedureUnspecified,BasisUnspecified,\\0,1\O\C,1,1.3292\O,2,1.20395,1,125.81\O,2,1.3292,1,108.381,3,-179.995,0\C,1,1.43633,2,115.493,3,-0.00397411,0\H,5,1.09256,1,108.794,2,-58.6555,0\H,5,1.09256,1,108.794,2,58.6609,0\C,4,1.43633,2,115.493,1,179.999,0\H,8,1.09256,4,108.794,2,58.6549,0\H,8,1.09256,4,108.794,2,-58.6615,0\C,8,1.51015,4,107.509,2,179.997,0\H,11,1.09191,8,111.087,4,-60.4457,0\H,11,1.09191,8,111.087,4,60.4467,0\H,11,1.09297,8,109.535,4,-180,0\C,5,1.51015,1,107.509,2,-179.997,0\H,15,1.09191,5,111.087,1,-60.4466,0\H,15,1.09191,5,111.087,1,60.4458,0\H,15,1.09297,5,109.535,1,180,0\\\@

 Total job time:  708.10s(wall), 3254.10s(cpu) 
 Tue Jul 17 10:05:45 2018

        *************************************************************
        *                                                           *
        *  Thank you very much for using Q-Chem.  Have a nice day.  *
        *                                                           *
        *************************************************************


0 sent ACK to 0 
now end server 0 ... 
cleanup process ... done
