
Running Job 1 of 1 mol.qin
qchem mol.qin_22304.0 /tmp/qchem22304/ 1
srun -n 1 /global/common/cori/software/qchem/5.1beta/exe/qcprog.exe mol.qin_22304.0 /tmp/qchem22304/

Process 0 of 1 is on nid00724 - thread support 0
initial socket setup ...start
initial socket setup ...done 
now start server 0 ... 
Check license passed

                  Welcome to Q-Chem
     A Quantum Leap Into The Future Of Chemistry


 Q-Chem 5.1, Q-Chem, Inc., Pleasanton, CA (2018)

 Yihan Shao,  Zhengting Gan,  E. Epifanovsky,  A. T. B. Gilbert,  M. Wormit,  
 J. Kussmann,  A. W. Lange,  A. Behn,  Jia Deng,  Xintian Feng,  D. Ghosh,  
 M. Goldey,  P. R. Horn,  L. D. Jacobson,  I. Kaliman,  T. Kus,  A. Landau,  
 Jie Liu,  E. I. Proynov,  R. M. Richard,  R. P. Steele,  E. J. Sundstrom,  
 H. L. Woodcock III,  P. M. Zimmerman,  D. Zuev,  B. Albrecht,  E. Alguire,  
 S. A. Baeppler,  D. Barton,  Z. Benda,  Y. A. Bernard,  E. J. Berquist,  
 K. B. Bravaya,  H. Burton,  D. Casanova,  Chun-Min Chang,  Yunqing Chen,  
 A. Chien,  K. D. Closser,  M. P. Coons,  S. Coriani,  S. Dasgupta,  
 A. L. Dempwolff,  M. Diedenhofen,  Hainam Do,  R. G. Edgar,  Po-Tung Fang,  
 S. Faraji,  S. Fatehi,  Qingguo Feng,  K. D. Fenk,  J. Fosso-Tande,  
 Qinghui Ge,  A. Ghysels,  G. Gidofalvi,  J. Gomes,  J. Gonthier,  A. Gunina,  
 M. W. D. Hanson-Heine,  P. H. P. Harbach,  A. W. Hauser,  J. E. Herr,  
 E. G. Hohenstein,  Z. C. Holden,  Kerwin Hui,  T.-C. Jagau,  Hyunjun Ji,  
 B. Kaduk,  K. Khistyaev,  Jaehoon Kim,  P. Klunzinger,  K. Koh,  
 D. Kosenkov,  L. Koulias,  T. Kowalczyk,  C. M. Krauter,  A. Kunitsa,  
 Ka Un Lao,  A. Laurent,  K. V. Lawler,  Joonho Lee,  D. Lefrancois,  
 S. Lehtola,  D. S. Levine,  Yi-Pei Li,  You-Sheng Lin,  Fenglai Liu,  
 E. Livshits,  A. Luenser,  P. Manohar,  E. Mansoor,  S. F. Manzer,  
 Shan-Ping Mao,  Yuezhi Mao,  N. Mardirossian,  A. V. Marenich,  
 T. Markovich,  L. A. Martinez-Martinez,  S. A. Maurer,  N. J. Mayhall,  
 S. C. McKenzie,  J.-M. Mewes,  A. F. Morrison,  J. W. Mullinax,  K. Nanda,  
 T. S. Nguyen-Beck,  R. Olivares-Amaya,  J. A. Parkhill,  T. M. Perrine,  
 F. Plasser,  P. Pokhilko,  S. Prager,  A. Prociuk,  E. Ramos,  D. R. Rehn,  
 F. Rob,  M. Schneider,  N. Sergueev,  S. M. Sharada,  S. Sharma,  
 D. W. Small,  T. Stauch,  T. Stein,  Yu-Chuan Su,  A. J. W. Thom,  
 A. Tkatchenko,  T. Tsuchimochi,  N. M. Tubman,  L. Vogt,  M. L. Vidal,  
 O. Vydrov,  M. A. Watson,  J. Wenzel,  M. de Wergifosse,  T. A. Wesolowski,  
 A. White,  J. Witte,  A. Yamada,  Jun Yang,  K. Yao,  S. Yeganeh,  
 S. R. Yost,  Zhi-Qiang You,  A. Zech,  Igor Ying Zhang,  Xing Zhang,  
 Yan Zhao,  Ying Zhu,  B. R. Brooks,  G. K. L. Chan,  C. J. Cramer,  
 M. S. Gordon,  W. J. Hehre,  A. Klamt,  M. W. Schmidt,  C. D. Sherrill,  
 D. G. Truhlar,  A. Aspuru-Guzik,  R. Baer,  A. T. Bell,  N. A. Besley,  
 Jeng-Da Chai,  R. A. DiStasio Jr.,  A. Dreuw,  B. D. Dunietz,  
 T. R. Furlani,  Chao-Ping Hsu,  Yousung Jung,  Jing Kong,  D. S. Lambrecht,  
 WanZhen Liang,  C. Ochsenfeld,  V. A. Rassolov,  L. V. Slipchenko,  
 J. E. Subotnik,  T. Van Voorhis,  J. M. Herbert,  A. I. Krylov,  
 P. M. W. Gill,  M. Head-Gordon

 Contributors to earlier versions of Q-Chem not listed above: 
 R. D. Adamson,  B. Austin,  J. Baker,  G. J. O. Beran,  K. Brandhorst,  
 S. T. Brown,  E. F. C. Byrd,  A. K. Chakraborty,  C.-L. Cheng,  
 Siu Hung Chien,  D. M. Chipman,  D. L. Crittenden,  H. Dachsel,  
 R. J. Doerksen,  A. D. Dutoi,  L. Fusti-Molnar,  W. A. Goddard III,  
 A. Golubeva-Zadorozhnaya,  S. R. Gwaltney,  G. Hawkins,  A. Heyden,  
 S. Hirata,  G. Kedziora,  F. J. Keil,  C. Kelley,  Jihan Kim,  R. A. King,  
 R. Z. Khaliullin,  P. P. Korambath,  W. Kurlancheek,  A. M. Lee,  M. S. Lee,  
 S. V. Levchenko,  Ching Yeh Lin,  D. Liotard,  R. C. Lochan,  I. Lotan,  
 P. E. Maslen,  N. Nair,  D. P. O'Neill,  D. Neuhauser,  E. Neuscamman,  
 C. M. Oana,  R. Olson,  B. Peters,  R. Peverati,  P. A. Pieniazek,  
 Y. M. Rhee,  J. Ritchie,  M. A. Rohrdanz,  E. Rosta,  N. J. Russ,  
 H. F. Schaefer III,  N. E. Schultz,  N. Shenvi,  A. C. Simmonett,  A. Sodt,  
 D. Stuck,  K. S. Thanthiriwatte,  V. Vanovschi,  Tao Wang,  A. Warshel,  
 C. F. Williams,  Q. Wu,  X. Xu,  W. Zhang

 Please cite Q-Chem as follows:
 Y. Shao et al., Mol. Phys. 113, 184-215 (2015)
 DOI: 10.1080/00268976.2014.952696

 Q-Chem 5.1.0 for Intel X86 EM64T Linux

 Parts of Q-Chem use Armadillo 8.300.2 (Tropical Shenanigans).
 http://arma.sourceforge.net/

 Q-Chem begins on Tue Jul 17 09:52:18 2018  

Host: cori06
0

     Scratch files written to /tmp/qchem22304//
 Mar1918  _RNUM -1
 Parallel job on  1  processors
Processing $rem in /global/common/cori/software/qchem/5.1beta/config/preferences.
 MEM_TOTAL  2000 

Checking the input file for inconsistencies... 	...done.

--------------------------------------------------------------
User input:
--------------------------------------------------------------
$molecule
0 2
B      1.5524000000     -0.1080800000     -0.0145400000
F      1.0165000000      0.0133500000     -1.3604800000
F      1.0416900000     -1.3209900000      0.6030400000
F      1.1480800000      1.0446000000      0.7739500000
F      3.0038900000     -0.1686200000     -0.0743700000
$end

$rem
job_type = opt
basis = 6-311++g*
max_scf_cycles = 200
gen_scfman = true
scf_algorithm = gdm
method = wb97xd
geom_opt_max_cycles = 200
$end
--------------------------------------------------------------
 ----------------------------------------------------------------
             Standard Nuclear Orientation (Angstroms)
    I     Atom           X                Y                Z
 ----------------------------------------------------------------
    1      B       0.0001979596    -0.0000118078     0.0000333157
    2      F       0.7629709398     1.2374896884     0.0160322540
    3      F       0.8934648852    -1.1231597509     0.2323979563
    4      F      -0.6461972263    -0.1542527113    -1.2931199359
    5      F      -1.0103485763     0.0399293338     1.0446712170
 ----------------------------------------------------------------
 Molecular Point Group                 C1    NOp =  1
 Largest Abelian Subgroup              C1    NOp =  1
 Nuclear Repulsion Energy =   173.8417803421 hartrees
 There are       21 alpha and       20 beta electrons
 Requested basis set is 6-311++G(d)
 There are 30 shells and 110 basis functions

 Total QAlloc Memory Limit   2000 MB
 Mega-Array Size       188 MB
 MEM_STATIC part       192 MB
 A cutoff of  1.0D-12 yielded    441 shell pairs
 There are      6125 function pairs (      6715 Cartesian)
 
 -------------------------------------------------------
 OpenMP Integral Computing Module                       
 Release: version 1.0, May 2013, Q-Chem Inc. Pittsburgh 
 -------------------------------------------------------
 Integral Job Info:
 Integral job number is                      11
 Integral operator is                         1
 short-range coefficients              22203600
 long-range coefficients              100000000
 Omega coefficients                         200
 if combine SR and LR in K                    1
 Integral screening is                        0
 Integral computing path is                   2
 max size of driver memory is            800000
 size of driver memory is                593474
 size of scratch memory is              2428936
 max col of scratch BK array               1296
 max len of scratch array in speh3          155
 max len of scratch index in speh4           18
 max int batch size is                      520
 min int batch size is                       52
 fixed nKL is                                52
 max L of basis functions is                  2
 order of int derivative is                   0
 number of shells is                         30
 number of basis is                         115
 number of cartesian basis is               115
 number of contracted shell pairs           441
 number of primitive shell pairs           1493
 maxK2 (contraction) of shell pair           36
 max number of K2 of shell pair               1
 max number of CS2 of shell pair            120
 max number of PS2 of shell pair            450
 mem total for path MDJ                  520922
 -------------------------------------------------------
 Smallest overlap matrix eigenvalue = 4.49E-04

 Scale SEOQF with 1.000000e-01/1.000000e-01/1.000000e-01

 Standard Electronic Orientation quadrupole field applied
 Guess from superposition of atomic densities
 Warning:  Energy on first SCF cycle will be non-variational
 SAD guess density has 41.000000 electrons

 -----------------------------------------------------------------------
  General SCF calculation program by
  Eric Jon Sundstrom, Paul Horn, Yuezhi Mao, Dmitri Zuev, Alec White,
  David Stuck, Shaama M.S., Shane Yost, Joonho Lee, David Small,
  Daniel Levine, Susi Lehtola, Hugh Burton, Evgeny Epifanovsky
 -----------------------------------------------------------------------
 Exchange:     0.2220 Hartree-Fock + 1.0000 wB97X-D + LR-HF
 Correlation:  1.0000 wB97X-D
 Using SG-2 standard quadrature grid
 Dispersion:   Grimme D
 using 32 threads for integral computing
 -------------------------------------------------------
 OpenMP Integral computing Module                
 Release: version 1.0, May 2013, Q-Chem Inc. Pittsburgh 
 -------------------------------------------------------
 using 32 threads for integral computing
 -------------------------------------------------------
 OpenMP Integral computing Module                
 Release: version 1.0, May 2013, Q-Chem Inc. Pittsburgh 
 -------------------------------------------------------
 -------------------------------------------------------
 OpenMP BLAS3 based DFT computing Module                
 Release: version 1.0, May 2013, Q-Chem Inc. Pittsburgh 
 -------------------------------------------------------
 A unrestricted SCF calculation will be
 performed using Roothaan-Hall, GDM
 SCF converges when RMS gradient is below 1.0e-08
 ---------------------------------------
  Cycle       Energy         DIIS error
 ---------------------------------------
    1    -424.4077461463      2.29e-02  Roothaan Step
 ---------------------------------------
  Cycle       Energy        RMS Gradient
 ---------------------------------------
    1    -424.1763978657      1.37e-01   Descent step
    2    -424.2359372768      7.25e-02   Normal BFGS step
    3    -424.2465520762      5.83e-02   Normal BFGS step
    4    -424.2493382308      9.66e-03   Normal BFGS step
    5    -424.2503840690      3.45e-03   Normal BFGS step
    6    -424.2504570823      3.45e-03   Normal BFGS step
    7    -424.2504904293      2.94e-03   Normal BFGS step
    8    -424.2505396830      1.74e-03   Normal BFGS step
    9    -424.2505447627      2.27e-03   Normal BFGS step
   10    -424.2505549091      1.64e-03   Normal BFGS step
   11    -424.2505662591      1.71e-03   Normal BFGS step
   12    -424.2505991272      2.98e-03   Normal BFGS step
   13    -424.2506794057      1.05e-02   Normal BFGS step
   14    -424.2508175017      1.01e-02   Dog-leg BFGS step
   15    -424.2507173955      2.84e-02  Line search: overstep
   16    -424.2513909392      7.41e-03   Normal BFGS step
   17    -424.2501454501      4.07e-02  Line search: overstep
   18    -424.2516627779      8.07e-03   Normal BFGS step
   19    -424.2515094952      1.75e-02  Line search: overstep
   20    -424.2518030175      6.65e-03   Normal BFGS step
   21    -424.2519225905      2.16e-03   Normal BFGS step
   22    -424.2519471374      1.98e-03   Normal BFGS step
   23    -424.2519651515      1.64e-03   Normal BFGS step
   24    -424.2519769602      1.17e-03   Normal BFGS step
   25    -424.2519852409      7.24e-04   Normal BFGS step
   26    -424.2519881649      3.85e-04   Normal BFGS step
   27    -424.2519890072      2.80e-04   Normal BFGS step
   28    -424.2519892409      1.16e-04   Normal BFGS step
   29    -424.2519893590      8.40e-05   Normal BFGS step
   30    -424.2519894231      8.62e-05   Normal BFGS step
   31    -424.2519894517      5.49e-05   Normal BFGS step
   32    -424.2519894607      1.59e-05   Normal BFGS step
   33    -424.2519894640      1.29e-05   Normal BFGS step
   34    -424.2519894658      1.41e-05   Normal BFGS step
   35    -424.2519894670      1.12e-05   Normal BFGS step
   36    -424.2519894677      1.29e-05   Normal BFGS step
   37    -424.2519894685      1.06e-05   Normal BFGS step
   38    -424.2519894695      1.06e-05   Normal BFGS step
   39    -424.2519894707      1.02e-05   Normal BFGS step
   40    -424.2519894716      1.00e-05   Normal BFGS step
   41    -424.2519894720      4.57e-06   Normal BFGS step
   42    -424.2519894721      4.57e-06   Normal BFGS step
   43    -424.2519894722      3.08e-06   Normal BFGS step
   44    -424.2519894722      1.35e-06   Normal BFGS step
   45    -424.2519894722      6.61e-07   Normal BFGS step
   46    -424.2519894722      3.35e-07   Normal BFGS step
   47    -424.2519894722      1.83e-07   Normal BFGS step
   48    -424.2519894722      1.21e-07   Normal BFGS step
   49    -424.2519894722      5.92e-08   Normal BFGS step
   50    -424.2519894722      3.26e-08   Normal BFGS step
   51    -424.2519894722      1.38e-08   Normal BFGS step
   52    -424.2519894722      7.88e-09  Convergence criterion met
 ---------------------------------------
 SCF time:   CPU 781.19s  wall 27.00s 
 SCF   energy in the final basis set =     -424.2519894722
<S^2> =          0.755899143
 
 --------------------------------------------------------------
 
                    Orbital Energies (a.u.)
 --------------------------------------------------------------
 
 Alpha MOs
 -- Occupied --
-24.890 -24.890 -24.890 -24.890  -7.081  -1.402  -1.356  -1.356
 -1.356  -0.746  -0.686  -0.686  -0.680  -0.623  -0.600  -0.593
 -0.593  -0.580  -0.578  -0.557  -0.557
 -- Virtual --
  0.059   0.082   0.082   0.082   0.229   0.238   0.239   0.241
  0.292   0.292   0.294   0.300   0.304   0.328   0.363   0.363
  0.364   0.388   0.390   0.390   0.401   0.473   0.473   0.474
  0.550   0.550   0.551   0.797   0.947   0.954   1.248   1.248
  1.250   1.350   1.359   1.378   1.378   1.382   1.409   1.418
  1.418   1.435   1.435   1.438   1.448   1.917   1.917   1.917
  2.032   2.220   2.220   2.221   3.759   3.772   3.772   3.785
  3.786   3.786   3.786   3.787   3.821   3.821   3.828   4.032
  4.032   4.043   4.119   4.200   4.217   4.604   4.608   4.608
  6.246   6.267   6.276   6.276   6.290   6.344   6.381   6.397
  6.397   6.555   6.555   6.557  14.466  66.838  66.839  66.839
 66.856
 
 Beta MOs
 -- Occupied --
-24.882 -24.882 -24.882 -24.882  -7.082  -1.382  -1.333  -1.332
 -1.332  -0.738  -0.673  -0.667  -0.667  -0.591  -0.570  -0.558
 -0.558  -0.552  -0.522  -0.522
 -- Virtual --
 -0.317   0.057   0.080   0.080   0.080   0.232   0.241   0.243
  0.243   0.295   0.296   0.296   0.305   0.305   0.328   0.363
  0.363   0.364   0.390   0.390   0.390   0.402   0.473   0.474
  0.475   0.549   0.549   0.550   0.796   0.954   0.954   1.252
  1.252   1.252   1.361   1.363   1.382   1.382   1.383   1.426
  1.426   1.428   1.442   1.443   1.443   1.452   1.926   1.927
  1.927   2.041   2.220   2.221   2.222   3.784   3.784   3.785
  3.811   3.812   3.812   3.812   3.813   3.848   3.848   3.848
  4.050   4.051   4.051   4.131   4.223   4.224   4.618   4.618
  4.619   6.275   6.281   6.298   6.302   6.302   6.352   6.411
  6.411   6.416   6.565   6.566   6.566  14.464  66.844  66.844
 66.844  66.862
 --------------------------------------------------------------
 
          Ground-State Mulliken Net Atomic Charges

     Atom                 Charge (a.u.)    Spin (a.u.)
  --------------------------------------------------------
      1 B                     0.763878      -0.088826
      2 F                    -0.191009       0.271817
      3 F                    -0.191289       0.271566
      4 F                    -0.190744       0.272755
      5 F                    -0.190836       0.272688
  --------------------------------------------------------
  Sum of atomic charges =    -0.000000
  Sum of spin   charges =     1.000000

 -----------------------------------------------------------------
                    Cartesian Multipole Moments
 -----------------------------------------------------------------
    Charge (ESU x 10^10)
                 0.0000
    Dipole Moment (Debye)
         X      -0.0037      Y       0.0006      Z      -0.0011
       Tot       0.0039
    Quadrupole Moments (Debye-Ang)
        XX     -25.9433     XY      -0.0108     YY     -26.0579
        XZ       0.0138     YZ       0.1331     ZZ     -26.0919
    Octopole Moments (Debye-Ang^2)
       XXX       0.1141    XXY       0.1746    XYY      -1.9820
       YYY      -0.4096    XXZ      -0.6277    XYZ       0.3375
       YYZ      -0.2511    XZZ       1.8500    YZZ       0.2385
       ZZZ       0.8727
    Hexadecapole Moments (Debye-Ang^3)
      XXXX    -100.4628   XXXY       0.4001   XXYY     -34.4456
      XYYY      -0.2114   YYYY    -101.4245   XXXZ       0.4777
      XXYZ      -0.3394   XYYZ      -0.2237   YYYZ       0.4558
      XXZZ     -34.2390   XYZZ      -0.2181   YYZZ     -33.6077
      XZZZ      -0.2105   YZZZ       0.2857   ZZZZ    -101.7093
 -----------------------------------------------------------------
 Calculating analytic gradient of the SCF energy
 Gradient of SCF Energy
            1           2           3           4           5
    1  -0.0000639   0.0204505   0.0231043  -0.0166111  -0.0268798
    2   0.0000393   0.0359634  -0.0329703  -0.0006262  -0.0024062
    3  -0.0000356  -0.0036427   0.0102164  -0.0380374   0.0314994
 Max gradient component =       3.804E-02
 RMS gradient           =       2.144E-02
 Gradient time:  CPU 28.68 s  wall 1.87 s
 Geometry Optimization Parameters
   NAtoms,    NIC,     NZ,  NCons,   NDum,   NFix, NCnnct, MaxDiis
        5      20       0       0       0       0       0       0


** GEOMETRY OPTIMIZATION IN DELOCALIZED INTERNAL COORDINATES **
   Searching for a Minimum

   Optimization Cycle:   1

                       Coordinates (Angstroms)
     ATOM                X               Y               Z
      1  B         0.0001979596   -0.0000118078    0.0000333157
      2  F         0.7629709398    1.2374896884    0.0160322540
      3  F         0.8934648852   -1.1231597509    0.2323979563
      4  F        -0.6461972263   -0.1542527113   -1.2931199359
      5  F        -1.0103485763    0.0399293338    1.0446712170
   Point Group: c1    Number of degrees of freedom:     9


   Energy is   -424.251989472


 Attempting to Generate Delocalized Internal Coordinates

  9 Hessian modes will be used to form the next step
  Hessian Eigenvalues:
     0.250000    0.250000    0.250000    0.250000    0.250000    0.377278
     0.377369    0.377535    0.377583

 Minimum Search - Taking Simple RFO Step
 Searching for Lamda that Minimizes Along All modes
 Value Taken    Lamda =  -0.01795869
 Step Taken.  Stepsize is  0.215132

                             Maximum     Tolerance    Cnvgd?
         Gradient           0.082568      0.000300      NO
         Displacement       0.208821      0.001200      NO
         Energy change     *********      0.000001      NO


 New Cartesian Coordinates Obtained by Inverse Iteration

 Displacement from previous Coordinates is:  0.223868
 ----------------------------------------------------------------
             Standard Nuclear Orientation (Angstroms)
    I     Atom           X                Y                Z
 ----------------------------------------------------------------
    1      B       0.0002516521    -0.0000707531     0.0001182652
    2      F       0.7397843457     1.1864080286     0.0350206085
    3      F       0.8703380077    -1.0753408471     0.2063234473
    4      F      -0.6298657522    -0.1664365512    -1.2374203960
    5      F      -0.9804202713     0.0554348749     0.9959728820
 ----------------------------------------------------------------
 Molecular Point Group                 C1    NOp =  1
 Largest Abelian Subgroup              C1    NOp =  1
 Nuclear Repulsion Energy =   180.7188204747 hartrees
 There are       21 alpha and       20 beta electrons
 Applying Cartesian multipole field
    Component          Value
    ---------          -----
     (2,0,0)        1.00000E-11
     (0,2,0)        2.00000E-11
     (0,0,2)       -3.00000E-11
 Requested basis set is 6-311++G(d)
 There are 30 shells and 110 basis functions
 A cutoff of  1.0D-12 yielded    441 shell pairs
 There are      6125 function pairs (      6715 Cartesian)
 Smallest overlap matrix eigenvalue = 3.13E-04
 Guess MOs from SCF MO coefficient file
 Reading MOs from coefficient file
 Reading MOs from coefficient file

 -----------------------------------------------------------------------
  General SCF calculation program by
  Eric Jon Sundstrom, Paul Horn, Yuezhi Mao, Dmitri Zuev, Alec White,
  David Stuck, Shaama M.S., Shane Yost, Joonho Lee, David Small,
  Daniel Levine, Susi Lehtola, Hugh Burton, Evgeny Epifanovsky
 -----------------------------------------------------------------------
 Exchange:     0.2220 Hartree-Fock + 1.0000 wB97X-D + LR-HF
 Correlation:  1.0000 wB97X-D
 Using SG-2 standard quadrature grid
 Dispersion:   Grimme D
 using 32 threads for integral computing
 -------------------------------------------------------
 OpenMP Integral computing Module                
 Release: version 1.0, May 2013, Q-Chem Inc. Pittsburgh 
 -------------------------------------------------------
 using 32 threads for integral computing
 -------------------------------------------------------
 OpenMP Integral computing Module                
 Release: version 1.0, May 2013, Q-Chem Inc. Pittsburgh 
 -------------------------------------------------------
 -------------------------------------------------------
 OpenMP BLAS3 based DFT computing Module                
 Release: version 1.0, May 2013, Q-Chem Inc. Pittsburgh 
 -------------------------------------------------------
 A unrestricted SCF calculation will be
 performed using Roothaan-Hall, GDM
 SCF converges when RMS gradient is below 1.0e-08
 ---------------------------------------
  Cycle       Energy         DIIS error
 ---------------------------------------
    1    -424.2586609293      9.01e-04  Roothaan Step
 ---------------------------------------
  Cycle       Energy        RMS Gradient
 ---------------------------------------
    1    -424.2625976665      5.61e-03   Normal BFGS step
    2    -424.2628271002      1.56e-03   Normal BFGS step
    3    -424.2628650280      3.32e-04   Normal BFGS step
    4    -424.2628655853      3.46e-04   Normal BFGS step
    5    -424.2628663401      1.18e-05   Normal BFGS step
    6    -424.2628663407      4.22e-05   Normal BFGS step
    7    -424.2628663426      8.95e-06   Normal BFGS step
    8    -424.2628663428      6.64e-06   Normal BFGS step
    9    -424.2628663432      4.42e-06   Normal BFGS step
   10    -424.2628663433      8.67e-06   Normal BFGS step
   11    -424.2628663434      4.00e-06   Normal BFGS step
   12    -424.2628663435      3.93e-06   Normal BFGS step
   13    -424.2628663436      3.24e-06   Normal BFGS step
   14    -424.2628663437      3.48e-06   Normal BFGS step
   15    -424.2628663438      2.16e-06   Normal BFGS step
   16    -424.2628663438      1.43e-06   Normal BFGS step
   17    -424.2628663438      1.59e-06   Normal BFGS step
   18    -424.2628663438      8.54e-07   Normal BFGS step
   19    -424.2628663438      5.84e-07   Normal BFGS step
   20    -424.2628663438      2.55e-07   Normal BFGS step
   21    -424.2628663438      1.85e-07   Normal BFGS step
   22    -424.2628663438      1.20e-07   Normal BFGS step
   23    -424.2628663438      5.93e-08   Normal BFGS step
   24    -424.2628663438      1.89e-08   Normal BFGS step
   25    -424.2628663438      4.25e-09  Convergence criterion met
 ---------------------------------------
 SCF time:   CPU 395.46s  wall 13.00s 
 SCF   energy in the final basis set =     -424.2628663438
<S^2> =          0.755420406
 
 --------------------------------------------------------------
 
                    Orbital Energies (a.u.)
 --------------------------------------------------------------
 
 Alpha MOs
 -- Occupied --
-24.887 -24.887 -24.886 -24.886  -7.053  -1.419  -1.364  -1.364
 -1.361  -0.751  -0.699  -0.699  -0.691  -0.630  -0.604  -0.594
 -0.594  -0.581  -0.574  -0.556  -0.556
 -- Virtual --
  0.062   0.082   0.082   0.082   0.263   0.265   0.267   0.268
  0.300   0.301   0.301   0.303   0.306   0.338   0.373   0.373
  0.374   0.392   0.393   0.393   0.443   0.476   0.476   0.479
  0.564   0.564   0.567   0.794   0.986   0.991   1.237   1.237
  1.252   1.328   1.343   1.380   1.380   1.395   1.429   1.431
  1.436   1.436   1.455   1.455   1.461   1.932   1.932   1.939
  2.013   2.267   2.294   2.295   3.753   3.766   3.766   3.783
  3.783   3.783   3.783   3.784   3.830   3.830   3.837   4.084
  4.084   4.101   4.214   4.304   4.311   4.626   4.652   4.652
  6.245   6.270   6.282   6.282   6.295   6.349   6.386   6.401
  6.401   6.571   6.584   6.585  14.610  66.847  66.847  66.849
 66.860
 
 Beta MOs
 -- Occupied --
-24.879 -24.879 -24.878 -24.878  -7.054  -1.400  -1.341  -1.341
 -1.337  -0.743  -0.683  -0.679  -0.679  -0.595  -0.571  -0.561
 -0.561  -0.561  -0.520  -0.520
 -- Virtual --
 -0.310   0.060   0.080   0.080   0.080   0.263   0.267   0.269
  0.269   0.302   0.307   0.308   0.309   0.309   0.337   0.374
  0.374   0.374   0.393   0.393   0.394   0.445   0.477   0.477
  0.480   0.563   0.563   0.566   0.794   0.991   0.995   1.243
  1.243   1.254   1.340   1.345   1.386   1.386   1.396   1.433
  1.442   1.442   1.450   1.462   1.462   1.464   1.942   1.942
  1.949   2.022   2.269   2.295   2.295   3.778   3.778   3.780
  3.809   3.809   3.809   3.810   3.810   3.856   3.857   3.857
  4.103   4.103   4.108   4.227   4.310   4.335   4.641   4.661
  4.662   6.278   6.281   6.303   6.307   6.307   6.356   6.416
  6.416   6.421   6.579   6.594   6.595  14.608  66.853  66.853
 66.854  66.865
 --------------------------------------------------------------
 
          Ground-State Mulliken Net Atomic Charges

     Atom                 Charge (a.u.)    Spin (a.u.)
  --------------------------------------------------------
      1 B                     0.812127      -0.087321
      2 F                    -0.203169       0.271349
      3 F                    -0.203352       0.270976
      4 F                    -0.202798       0.272571
      5 F                    -0.202808       0.272426
  --------------------------------------------------------
  Sum of atomic charges =    -0.000000
  Sum of spin   charges =     1.000000

 -----------------------------------------------------------------
                    Cartesian Multipole Moments
 -----------------------------------------------------------------
    Charge (ESU x 10^10)
                -0.0000
    Dipole Moment (Debye)
         X      -0.0048      Y       0.0005      Z      -0.0010
       Tot       0.0050
    Quadrupole Moments (Debye-Ang)
        XX     -25.6118     XY      -0.0036     YY     -25.6670
        XZ       0.0062     YZ       0.0607     ZZ     -25.6740
    Octopole Moments (Debye-Ang^2)
       XXX       0.1022    XXY       0.1608    XYY      -1.8236
       YYY      -0.3762    XXZ      -0.5776    XYZ       0.3102
       YYZ      -0.2311    XZZ       1.7000    YZZ       0.2190
       ZZZ       0.8015
    Hexadecapole Moments (Debye-Ang^3)
      XXXX     -95.1201   XXXY       0.4862   XXYY     -32.2584
      XYYY      -0.0799   YYYY     -94.0033   XXXZ       0.3165
      XXYZ      -0.7164   XYYZ      -0.2486   YYYZ      -0.7787
      XXZZ     -31.9297   XYZZ      -0.1642   YYZZ     -31.0170
      XZZZ      -0.3192   YZZZ      -0.9334   ZZZZ     -93.4482
 -----------------------------------------------------------------
 Calculating analytic gradient of the SCF energy
 Gradient of SCF Energy
            1           2           3           4           5
    1  -0.0001229   0.0024548   0.0023658  -0.0015823  -0.0031154
    2   0.0000294   0.0054908  -0.0052208   0.0015510  -0.0018504
    3  -0.0000564  -0.0023339   0.0030337  -0.0060245   0.0053811
 Max gradient component =       6.024E-03
 RMS gradient           =       3.337E-03
 Gradient time:  CPU 29.19 s  wall 1.11 s
 Geometry Optimization Parameters
   NAtoms,    NIC,     NZ,  NCons,   NDum,   NFix, NCnnct, MaxDiis
        5      20       0       0       0       0       0       0

 Cartesian Hessian Update
 Hessian Updated using BFGS Update


** GEOMETRY OPTIMIZATION IN DELOCALIZED INTERNAL COORDINATES **
   Searching for a Minimum

   Optimization Cycle:   2

                       Coordinates (Angstroms)
     ATOM                X               Y               Z
      1  B         0.0002516521   -0.0000707531    0.0001182652
      2  F         0.7397843457    1.1864080286    0.0350206085
      3  F         0.8703380077   -1.0753408471    0.2063234473
      4  F        -0.6298657522   -0.1664365512   -1.2374203960
      5  F        -0.9804202713    0.0554348749    0.9959728820
   Point Group: c1    Number of degrees of freedom:     9


   Energy is   -424.262866344

 Hessian Updated using BFGS Update

  6 Hessian modes will be used to form the next step
  Hessian Eigenvalues:
     0.233403    0.250001    0.355858    0.377320    0.377447    0.377562

 Minimum Search - Taking Simple RFO Step
 Searching for Lamda that Minimizes Along All modes
 Value Taken    Lamda =  -0.00074749
 Step Taken.  Stepsize is  0.053344

                             Maximum     Tolerance    Cnvgd?
         Gradient           0.011816      0.000300      NO
         Displacement       0.037507      0.001200      NO
         Energy change     -0.010877      0.000001      NO


 New Cartesian Coordinates Obtained by Inverse Iteration

 Displacement from previous Coordinates is:  0.069156
 ----------------------------------------------------------------
             Standard Nuclear Orientation (Angstroms)
    I     Atom           X                Y                Z
 ----------------------------------------------------------------
    1      B       0.0004590230    -0.0000928730     0.0001185854
    2      F       0.7386394810     1.1750372782     0.0492174362
    3      F       0.8718601694    -1.0639189946     0.1923290116
    4      F      -0.6315045019    -0.1784783677    -1.2236416928
    5      F      -0.9793661894     0.0674477092     0.9819914666
 ----------------------------------------------------------------
 Molecular Point Group                 C1    NOp =  1
 Largest Abelian Subgroup              C1    NOp =  1
 Nuclear Repulsion Energy =   182.0287890299 hartrees
 There are       21 alpha and       20 beta electrons
 Applying Cartesian multipole field
    Component          Value
    ---------          -----
     (2,0,0)        1.00000E-11
     (0,2,0)        2.00000E-11
     (0,0,2)       -3.00000E-11
 Requested basis set is 6-311++G(d)
 There are 30 shells and 110 basis functions
 A cutoff of  1.0D-12 yielded    441 shell pairs
 There are      6125 function pairs (      6715 Cartesian)
 Smallest overlap matrix eigenvalue = 2.94E-04
 Guess MOs from SCF MO coefficient file
 Reading MOs from coefficient file
 Reading MOs from coefficient file

 -----------------------------------------------------------------------
  General SCF calculation program by
  Eric Jon Sundstrom, Paul Horn, Yuezhi Mao, Dmitri Zuev, Alec White,
  David Stuck, Shaama M.S., Shane Yost, Joonho Lee, David Small,
  Daniel Levine, Susi Lehtola, Hugh Burton, Evgeny Epifanovsky
 -----------------------------------------------------------------------
 Exchange:     0.2220 Hartree-Fock + 1.0000 wB97X-D + LR-HF
 Correlation:  1.0000 wB97X-D
 Using SG-2 standard quadrature grid
 Dispersion:   Grimme D
 using 32 threads for integral computing
 -------------------------------------------------------
 OpenMP Integral computing Module                
 Release: version 1.0, May 2013, Q-Chem Inc. Pittsburgh 
 -------------------------------------------------------
 using 32 threads for integral computing
 -------------------------------------------------------
 OpenMP Integral computing Module                
 Release: version 1.0, May 2013, Q-Chem Inc. Pittsburgh 
 -------------------------------------------------------
 -------------------------------------------------------
 OpenMP BLAS3 based DFT computing Module                
 Release: version 1.0, May 2013, Q-Chem Inc. Pittsburgh 
 -------------------------------------------------------
 A unrestricted SCF calculation will be
 performed using Roothaan-Hall, GDM
 SCF converges when RMS gradient is below 1.0e-08
 ---------------------------------------
  Cycle       Energy         DIIS error
 ---------------------------------------
    1    -424.2628900607      2.27e-04  Roothaan Step
 ---------------------------------------
  Cycle       Energy        RMS Gradient
 ---------------------------------------
    1    -424.2632020935      1.11e-03   Normal BFGS step
    2    -424.2632175955      3.37e-04   Normal BFGS step
    3    -424.2632194614      1.10e-04   Normal BFGS step
    4    -424.2632194874      1.37e-04   Normal BFGS step
    5    -424.2632195434      2.96e-05   Normal BFGS step
    6    -424.2632195450      6.57e-05   Normal BFGS step
    7    -424.2632195522      3.59e-05   Normal BFGS step
    8    -424.2632195562      1.99e-05   Normal BFGS step
    9    -424.2632195607      2.77e-05   Normal BFGS step
   10    -424.2632195621      2.78e-05   Normal BFGS step
   11    -424.2632195637      2.58e-05   Normal BFGS step
   12    -424.2632195653      1.79e-05   Normal BFGS step
   13    -424.2632195676      1.40e-05   Normal BFGS step
   14    -424.2632195681      6.42e-06   Normal BFGS step
   15    -424.2632195681      1.66e-06   Normal BFGS step
   16    -424.2632195681      1.95e-06   Normal BFGS step
   17    -424.2632195681      1.24e-06   Normal BFGS step
   18    -424.2632195681      9.61e-07   Normal BFGS step
   19    -424.2632195681      3.88e-07   Normal BFGS step
   20    -424.2632195681      1.94e-07   Normal BFGS step
   21    -424.2632195681      1.52e-07   Normal BFGS step
   22    -424.2632195681      8.39e-08   Normal BFGS step
   23    -424.2632195681      2.85e-08   Normal BFGS step
   24    -424.2632195681      1.43e-08   Normal BFGS step
   25    -424.2632195681      1.20e-08   Normal BFGS step
   26    -424.2632195681      1.06e-08   Normal BFGS step
   27    -424.2632195681      8.32e-09  Convergence criterion met
 ---------------------------------------
 SCF time:   CPU 408.03s  wall 14.00s 
 SCF   energy in the final basis set =     -424.2632195681
<S^2> =          0.755313080
 
 --------------------------------------------------------------
 
                    Orbital Energies (a.u.)
 --------------------------------------------------------------
 
 Alpha MOs
 -- Occupied --
-24.886 -24.886 -24.885 -24.885  -7.048  -1.423  -1.366  -1.366
 -1.360  -0.752  -0.702  -0.702  -0.691  -0.633  -0.604  -0.594
 -0.594  -0.580  -0.573  -0.556  -0.556
 -- Virtual --
  0.062   0.082   0.082   0.082   0.263   0.269   0.272   0.272
  0.300   0.304   0.304   0.304   0.306   0.340   0.375   0.376
  0.376   0.393   0.393   0.393   0.453   0.478   0.478   0.481
  0.566   0.566   0.570   0.792   0.995   1.000   1.232   1.232
  1.256   1.322   1.341   1.379   1.379   1.400   1.426   1.436
  1.436   1.437   1.459   1.459   1.467   1.935   1.935   1.948
  2.005   2.265   2.313   2.313   3.752   3.766   3.766   3.782
  3.782   3.782   3.783   3.784   3.832   3.832   3.839   4.093
  4.093   4.114   4.230   4.315   4.340   4.620   4.661   4.661
  6.246   6.273   6.285   6.285   6.296   6.353   6.387   6.401
  6.401   6.565   6.592   6.592  14.638  66.849  66.849  66.852
 66.859
 
 Beta MOs
 -- Occupied --
-24.878 -24.878 -24.877 -24.877  -7.049  -1.403  -1.343  -1.343
 -1.337  -0.744  -0.684  -0.682  -0.682  -0.595  -0.571  -0.564
 -0.562  -0.562  -0.519  -0.519
 -- Virtual --
 -0.308   0.060   0.080   0.080   0.080   0.263   0.271   0.273
  0.273   0.302   0.307   0.309   0.312   0.312   0.339   0.375
  0.376   0.377   0.393   0.393   0.394   0.456   0.479   0.479
  0.482   0.566   0.566   0.570   0.792   1.000   1.005   1.238
  1.238   1.259   1.335   1.343   1.384   1.384   1.402   1.429
  1.442   1.442   1.455   1.468   1.468   1.470   1.944   1.944
  1.958   2.014   2.266   2.313   2.313   3.778   3.778   3.779
  3.809   3.809   3.809   3.809   3.809   3.858   3.860   3.860
  4.111   4.111   4.121   4.243   4.321   4.363   4.637   4.671
  4.671   6.281   6.282   6.304   6.311   6.311   6.361   6.416
  6.416   6.421   6.573   6.602   6.602  14.636  66.855  66.855
 66.857  66.865
 --------------------------------------------------------------
 
          Ground-State Mulliken Net Atomic Charges

     Atom                 Charge (a.u.)    Spin (a.u.)
  --------------------------------------------------------
      1 B                     0.814161      -0.086839
      2 F                    -0.203801       0.270846
      3 F                    -0.204047       0.270185
      4 F                    -0.203186       0.272897
      5 F                    -0.203128       0.272911
  --------------------------------------------------------
  Sum of atomic charges =    -0.000000
  Sum of spin   charges =     1.000000

 -----------------------------------------------------------------
                    Cartesian Multipole Moments
 -----------------------------------------------------------------
    Charge (ESU x 10^10)
                -0.0000
    Dipole Moment (Debye)
         X      -0.0087      Y       0.0009      Z      -0.0010
       Tot       0.0088
    Quadrupole Moments (Debye-Ang)
        XX     -25.5771     XY       0.0019     YY     -25.5972
        XZ      -0.0011     YZ       0.0125     ZZ     -25.5776
    Octopole Moments (Debye-Ang^2)
       XXX       0.0915    XXY       0.1588    XYY      -1.7963
       YYY      -0.3692    XXZ      -0.5671    XYZ       0.3045
       YYZ      -0.2272    XZZ       1.6676    YZZ       0.2154
       ZZZ       0.7883
    Hexadecapole Moments (Debye-Ang^3)
      XXXX     -95.0162   XXXY       0.5630   XXYY     -31.9936
      XYYY       0.0007   YYYY     -92.5359   XXXZ       0.2135
      XXYZ      -0.9933   XYYZ      -0.2816   YYYZ      -1.6250
      XXZZ     -31.5608   XYZZ      -0.1360   YYZZ     -30.4172
      XZZZ      -0.4195   YZZZ      -1.7807   ZZZZ     -91.3475
 -----------------------------------------------------------------
 Calculating analytic gradient of the SCF energy
 Gradient of SCF Energy
            1           2           3           4           5
    1  -0.0002859  -0.0011311  -0.0015617   0.0012314   0.0017473
    2   0.0000006  -0.0014309   0.0012183   0.0009318  -0.0007198
    3   0.0000075  -0.0008438   0.0004282   0.0014317  -0.0010236
 Max gradient component =       1.747E-03
 RMS gradient           =       1.073E-03
 Gradient time:  CPU 28.91 s  wall 1.26 s
 Geometry Optimization Parameters
   NAtoms,    NIC,     NZ,  NCons,   NDum,   NFix, NCnnct, MaxDiis
        5      20       0       0       0       0       0       0

 Cartesian Hessian Update
 Hessian Updated using BFGS Update


** GEOMETRY OPTIMIZATION IN DELOCALIZED INTERNAL COORDINATES **
   Searching for a Minimum

   Optimization Cycle:   3

                       Coordinates (Angstroms)
     ATOM                X               Y               Z
      1  B         0.0004590230   -0.0000928730    0.0001185854
      2  F         0.7386394810    1.1750372782    0.0492174362
      3  F         0.8718601694   -1.0639189946    0.1923290116
      4  F        -0.6315045019   -0.1784783677   -1.2236416928
      5  F        -0.9793661894    0.0674477092    0.9819914666
   Point Group: c1    Number of degrees of freedom:     9


   Energy is   -424.263219568

 Hessian Updated using BFGS Update

  7 Hessian modes will be used to form the next step
  Hessian Eigenvalues:
     0.186498    0.250000    0.250019    0.377318    0.377428    0.377561
     0.475943

 Minimum Search - Taking Simple RFO Step
 Searching for Lamda that Minimizes Along All modes
 Value Taken    Lamda =  -0.00005383
 Step Taken.  Stepsize is  0.012969

                             Maximum     Tolerance    Cnvgd?
         Gradient           0.003815      0.000300      NO
         Displacement       0.009753      0.001200      NO
         Energy change     -0.000353      0.000001      NO


 New Cartesian Coordinates Obtained by Inverse Iteration

 Displacement from previous Coordinates is:  0.018106
 ----------------------------------------------------------------
             Standard Nuclear Orientation (Angstroms)
    I     Atom           X                Y                Z
 ----------------------------------------------------------------
    1      B       0.0006978132    -0.0001103120     0.0001294901
    2      F       0.7407099355     1.1757736150     0.0534216841
    3      F       0.8752149288    -1.0643113378     0.1889530894
    4      F      -0.6341209177    -0.1824930618    -1.2237222236
    5      F      -0.9824137778     0.0711358487     0.9812327670
 ----------------------------------------------------------------
 Molecular Point Group                 C1    NOp =  1
 Largest Abelian Subgroup              C1    NOp =  1
 Nuclear Repulsion Energy =   181.7933596942 hartrees
 There are       21 alpha and       20 beta electrons
 Applying Cartesian multipole field
    Component          Value
    ---------          -----
     (2,0,0)        1.00000E-11
     (0,2,0)        2.00000E-11
     (0,0,2)       -3.00000E-11
 Requested basis set is 6-311++G(d)
 There are 30 shells and 110 basis functions
 A cutoff of  1.0D-12 yielded    441 shell pairs
 There are      6125 function pairs (      6715 Cartesian)
 Smallest overlap matrix eigenvalue = 2.99E-04
 Guess MOs from SCF MO coefficient file
 Reading MOs from coefficient file
 Reading MOs from coefficient file

 -----------------------------------------------------------------------
  General SCF calculation program by
  Eric Jon Sundstrom, Paul Horn, Yuezhi Mao, Dmitri Zuev, Alec White,
  David Stuck, Shaama M.S., Shane Yost, Joonho Lee, David Small,
  Daniel Levine, Susi Lehtola, Hugh Burton, Evgeny Epifanovsky
 -----------------------------------------------------------------------
 Exchange:     0.2220 Hartree-Fock + 1.0000 wB97X-D + LR-HF
 Correlation:  1.0000 wB97X-D
 Using SG-2 standard quadrature grid
 Dispersion:   Grimme D
 using 32 threads for integral computing
 -------------------------------------------------------
 OpenMP Integral computing Module                
 Release: version 1.0, May 2013, Q-Chem Inc. Pittsburgh 
 -------------------------------------------------------
 using 32 threads for integral computing
 -------------------------------------------------------
 OpenMP Integral computing Module                
 Release: version 1.0, May 2013, Q-Chem Inc. Pittsburgh 
 -------------------------------------------------------
 -------------------------------------------------------
 OpenMP BLAS3 based DFT computing Module                
 Release: version 1.0, May 2013, Q-Chem Inc. Pittsburgh 
 -------------------------------------------------------
 A unrestricted SCF calculation will be
 performed using Roothaan-Hall, GDM
 SCF converges when RMS gradient is below 1.0e-08
 ---------------------------------------
  Cycle       Energy         DIIS error
 ---------------------------------------
    1    -424.2632340311      5.31e-05  Roothaan Step
 ---------------------------------------
  Cycle       Energy        RMS Gradient
 ---------------------------------------
    1    -424.2632534855      2.79e-04   Normal BFGS step
    2    -424.2632543885      1.75e-04   Normal BFGS step
    3    -424.2632544662      9.11e-05   Normal BFGS step
    4    -424.2632544882      1.26e-04   Normal BFGS step
    5    -424.2632545057      5.67e-05   Normal BFGS step
    6    -424.2632545113      3.24e-05   Normal BFGS step
    7    -424.2632545207      3.92e-05   Normal BFGS step
    8    -424.2632545234      3.27e-05   Normal BFGS step
    9    -424.2632545253      2.84e-05   Normal BFGS step
   10    -424.2632545280      1.94e-05   Normal BFGS step
   11    -424.2632545308      1.81e-05   Normal BFGS step
   12    -424.2632545322      4.98e-06   Normal BFGS step
   13    -424.2632545323      2.07e-06   Normal BFGS step
   14    -424.2632545323      1.90e-06   Normal BFGS step
   15    -424.2632545323      6.40e-07   Normal BFGS step
   16    -424.2632545323      5.23e-07   Normal BFGS step
   17    -424.2632545323      3.75e-07   Normal BFGS step
   18    -424.2632545323      2.20e-07   Normal BFGS step
   19    -424.2632545323      6.79e-08   Normal BFGS step
   20    -424.2632545323      4.88e-08   Normal BFGS step
   21    -424.2632545323      3.70e-08   Normal BFGS step
   22    -424.2632545323      1.86e-08   Normal BFGS step
   23    -424.2632545323      1.54e-08   Normal BFGS step
   24    -424.2632545323      1.04e-08   Normal BFGS step
   25    -424.2632545323      1.12e-08   Normal BFGS step
   26    -424.2632545323      1.17e-08   Normal BFGS step
   27    -424.2632545323      7.10e-09  Convergence criterion met
 ---------------------------------------
 SCF time:   CPU 415.59s  wall 14.00s 
 SCF   energy in the final basis set =     -424.2632545323
<S^2> =          0.755317549
 
 --------------------------------------------------------------
 
                    Orbital Energies (a.u.)
 --------------------------------------------------------------
 
 Alpha MOs
 -- Occupied --
-24.886 -24.886 -24.885 -24.885  -7.049  -1.422  -1.366  -1.366
 -1.359  -0.752  -0.702  -0.702  -0.691  -0.633  -0.603  -0.594
 -0.594  -0.580  -0.573  -0.556  -0.556
 -- Virtual --
  0.062   0.082   0.082   0.082   0.262   0.269   0.272   0.272
  0.299   0.304   0.304   0.304   0.306   0.340   0.374   0.375
  0.375   0.392   0.393   0.393   0.451   0.478   0.478   0.482
  0.565   0.565   0.570   0.791   0.994   1.000   1.232   1.232
  1.258   1.323   1.342   1.378   1.378   1.401   1.426   1.435
  1.435   1.437   1.459   1.459   1.467   1.934   1.934   1.948
  2.005   2.259   2.312   2.312   3.752   3.766   3.766   3.782
  3.782   3.782   3.783   3.785   3.832   3.832   3.839   4.090
  4.090   4.112   4.225   4.310   4.339   4.617   4.662   4.662
  6.246   6.273   6.285   6.285   6.296   6.352   6.387   6.401
  6.401   6.563   6.592   6.592  14.633  66.849  66.849  66.852
 66.859
 
 Beta MOs
 -- Occupied --
-24.878 -24.878 -24.877 -24.877  -7.050  -1.403  -1.343  -1.343
 -1.336  -0.743  -0.683  -0.682  -0.682  -0.594  -0.571  -0.565
 -0.563  -0.562  -0.519  -0.519
 -- Virtual --
 -0.308   0.060   0.080   0.080   0.080   0.262   0.270   0.273
  0.273   0.301   0.306   0.309   0.312   0.312   0.339   0.375
  0.376   0.376   0.393   0.393   0.394   0.454   0.478   0.479
  0.483   0.565   0.565   0.570   0.791   0.999   1.004   1.237
  1.237   1.261   1.335   1.344   1.383   1.383   1.403   1.430
  1.440   1.440   1.455   1.467   1.467   1.469   1.944   1.944
  1.958   2.014   2.260   2.313   2.313   3.778   3.778   3.779
  3.809   3.809   3.809   3.809   3.810   3.858   3.859   3.859
  4.109   4.109   4.119   4.239   4.315   4.362   4.633   4.672
  4.672   6.281   6.281   6.304   6.310   6.310   6.360   6.416
  6.416   6.421   6.570   6.602   6.602  14.631  66.854  66.854
 66.857  66.865
 --------------------------------------------------------------
 
          Ground-State Mulliken Net Atomic Charges

     Atom                 Charge (a.u.)    Spin (a.u.)
  --------------------------------------------------------
      1 B                     0.809556      -0.086740
      2 F                    -0.202797       0.270289
      3 F                    -0.203098       0.269434
      4 F                    -0.201892       0.273378
      5 F                    -0.201769       0.273639
  --------------------------------------------------------
  Sum of atomic charges =    -0.000000
  Sum of spin   charges =     1.000000

 -----------------------------------------------------------------
                    Cartesian Multipole Moments
 -----------------------------------------------------------------
    Charge (ESU x 10^10)
                 0.0000
    Dipole Moment (Debye)
         X      -0.0130      Y       0.0011      Z      -0.0012
       Tot       0.0131
    Quadrupole Moments (Debye-Ang)
        XX     -25.5995     XY       0.0043     YY     -25.6137
        XZ      -0.0043     YZ      -0.0011     ZZ     -25.5778
    Octopole Moments (Debye-Ang^2)
       XXX       0.0825    XXY       0.1597    XYY      -1.8029
       YYY      -0.3692    XXZ      -0.5679    XYZ       0.3047
       YYZ      -0.2279    XZZ       1.6669    YZZ       0.2158
       ZZZ       0.7889
    Hexadecapole Moments (Debye-Ang^3)
      XXXX     -95.5755   XXXY       0.5926   XXYY     -32.1217
      XYYY       0.0272   YYYY     -92.7140   XXXZ       0.1855
      XXYZ      -1.0779   XYYZ      -0.2934   YYYZ      -1.8745
      XXZZ     -31.6491   XYZZ      -0.1279   YYZZ     -30.4338
      XZZZ      -0.4515   YZZZ      -2.0311   ZZZZ     -91.2956
 -----------------------------------------------------------------
 Calculating analytic gradient of the SCF energy
 Gradient of SCF Energy
            1           2           3           4           5
    1  -0.0004210  -0.0001833  -0.0003322   0.0004006   0.0005358
    2   0.0000205  -0.0002861   0.0001942   0.0003068  -0.0002355
    3  -0.0000057  -0.0003162   0.0002165   0.0003122  -0.0002068
 Max gradient component =       5.358E-04
 RMS gradient           =       2.972E-04
 Gradient time:  CPU 28.91 s  wall 1.10 s
 Geometry Optimization Parameters
   NAtoms,    NIC,     NZ,  NCons,   NDum,   NFix, NCnnct, MaxDiis
        5      20       0       0       0       0       0       0

 Cartesian Hessian Update
 Hessian Updated using BFGS Update


** GEOMETRY OPTIMIZATION IN DELOCALIZED INTERNAL COORDINATES **
   Searching for a Minimum

   Optimization Cycle:   4

                       Coordinates (Angstroms)
     ATOM                X               Y               Z
      1  B         0.0006978132   -0.0001103120    0.0001294901
      2  F         0.7407099355    1.1757736150    0.0534216841
      3  F         0.8752149288   -1.0643113378    0.1889530894
      4  F        -0.6341209177   -0.1824930618   -1.2237222236
      5  F        -0.9824137778    0.0711358487    0.9812327670
   Point Group: c1    Number of degrees of freedom:     9


   Energy is   -424.263254532

 Hessian Updated using BFGS Update

  8 Hessian modes will be used to form the next step
  Hessian Eigenvalues:
     0.144028    0.249991    0.250000    0.250049    0.375485    0.377339
     0.377554    0.432680

 Minimum Search - Taking Simple RFO Step
 Searching for Lamda that Minimizes Along All modes
 Value Taken    Lamda =  -0.00000827
 Step Taken.  Stepsize is  0.007026

                             Maximum     Tolerance    Cnvgd?
         Gradient           0.000857      0.000300      NO
         Displacement       0.005836      0.001200      NO
         Energy change     -0.000035      0.000001      NO


 New Cartesian Coordinates Obtained by Inverse Iteration

 Displacement from previous Coordinates is:  0.010326
 ----------------------------------------------------------------
             Standard Nuclear Orientation (Angstroms)
    I     Atom           X                Y                Z
 ----------------------------------------------------------------
    1      B       0.0012306221    -0.0001399987     0.0001392616
    2      F       0.7415250026     1.1759253983     0.0559327466
    3      F       0.8767974527    -1.0643066552     0.1868878595
    4      F      -0.6355903020    -0.1847981729    -1.2231275875
    5      F      -0.9838747933     0.0733141806     0.9801825268
 ----------------------------------------------------------------
 Molecular Point Group                 C1    NOp =  1
 Largest Abelian Subgroup              C1    NOp =  1
 Nuclear Repulsion Energy =   181.7249908406 hartrees
 There are       21 alpha and       20 beta electrons
 Applying Cartesian multipole field
    Component          Value
    ---------          -----
     (2,0,0)        1.00000E-11
     (0,2,0)        2.00000E-11
     (0,0,2)       -3.00000E-11
 Nucleus-field energy     =     0.0000000001 hartrees
 Requested basis set is 6-311++G(d)
 There are 30 shells and 110 basis functions
 A cutoff of  1.0D-12 yielded    441 shell pairs
 There are      6125 function pairs (      6715 Cartesian)
 Smallest overlap matrix eigenvalue = 3.00E-04
 Guess MOs from SCF MO coefficient file
 Reading MOs from coefficient file
 Reading MOs from coefficient file

 -----------------------------------------------------------------------
  General SCF calculation program by
  Eric Jon Sundstrom, Paul Horn, Yuezhi Mao, Dmitri Zuev, Alec White,
  David Stuck, Shaama M.S., Shane Yost, Joonho Lee, David Small,
  Daniel Levine, Susi Lehtola, Hugh Burton, Evgeny Epifanovsky
 -----------------------------------------------------------------------
 Exchange:     0.2220 Hartree-Fock + 1.0000 wB97X-D + LR-HF
 Correlation:  1.0000 wB97X-D
 Using SG-2 standard quadrature grid
 Dispersion:   Grimme D
 using 32 threads for integral computing
 -------------------------------------------------------
 OpenMP Integral computing Module                
 Release: version 1.0, May 2013, Q-Chem Inc. Pittsburgh 
 -------------------------------------------------------
 using 32 threads for integral computing
 -------------------------------------------------------
 OpenMP Integral computing Module                
 Release: version 1.0, May 2013, Q-Chem Inc. Pittsburgh 
 -------------------------------------------------------
 -------------------------------------------------------
 OpenMP BLAS3 based DFT computing Module                
 Release: version 1.0, May 2013, Q-Chem Inc. Pittsburgh 
 -------------------------------------------------------
 A unrestricted SCF calculation will be
 performed using Roothaan-Hall, GDM
 SCF converges when RMS gradient is below 1.0e-08
 ---------------------------------------
  Cycle       Energy         DIIS error
 ---------------------------------------
    1    -424.2632522818      2.79e-05  Roothaan Step
 ---------------------------------------
  Cycle       Energy        RMS Gradient
 ---------------------------------------
    1    -424.2632584286      1.75e-04   Normal BFGS step
    2    -424.2632587167      4.18e-04   Normal BFGS step
    3    -424.2632588085      7.64e-05   Normal BFGS step
    4    -424.2632588861      9.88e-05   Normal BFGS step
    5    -424.2632589317      1.23e-04   Normal BFGS step
    6    -424.2632589741      7.53e-05   Normal BFGS step
    7    -424.2632589872      6.94e-05   Normal BFGS step
    8    -424.2632589996      8.27e-05   Normal BFGS step
    9    -424.2632590152      7.76e-05   Normal BFGS step
   10    -424.2632590303      5.34e-05   Normal BFGS step
   11    -424.2632590340      3.51e-05   Normal BFGS step
   12    -424.2632590362      9.24e-06   Normal BFGS step
   13    -424.2632590365      3.42e-06   Normal BFGS step
   14    -424.2632590365      2.24e-06   Normal BFGS step
   15    -424.2632590365      1.21e-06   Normal BFGS step
   16    -424.2632590365      1.99e-07   Normal BFGS step
   17    -424.2632590365      1.72e-07   Normal BFGS step
   18    -424.2632590365      1.22e-07   Normal BFGS step
   19    -424.2632590365      5.93e-08   Normal BFGS step
   20    -424.2632590365      5.61e-08   Normal BFGS step
   21    -424.2632590365      4.15e-08   Normal BFGS step
   22    -424.2632590365      2.88e-08   Normal BFGS step
   23    -424.2632590365      1.97e-08   Normal BFGS step
   24    -424.2632590365      1.86e-08   Normal BFGS step
   25    -424.2632590365      2.12e-08   Normal BFGS step
   26    -424.2632590365      1.61e-08   Normal BFGS step
   27    -424.2632590365      8.56e-09  Convergence criterion met
 ---------------------------------------
 SCF time:   CPU 420.12s  wall 14.00s 
 SCF   energy in the final basis set =     -424.2632590365
<S^2> =          0.755316180
 
 --------------------------------------------------------------
 
                    Orbital Energies (a.u.)
 --------------------------------------------------------------
 
 Alpha MOs
 -- Occupied --
-24.887 -24.887 -24.885 -24.885  -7.049  -1.422  -1.366  -1.366
 -1.359  -0.752  -0.702  -0.702  -0.690  -0.633  -0.603  -0.594
 -0.594  -0.580  -0.573  -0.556  -0.556
 -- Virtual --
  0.062   0.082   0.082   0.082   0.261   0.268   0.272   0.272
  0.299   0.304   0.304   0.304   0.306   0.340   0.374   0.375
  0.375   0.393   0.393   0.393   0.450   0.478   0.478   0.482
  0.565   0.565   0.570   0.791   0.993   1.000   1.231   1.231
  1.259   1.322   1.343   1.377   1.377   1.402   1.426   1.434
  1.434   1.437   1.459   1.459   1.467   1.934   1.934   1.949
  2.005   2.256   2.313   2.313   3.752   3.766   3.766   3.782
  3.782   3.782   3.783   3.785   3.832   3.832   3.838   4.089
  4.090   4.112   4.224   4.308   4.339   4.615   4.662   4.662
  6.246   6.274   6.285   6.285   6.296   6.352   6.387   6.401
  6.401   6.561   6.593   6.593  14.631  66.848  66.848  66.852
 66.859
 
 Beta MOs
 -- Occupied --
-24.879 -24.879 -24.877 -24.877  -7.050  -1.402  -1.343  -1.343
 -1.336  -0.743  -0.682  -0.682  -0.681  -0.594  -0.571  -0.565
 -0.563  -0.563  -0.519  -0.519
 -- Virtual --
 -0.308   0.060   0.080   0.080   0.080   0.261   0.270   0.273
  0.273   0.300   0.306   0.309   0.312   0.312   0.339   0.374
  0.376   0.376   0.393   0.393   0.394   0.453   0.478   0.479
  0.483   0.565   0.565   0.570   0.790   1.000   1.003   1.237
  1.237   1.262   1.335   1.345   1.382   1.382   1.404   1.430
  1.439   1.439   1.456   1.467   1.467   1.469   1.944   1.944
  1.959   2.013   2.257   2.313   2.313   3.778   3.778   3.779
  3.809   3.809   3.809   3.810   3.810   3.857   3.859   3.859
  4.108   4.108   4.119   4.237   4.313   4.363   4.631   4.672
  4.672   6.281   6.282   6.304   6.310   6.310   6.360   6.416
  6.416   6.421   6.569   6.602   6.602  14.630  66.854  66.854
 66.858  66.864
 --------------------------------------------------------------
 
          Ground-State Mulliken Net Atomic Charges

     Atom                 Charge (a.u.)    Spin (a.u.)
  --------------------------------------------------------
      1 B                     0.807096      -0.086667
      2 F                    -0.202500       0.269108
      3 F                    -0.202942       0.267771
      4 F                    -0.200957       0.274498
      5 F                    -0.200697       0.275290
  --------------------------------------------------------
  Sum of atomic charges =    -0.000000
  Sum of spin   charges =     1.000000

 -----------------------------------------------------------------
                    Cartesian Multipole Moments
 -----------------------------------------------------------------
    Charge (ESU x 10^10)
                 0.0000
    Dipole Moment (Debye)
         X      -0.0226      Y       0.0018      Z      -0.0015
       Tot       0.0227
    Quadrupole Moments (Debye-Ang)
        XX     -25.6087     XY       0.0072     YY     -25.6293
        XZ      -0.0091     YZ      -0.0074     ZZ     -25.5652
    Octopole Moments (Debye-Ang^2)
       XXX       0.0620    XXY       0.1609    XYY      -1.8114
       YYY      -0.3681    XXZ      -0.5675    XYZ       0.3040
       YYZ      -0.2286    XZZ       1.6595    YZZ       0.2160
       ZZZ       0.7880
    Hexadecapole Moments (Debye-Ang^3)
      XXXX     -95.8377   XXXY       0.6134   XXYY     -32.1834
      XYYY       0.0466   YYYY     -92.8052   XXXZ       0.1599
      XXYZ      -1.1261   XYYZ      -0.3029   YYYZ      -2.0193
      XXZZ     -31.6700   XYZZ      -0.1221   YYZZ     -30.4219
      XZZZ      -0.4785   YZZZ      -2.1741   ZZZZ     -91.1506
 -----------------------------------------------------------------
 Calculating analytic gradient of the SCF energy
 Gradient of SCF Energy
            1           2           3           4           5
    1  -0.0007112   0.0001947   0.0001678   0.0001560   0.0001926
    2   0.0000447   0.0000305  -0.0000885  -0.0000118   0.0000251
    3  -0.0000184  -0.0000134   0.0000337   0.0000499  -0.0000517
 Max gradient component =       7.112E-04
 RMS gradient           =       2.084E-04
 Gradient time:  CPU 28.74 s  wall 1.17 s
 Geometry Optimization Parameters
   NAtoms,    NIC,     NZ,  NCons,   NDum,   NFix, NCnnct, MaxDiis
        5      20       0       0       0       0       0       0

 Cartesian Hessian Update
 Hessian Updated using BFGS Update


** GEOMETRY OPTIMIZATION IN DELOCALIZED INTERNAL COORDINATES **
   Searching for a Minimum

   Optimization Cycle:   5

                       Coordinates (Angstroms)
     ATOM                X               Y               Z
      1  B         0.0012306221   -0.0001399987    0.0001392616
      2  F         0.7415250026    1.1759253983    0.0559327466
      3  F         0.8767974527   -1.0643066552    0.1868878595
      4  F        -0.6355903020   -0.1847981729   -1.2231275875
      5  F        -0.9838747933    0.0733141806    0.9801825268
   Point Group: c1    Number of degrees of freedom:     9


   Energy is   -424.263259036

 Hessian Updated using BFGS Update

  9 Hessian modes will be used to form the next step
  Hessian Eigenvalues:
     0.117894    0.249996    0.250000    0.250001    0.259333    0.362805
     0.377337    0.377554    0.479291

 Minimum Search - Taking Simple RFO Step
 Searching for Lamda that Minimizes Along All modes
 Value Taken    Lamda =  -0.00000111
 Step Taken.  Stepsize is  0.002473

                             Maximum     Tolerance    Cnvgd?
         Gradient           0.000389      0.000300      NO
         Displacement       0.001525      0.001200      NO
         Energy change     -0.000005      0.000001      NO


 New Cartesian Coordinates Obtained by Inverse Iteration

 Displacement from previous Coordinates is:  0.002671
 ----------------------------------------------------------------
             Standard Nuclear Orientation (Angstroms)
    I     Atom           X                Y                Z
 ----------------------------------------------------------------
    1      B       0.0019880485    -0.0001882175     0.0001592146
    2      F       0.7414187936     1.1762526556     0.0563254838
    3      F       0.8769373042    -1.0646412328     0.1866179158
    4      F      -0.6360813289    -0.1850844649    -1.2227492000
    5      F      -0.9841748353     0.0736560118     0.9796613929
 ----------------------------------------------------------------
 Molecular Point Group                 C1    NOp =  1
 Largest Abelian Subgroup              C1    NOp =  1
 Nuclear Repulsion Energy =   181.7147139550 hartrees
 There are       21 alpha and       20 beta electrons
 Applying Cartesian multipole field
    Component          Value
    ---------          -----
     (2,0,0)        1.00000E-11
     (0,2,0)        2.00000E-11
     (0,0,2)       -3.00000E-11
 Nucleus-field energy     =     0.0000000001 hartrees
 Requested basis set is 6-311++G(d)
 There are 30 shells and 110 basis functions
 A cutoff of  1.0D-12 yielded    441 shell pairs
 There are      6125 function pairs (      6715 Cartesian)
 Smallest overlap matrix eigenvalue = 3.00E-04
 Guess MOs from SCF MO coefficient file
 Reading MOs from coefficient file
 Reading MOs from coefficient file

 -----------------------------------------------------------------------
  General SCF calculation program by
  Eric Jon Sundstrom, Paul Horn, Yuezhi Mao, Dmitri Zuev, Alec White,
  David Stuck, Shaama M.S., Shane Yost, Joonho Lee, David Small,
  Daniel Levine, Susi Lehtola, Hugh Burton, Evgeny Epifanovsky
 -----------------------------------------------------------------------
 Exchange:     0.2220 Hartree-Fock + 1.0000 wB97X-D + LR-HF
 Correlation:  1.0000 wB97X-D
 Using SG-2 standard quadrature grid
 Dispersion:   Grimme D
 using 32 threads for integral computing
 -------------------------------------------------------
 OpenMP Integral computing Module                
 Release: version 1.0, May 2013, Q-Chem Inc. Pittsburgh 
 -------------------------------------------------------
 using 32 threads for integral computing
 -------------------------------------------------------
 OpenMP Integral computing Module                
 Release: version 1.0, May 2013, Q-Chem Inc. Pittsburgh 
 -------------------------------------------------------
 -------------------------------------------------------
 OpenMP BLAS3 based DFT computing Module                
 Release: version 1.0, May 2013, Q-Chem Inc. Pittsburgh 
 -------------------------------------------------------
 A unrestricted SCF calculation will be
 performed using Roothaan-Hall, GDM
 SCF converges when RMS gradient is below 1.0e-08
 ---------------------------------------
  Cycle       Energy         DIIS error
 ---------------------------------------
    1    -424.2632585603      1.15e-05  Roothaan Step
 ---------------------------------------
  Cycle       Energy        RMS Gradient
 ---------------------------------------
    1    -424.2632596777      1.08e-04   Normal BFGS step
    2    -424.2632597693      6.06e-04   Normal BFGS step
    3    -424.2632600134      2.62e-04   Normal BFGS step
    4    -424.2632601572      7.17e-05   Normal BFGS step
    5    -424.2632602364      1.32e-04   Normal BFGS step
    6    -424.2632602684      1.17e-04   Normal BFGS step
    7    -424.2632602963      9.85e-05   Normal BFGS step
    8    -424.2632603297      7.50e-05   Normal BFGS step
    9    -424.2632603619      7.72e-05   Normal BFGS step
   10    -424.2632603800      3.98e-05   Normal BFGS step
   11    -424.2632603831      9.10e-06   Normal BFGS step
   12    -424.2632603837      3.35e-06   Normal BFGS step
   13    -424.2632603839      3.22e-06   Normal BFGS step
   14    -424.2632603839      3.44e-06   Normal BFGS step
   15    -424.2632603839      1.06e-06   Normal BFGS step
   16    -424.2632603839      6.39e-07   Normal BFGS step
   17    -424.2632603839      5.45e-07   Normal BFGS step
   18    -424.2632603839      2.32e-07   Normal BFGS step
   19    -424.2632603839      1.04e-07   Normal BFGS step
   20    -424.2632603839      4.56e-08   Normal BFGS step
   21    -424.2632603839      4.20e-08   Normal BFGS step
   22    -424.2632603839      3.60e-08   Normal BFGS step
   23    -424.2632603839      2.70e-08   Normal BFGS step
   24    -424.2632603839      3.89e-08   Normal BFGS step
   25    -424.2632603839      3.49e-08   Normal BFGS step
   26    -424.2632603839      1.15e-08   Normal BFGS step
   27    -424.2632603839      1.80e-08   Normal BFGS step
   28    -424.2632603839      1.79e-08   Normal BFGS step
   29    -424.2632603839      2.28e-09  Convergence criterion met
 ---------------------------------------
 SCF time:   CPU 457.41s  wall 15.00s 
 SCF   energy in the final basis set =     -424.2632603839
<S^2> =          0.755316147
 
 --------------------------------------------------------------
 
                    Orbital Energies (a.u.)
 --------------------------------------------------------------
 
 Alpha MOs
 -- Occupied --
-24.888 -24.887 -24.885 -24.884  -7.049  -1.422  -1.366  -1.366
 -1.359  -0.752  -0.702  -0.702  -0.690  -0.633  -0.603  -0.594
 -0.594  -0.580  -0.573  -0.556  -0.556
 -- Virtual --
  0.062   0.082   0.082   0.082   0.261   0.268   0.272   0.272
  0.299   0.304   0.304   0.304   0.305   0.340   0.374   0.375
  0.375   0.392   0.393   0.393   0.450   0.478   0.478   0.482
  0.565   0.565   0.570   0.791   0.993   1.000   1.231   1.231
  1.259   1.322   1.343   1.377   1.377   1.402   1.427   1.433
  1.434   1.437   1.459   1.459   1.467   1.934   1.934   1.949
  2.005   2.256   2.313   2.313   3.752   3.766   3.766   3.781
  3.782   3.782   3.783   3.785   3.832   3.832   3.838   4.089
  4.089   4.112   4.223   4.307   4.339   4.615   4.662   4.662
  6.246   6.274   6.285   6.285   6.296   6.352   6.387   6.401
  6.401   6.561   6.593   6.593  14.631  66.848  66.848  66.852
 66.859
 
 Beta MOs
 -- Occupied --
-24.879 -24.879 -24.877 -24.876  -7.050  -1.402  -1.343  -1.343
 -1.336  -0.743  -0.682  -0.682  -0.681  -0.594  -0.571  -0.565
 -0.563  -0.563  -0.519  -0.519
 -- Virtual --
 -0.308   0.060   0.080   0.080   0.080   0.261   0.270   0.273
  0.273   0.300   0.306   0.309   0.312   0.312   0.339   0.374
  0.376   0.376   0.393   0.393   0.394   0.453   0.478   0.479
  0.483   0.565   0.565   0.570   0.790   1.000   1.003   1.237
  1.237   1.262   1.335   1.345   1.382   1.382   1.404   1.430
  1.438   1.439   1.456   1.467   1.467   1.469   1.944   1.944
  1.959   2.013   2.257   2.313   2.313   3.778   3.778   3.779
  3.808   3.809   3.809   3.810   3.810   3.857   3.859   3.859
  4.108   4.108   4.119   4.237   4.313   4.363   4.631   4.672
  4.672   6.281   6.282   6.304   6.310   6.310   6.360   6.416
  6.416   6.421   6.569   6.602   6.602  14.629  66.854  66.854
 66.858  66.864
 --------------------------------------------------------------
 
          Ground-State Mulliken Net Atomic Charges

     Atom                 Charge (a.u.)    Spin (a.u.)
  --------------------------------------------------------
      1 B                     0.806690      -0.086646
      2 F                    -0.202852       0.267463
      3 F                    -0.203495       0.265411
      4 F                    -0.200401       0.276123
      5 F                    -0.199942       0.277650
  --------------------------------------------------------
  Sum of atomic charges =     0.000000
  Sum of spin   charges =     1.000000

 -----------------------------------------------------------------
                    Cartesian Multipole Moments
 -----------------------------------------------------------------
    Charge (ESU x 10^10)
                -0.0000
    Dipole Moment (Debye)
         X      -0.0362      Y       0.0028      Z      -0.0019
       Tot       0.0364
    Quadrupole Moments (Debye-Ang)
        XX     -25.6094     XY       0.0104     YY     -25.6481
        XZ      -0.0148     YZ      -0.0054     ZZ     -25.5475
    Octopole Moments (Debye-Ang^2)
       XXX       0.0327    XXY       0.1626    XYY      -1.8231
       YYY      -0.3664    XXZ      -0.5668    XYZ       0.3030
       YYZ      -0.2295    XZZ       1.6485    YZZ       0.2163
       ZZZ       0.7865
    Hexadecapole Moments (Debye-Ang^3)
      XXXX     -95.8747   XXXY       0.6244   XXYY     -32.2080
      XYYY       0.0573   YYYY     -92.9087   XXXZ       0.1418
      XXYZ      -1.1305   XYYZ      -0.3087   YYYZ      -2.0356
      XXZZ     -31.6578   XYZZ      -0.1191   YYZZ     -30.4199
      XZZZ      -0.4959   YZZZ      -2.1863   ZZZZ     -91.0427
 -----------------------------------------------------------------
 Calculating analytic gradient of the SCF energy
 Gradient of SCF Energy
            1           2           3           4           5
    1  -0.0011240   0.0003361   0.0003401   0.0002060   0.0002419
    2   0.0000761   0.0000971  -0.0001693  -0.0000636   0.0000597
    3  -0.0000353   0.0000383   0.0000119   0.0000387  -0.0000535
 Max gradient component =       1.124E-03
 RMS gradient           =       3.318E-04
 Gradient time:  CPU 28.92 s  wall 1.18 s
 Geometry Optimization Parameters
   NAtoms,    NIC,     NZ,  NCons,   NDum,   NFix, NCnnct, MaxDiis
        5      20       0       0       0       0       0       0

 Cartesian Hessian Update
 Hessian Updated using BFGS Update
**WARNING** Hereditary positive definiteness endangered


** GEOMETRY OPTIMIZATION IN DELOCALIZED INTERNAL COORDINATES **
   Searching for a Minimum

   Optimization Cycle:   6

                       Coordinates (Angstroms)
     ATOM                X               Y               Z
      1  B         0.0019880485   -0.0001882175    0.0001592146
      2  F         0.7414187936    1.1762526556    0.0563254838
      3  F         0.8769373042   -1.0646412328    0.1866179158
      4  F        -0.6360813289   -0.1850844649   -1.2227492000
      5  F        -0.9841748353    0.0736560118    0.9796613929
   Point Group: c1    Number of degrees of freedom:     9


   Energy is   -424.263260384

 Hessian Updated using BFGS Update
**WARNING** Hereditary positive definiteness endangered

  9 Hessian modes will be used to form the next step
  Hessian Eigenvalues:
    -0.144526    0.110365    0.249945    0.250000    0.250002    0.341200
     0.377309    0.377532    0.408236
**WARNING** Hessian does not have the Desired Local Structure

 Minimum Search - Taking Simple RFO Step
 Searching for Lamda that Minimizes Along All modes
 Value Taken    Lamda =  -0.14453025
 Calculated Step too Large.  Step scaled by  0.001689
 Step Taken.  Stepsize is  0.300000

                             Maximum     Tolerance    Cnvgd?
         Gradient           0.000614      0.000300      NO
         Displacement       0.211040      0.001200      NO
         Energy change     -0.000001      0.000001      NO


 New Cartesian Coordinates Obtained by Inverse Iteration

 Displacement from previous Coordinates is:  0.277892
 ----------------------------------------------------------------
             Standard Nuclear Orientation (Angstroms)
    I     Atom           X                Y                Z
 ----------------------------------------------------------------
    1      B       0.1027963080    -0.0061642908     0.0018084295
    2      F       0.7080092335     1.2079624188     0.0495482299
    3      F       0.8568341351    -1.1006648744     0.2008192368
    4      F      -0.6743858601    -0.1664806773    -1.1755726009
    5      F      -0.9931658345     0.0653421757     0.9234115118
 ----------------------------------------------------------------
 Molecular Point Group                 C1    NOp =  1
 Largest Abelian Subgroup              C1    NOp =  1
 Nuclear Repulsion Energy =   182.6269942530 hartrees
 There are       21 alpha and       20 beta electrons
 Applying Cartesian multipole field
    Component          Value
    ---------          -----
     (2,0,0)        1.00000E-11
     (0,2,0)        2.00000E-11
     (0,0,2)       -3.00000E-11
 Nucleus-field energy     =     0.0000000004 hartrees
 Requested basis set is 6-311++G(d)
 There are 30 shells and 110 basis functions
 A cutoff of  1.0D-12 yielded    442 shell pairs
 There are      6141 function pairs (      6731 Cartesian)
 Smallest overlap matrix eigenvalue = 2.95E-04
 Guess MOs from SCF MO coefficient file
 Reading MOs from coefficient file
 Reading MOs from coefficient file

 -----------------------------------------------------------------------
  General SCF calculation program by
  Eric Jon Sundstrom, Paul Horn, Yuezhi Mao, Dmitri Zuev, Alec White,
  David Stuck, Shaama M.S., Shane Yost, Joonho Lee, David Small,
  Daniel Levine, Susi Lehtola, Hugh Burton, Evgeny Epifanovsky
 -----------------------------------------------------------------------
 Exchange:     0.2220 Hartree-Fock + 1.0000 wB97X-D + LR-HF
 Correlation:  1.0000 wB97X-D
 Using SG-2 standard quadrature grid
 Dispersion:   Grimme D
 using 32 threads for integral computing
 -------------------------------------------------------
 OpenMP Integral computing Module                
 Release: version 1.0, May 2013, Q-Chem Inc. Pittsburgh 
 -------------------------------------------------------
 using 32 threads for integral computing
 -------------------------------------------------------
 OpenMP Integral computing Module                
 Release: version 1.0, May 2013, Q-Chem Inc. Pittsburgh 
 -------------------------------------------------------
 -------------------------------------------------------
 OpenMP BLAS3 based DFT computing Module                
 Release: version 1.0, May 2013, Q-Chem Inc. Pittsburgh 
 -------------------------------------------------------
 A unrestricted SCF calculation will be
 performed using Roothaan-Hall, GDM
 SCF converges when RMS gradient is below 1.0e-08
 ---------------------------------------
  Cycle       Energy         DIIS error
 ---------------------------------------
    1    -424.2391270908      1.45e-03  Roothaan Step
 ---------------------------------------
  Cycle       Energy        RMS Gradient
 ---------------------------------------
    1    -424.2566371102      1.56e-02   Normal BFGS step
    2    -424.2582039763      7.90e-02   Normal BFGS step
    3    -424.2624936279      2.70e-02   Normal BFGS step
    4    -424.2652077907      1.20e-02   Normal BFGS step
    5    -424.2666178599      2.20e-02   Normal BFGS step
    6    -424.2670981609      1.52e-02   Normal BFGS step
    7    -424.2675451199      1.11e-02   Normal BFGS step
    8    -424.2679437137      6.51e-03   Normal BFGS step
    9    -424.2683734530      6.36e-03   Normal BFGS step
   10    -424.2684639092      4.30e-03   Normal BFGS step
   11    -424.2685058628      2.97e-03   Normal BFGS step
   12    -424.2685300934      1.74e-03   Normal BFGS step
   13    -424.2685473245      1.27e-03   Normal BFGS step
   14    -424.2685547411      8.53e-04   Normal BFGS step
   15    -424.2685594964      5.67e-04   Normal BFGS step
   16    -424.2685611737      2.24e-04   Normal BFGS step
   17    -424.2685615916      1.67e-04   Normal BFGS step
   18    -424.2685616986      1.26e-04   Normal BFGS step
   19    -424.2685617684      1.03e-04   Normal BFGS step
   20    -424.2685618243      9.72e-05   Normal BFGS step
   21    -424.2685618803      8.40e-05   Normal BFGS step
   22    -424.2685619361      9.34e-05   Normal BFGS step
   23    -424.2685619717      5.55e-05   Normal BFGS step
   24    -424.2685619836      1.81e-05   Normal BFGS step
   25    -424.2685619861      1.38e-05   Normal BFGS step
   26    -424.2685619867      4.82e-06   Normal BFGS step
   27    -424.2685619870      2.94e-06   Normal BFGS step
   28    -424.2685619871      6.15e-06   Normal BFGS step
   29    -424.2685619871      2.40e-06   Normal BFGS step
   30    -424.2685619871      1.18e-06   Normal BFGS step
   31    -424.2685619871      8.09e-07   Normal BFGS step
   32    -424.2685619871      4.99e-07   Normal BFGS step
   33    -424.2685619871      2.01e-07   Normal BFGS step
   34    -424.2685619871      1.27e-07   Normal BFGS step
   35    -424.2685619871      7.40e-08   Normal BFGS step
   36    -424.2685619871      2.62e-08   Normal BFGS step
   37    -424.2685619871      3.77e-09  Convergence criterion met
 ---------------------------------------
 SCF time:   CPU 589.18s  wall 20.00s 
 SCF   energy in the final basis set =     -424.2685619871
<S^2> =          0.755924872
 
 --------------------------------------------------------------
 
                    Orbital Energies (a.u.)
 --------------------------------------------------------------
 
 Alpha MOs
 -- Occupied --
-24.947 -24.935 -24.833 -24.826  -7.044  -1.450  -1.399  -1.343
 -1.327  -0.774  -0.714  -0.709  -0.689  -0.645  -0.632  -0.624
 -0.593  -0.556  -0.552  -0.535  -0.520
 -- Virtual --
  0.061   0.079   0.083   0.084   0.242   0.262   0.274   0.278
  0.292   0.295   0.305   0.311   0.319   0.341   0.352   0.379
  0.389   0.394   0.399   0.421   0.452   0.463   0.488   0.503
  0.562   0.570   0.594   0.794   0.984   1.006   1.224   1.225
  1.278   1.303   1.336   1.368   1.395   1.411   1.421   1.423
  1.444   1.451   1.460   1.469   1.488   1.908   1.951   1.967
  2.028   2.188   2.323   2.364   3.723   3.725   3.744   3.758
  3.758   3.765   3.794   3.835   3.847   3.856   3.872   4.047
  4.074   4.169   4.255   4.315   4.345   4.582   4.670   4.694
  6.223   6.261   6.278   6.293   6.332   6.353   6.361   6.412
[...]
  4.768   6.285   6.297   6.319   6.328   6.338   6.358   6.411
  6.433   6.438   6.445   6.652   6.854  14.616  66.793  66.854
 66.900  66.910
 --------------------------------------------------------------
 
          Ground-State Mulliken Net Atomic Charges

     Atom                 Charge (a.u.)    Spin (a.u.)
  --------------------------------------------------------
      1 B                     0.527157      -0.043227
      2 F                    -0.119406      -0.001091
      3 F                    -0.121803      -0.001092
      4 F                    -0.143465       0.519541
      5 F                    -0.142482       0.525870
  --------------------------------------------------------
  Sum of atomic charges =    -0.000000
  Sum of spin   charges =     1.000000

 -----------------------------------------------------------------
                    Cartesian Multipole Moments
 -----------------------------------------------------------------
    Charge (ESU x 10^10)
                 0.0000
    Dipole Moment (Debye)
         X      -0.7420      Y      -0.0461      Z      -0.1122
       Tot       0.7518
    Quadrupole Moments (Debye-Ang)
        XX     -26.1958     XY       0.0261     YY     -27.3445
        XZ      -0.4611     YZ       0.3180     ZZ     -23.3984
    Octopole Moments (Debye-Ang^2)
       XXX      -1.3235    XXY       0.2087    XYY      -2.7969
       YYY      -0.5630    XXZ      -0.3672    XYZ       0.2811
       YYZ      -0.3858    XZZ       0.3784    YZZ       0.1137
       ZZZ       0.2044
    Hexadecapole Moments (Debye-Ang^3)
      XXXX    -115.0101   XXXY      -0.5292   XXYY     -36.9578
      XYYY      -1.0071   YYYY     -99.2700   XXXZ      -3.5055
      XXYZ       0.4844   XYYZ      -1.3847   YYYZ       1.0644
      XXZZ     -30.8297   XYZZ      -0.2650   YYZZ     -27.9745
      XZZZ      -4.0389   YZZZ       1.2292   ZZZZ     -66.9068
 -----------------------------------------------------------------
 Calculating analytic gradient of the SCF energy
 Gradient of SCF Energy
            1           2           3           4           5
    1  -0.0002350   0.0000117  -0.0001237   0.0000455   0.0003016
    2   0.0000895   0.0001040  -0.0001148  -0.0001066   0.0000280
    3  -0.0003450   0.0001891   0.0001076   0.0002732  -0.0002249
 Max gradient component =       3.450E-04
 RMS gradient           =       1.825E-04
 Gradient time:  CPU 29.03 s  wall 1.19 s
 Geometry Optimization Parameters
   NAtoms,    NIC,     NZ,  NCons,   NDum,   NFix, NCnnct, MaxDiis
        5      20       0       0       0       0       0       0

 Cartesian Hessian Update
 Hessian Updated using BFGS Update


** GEOMETRY OPTIMIZATION IN DELOCALIZED INTERNAL COORDINATES **
   Searching for a Minimum

   Optimization Cycle:  17

                       Coordinates (Angstroms)
     ATOM                X               Y               Z
      1  B         0.1984367515    0.0136388087    0.0275316267
      2  F         0.7836990894    1.2018099722    0.0285389536
      3  F         0.9082156923   -1.0873563561    0.2258183572
      4  F        -0.7978594706   -0.1387425709   -1.0887232503
      5  F        -1.0924040806    0.0106448983    0.8068491199
   Point Group: c1    Number of degrees of freedom:     9


   Energy is   -424.280433656

 Hessian Updated using BFGS Update

  9 Hessian modes will be used to form the next step
  Hessian Eigenvalues:
     0.013892    0.145348    0.170013    0.181679    0.253081    0.370305
     0.418762    0.473910    0.640039

 Minimum Search - Taking Simple RFO Step
 Searching for Lamda that Minimizes Along All modes
 Value Taken    Lamda =  -0.00000223
 Step Taken.  Stepsize is  0.008207

                             Maximum     Tolerance    Cnvgd?
         Gradient           0.000702      0.000300      NO
         Displacement       0.008087      0.001200      NO
         Energy change     -0.000003      0.000001      NO


 New Cartesian Coordinates Obtained by Inverse Iteration

 Displacement from previous Coordinates is:  0.005922
 ----------------------------------------------------------------
             Standard Nuclear Orientation (Angstroms)
    I     Atom           X                Y                Z
 ----------------------------------------------------------------
    1      B       0.1981399060     0.0136761356     0.0300117960
    2      F       0.7838404572     1.2015141336     0.0277958698
    3      F       0.9085904211    -1.0872275045     0.2257519057
    4      F      -0.7986028360    -0.1383481996    -1.0899514951
    5      F      -1.0918799663     0.0103801870     0.8064067306
 ----------------------------------------------------------------
 Molecular Point Group                 C1    NOp =  1
 Largest Abelian Subgroup              C1    NOp =  1
 Nuclear Repulsion Energy =   181.2819281046 hartrees
 There are       21 alpha and       20 beta electrons
 Applying Cartesian multipole field
    Component          Value
    ---------          -----
     (2,0,0)        1.00000E-11
     (0,2,0)        2.00000E-11
     (0,0,2)       -3.00000E-11
 Nucleus-field energy     =     0.0000000009 hartrees
 Requested basis set is 6-311++G(d)
 There are 30 shells and 110 basis functions
 A cutoff of  1.0D-12 yielded    444 shell pairs
 There are      6149 function pairs (      6739 Cartesian)
 Smallest overlap matrix eigenvalue = 3.97E-04
 Guess MOs from SCF MO coefficient file
 Reading MOs from coefficient file
 Reading MOs from coefficient file

 -----------------------------------------------------------------------
  General SCF calculation program by
  Eric Jon Sundstrom, Paul Horn, Yuezhi Mao, Dmitri Zuev, Alec White,
  David Stuck, Shaama M.S., Shane Yost, Joonho Lee, David Small,
  Daniel Levine, Susi Lehtola, Hugh Burton, Evgeny Epifanovsky
 -----------------------------------------------------------------------
 Exchange:     0.2220 Hartree-Fock + 1.0000 wB97X-D + LR-HF
 Correlation:  1.0000 wB97X-D
 Using SG-2 standard quadrature grid
 Dispersion:   Grimme D
 using 32 threads for integral computing
 -------------------------------------------------------
 OpenMP Integral computing Module                
 Release: version 1.0, May 2013, Q-Chem Inc. Pittsburgh 
 -------------------------------------------------------
 using 32 threads for integral computing
 -------------------------------------------------------
 OpenMP Integral computing Module                
 Release: version 1.0, May 2013, Q-Chem Inc. Pittsburgh 
 -------------------------------------------------------
 -------------------------------------------------------
 OpenMP BLAS3 based DFT computing Module                
 Release: version 1.0, May 2013, Q-Chem Inc. Pittsburgh 
 -------------------------------------------------------
 A unrestricted SCF calculation will be
 performed using Roothaan-Hall, GDM
 SCF converges when RMS gradient is below 1.0e-08
 ---------------------------------------
  Cycle       Energy         DIIS error
 ---------------------------------------
    1    -424.2804220564      3.67e-05  Roothaan Step
 ---------------------------------------
  Cycle       Energy        RMS Gradient
 ---------------------------------------
    1    -424.2804323386      5.69e-04   Normal BFGS step
    2    -424.2804316767      2.61e-03  Line search: overstep
    3    -424.2804338316      8.77e-04   Normal BFGS step
    4    -424.2804347342      4.15e-04   Normal BFGS step
    5    -424.2804349977      6.77e-05   Normal BFGS step
    6    -424.2804350183      2.89e-05   Normal BFGS step
    7    -424.2804350221      1.60e-05   Normal BFGS step
    8    -424.2804350238      8.91e-06   Normal BFGS step
    9    -424.2804350242      5.64e-06   Normal BFGS step
   10    -424.2804350243      1.63e-06   Normal BFGS step
   11    -424.2804350243      1.15e-06   Normal BFGS step
   12    -424.2804350243      6.61e-07   Normal BFGS step
   13    -424.2804350243      3.45e-07   Normal BFGS step
   14    -424.2804350243      4.02e-07   Normal BFGS step
   15    -424.2804350243      2.54e-07   Normal BFGS step
   16    -424.2804350243      8.26e-08   Normal BFGS step
   17    -424.2804350243      5.97e-08   Normal BFGS step
   18    -424.2804350243      5.02e-08   Normal BFGS step
   19    -424.2804350243      3.46e-08   Normal BFGS step
   20    -424.2804350243      9.54e-09  Convergence criterion met
 ---------------------------------------
 SCF time:   CPU 323.09s  wall 10.00s 
 SCF   energy in the final basis set =     -424.2804350243
<S^2> =          0.755706629
 
 --------------------------------------------------------------
 
                    Orbital Energies (a.u.)
 --------------------------------------------------------------
 
 Alpha MOs
 -- Occupied --
-24.931 -24.931 -24.836 -24.836  -7.053  -1.443  -1.367  -1.356
 -1.338  -0.772  -0.708  -0.683  -0.682  -0.657  -0.605  -0.602
 -0.598  -0.563  -0.558  -0.540  -0.527
 -- Virtual --
  0.059   0.077   0.083   0.084   0.195   0.243   0.265   0.266
  0.287   0.296   0.305   0.314   0.320   0.347   0.349   0.371
  0.390   0.392   0.396   0.421   0.436   0.452   0.518   0.526
  0.563   0.564   0.637   0.762   0.995   1.036   1.220   1.241
  1.299   1.303   1.354   1.362   1.377   1.416   1.418   1.426
  1.430   1.443   1.444   1.466   1.500   1.842   1.966   2.027
  2.032   2.076   2.359   2.367   3.740   3.741   3.750   3.766
  3.779   3.795   3.816   3.818   3.829   3.853   3.869   3.957
  4.045   4.182   4.262   4.276   4.314   4.413   4.629   4.752
  6.267   6.275   6.300   6.305   6.306   6.333   6.404   6.405
  6.431   6.438   6.651   6.835  14.617  66.780  66.841  66.900
 66.910
 
 Beta MOs
 -- Occupied --
-24.915 -24.915 -24.836 -24.836  -7.053  -1.405  -1.350  -1.338
 -1.317  -0.741  -0.677  -0.674  -0.669  -0.594  -0.586  -0.583
 -0.560  -0.552  -0.536  -0.526
 -- Virtual --
 -0.243   0.059   0.079   0.082   0.084   0.198   0.244   0.265
  0.270   0.289   0.300   0.306   0.316   0.323   0.348   0.352
  0.377   0.392   0.392   0.396   0.422   0.435   0.454   0.520
  0.525   0.563   0.564   0.636   0.763   0.995   1.046   1.234
  1.244   1.303   1.318   1.361   1.364   1.383   1.419   1.432
  1.432   1.434   1.443   1.461   1.466   1.500   1.857   1.966
  2.033   2.035   2.091   2.359   2.370   3.774   3.787   3.788
  3.795   3.806   3.815   3.830   3.843   3.848   3.856   3.905
  3.980   4.048   4.193   4.264   4.296   4.319   4.435   4.630
  4.767   6.285   6.297   6.319   6.328   6.338   6.358   6.411
  6.433   6.438   6.445   6.652   6.853  14.616  66.793  66.854
 66.900  66.910
 --------------------------------------------------------------
 
          Ground-State Mulliken Net Atomic Charges

     Atom                 Charge (a.u.)    Spin (a.u.)
  --------------------------------------------------------
      1 B                     0.526973      -0.043227
      2 F                    -0.119630      -0.001094
      3 F                    -0.121228      -0.001093
      4 F                    -0.142789       0.523637
      5 F                    -0.143326       0.521778
  --------------------------------------------------------
  Sum of atomic charges =     0.000000
  Sum of spin   charges =     1.000000

 -----------------------------------------------------------------
                    Cartesian Multipole Moments
 -----------------------------------------------------------------
    Charge (ESU x 10^10)
                 0.0000
    Dipole Moment (Debye)
         X      -0.7400      Y      -0.0470      Z      -0.1127
       Tot       0.7500
    Quadrupole Moments (Debye-Ang)
        XX     -26.2017     XY       0.0268     YY     -27.3423
        XZ      -0.4484     YZ       0.3198     ZZ     -23.3960
    Octopole Moments (Debye-Ang^2)
       XXX      -1.3183    XXY       0.2088    XYY      -2.7945
       YYY      -0.5624    XXZ      -0.3681    XYZ       0.2820
       YYZ      -0.3838    XZZ       0.3833    YZZ       0.1120
       ZZZ       0.1853
    Hexadecapole Moments (Debye-Ang^3)
      XXXX    -115.0403   XXXY      -0.5261   XXYY     -36.9551
      XYYY      -1.0035   YYYY     -99.2311   XXXZ      -3.5382
      XXYZ       0.4902   XYYZ      -1.3984   YYYZ       1.0825
      XXZZ     -30.8525   XYZZ      -0.2618   YYZZ     -27.9793
      XZZZ      -4.0515   YZZZ       1.2484   ZZZZ     -66.9507
 -----------------------------------------------------------------
 Calculating analytic gradient of the SCF energy
 Gradient of SCF Energy
            1           2           3           4           5
    1  -0.0001052   0.0000182  -0.0000546   0.0000140   0.0001276
    2   0.0000736   0.0000113  -0.0000561  -0.0000480   0.0000192
    3  -0.0000852   0.0000579   0.0000488   0.0000787  -0.0001002
 Max gradient component =       1.276E-04
 RMS gradient           =       6.901E-05
 Gradient time:  CPU 28.86 s  wall 1.24 s
 Geometry Optimization Parameters
   NAtoms,    NIC,     NZ,  NCons,   NDum,   NFix, NCnnct, MaxDiis
        5      20       0       0       0       0       0       0

 Cartesian Hessian Update
 Hessian Updated using BFGS Update


** GEOMETRY OPTIMIZATION IN DELOCALIZED INTERNAL COORDINATES **
   Searching for a Minimum

   Optimization Cycle:  18

                       Coordinates (Angstroms)
     ATOM                X               Y               Z
      1  B         0.1981399060    0.0136761356    0.0300117960
      2  F         0.7838404572    1.2015141336    0.0277958698
      3  F         0.9085904211   -1.0872275045    0.2257519057
      4  F        -0.7986028360   -0.1383481996   -1.0899514951
      5  F        -1.0918799663    0.0103801870    0.8064067306
   Point Group: c1    Number of degrees of freedom:     9


   Energy is   -424.280435024

 Hessian Updated using BFGS Update

  9 Hessian modes will be used to form the next step
  Hessian Eigenvalues:
     0.015016    0.141283    0.164411    0.181670    0.238040    0.356213
     0.402778    0.473964    0.557600

 Minimum Search - Taking Simple RFO Step
 Searching for Lamda that Minimizes Along All modes
 Value Taken    Lamda =   0.00000000
 Step Taken.  Stepsize is  0.001201

                             Maximum     Tolerance    Cnvgd?
         Gradient           0.000243      0.000300     YES
         Displacement       0.000711      0.001200     YES
         Energy change     -0.000001      0.000001      NO


                       Distance Matrix (Angstroms)
             B (  1)   F (  2)   F (  3)   F (  4)
   F (  2)  1.324390
   F (  3)  1.324780  2.300671
   F (  4)  1.506959  2.355571  2.354985
   F (  5)  1.505640  2.354435  2.354524  1.924657
 
 Final energy is   -424.280435024320     


 ******************************
 **  OPTIMIZATION CONVERGED  **
 ******************************

                       Coordinates (Angstroms)
     ATOM                X               Y               Z
      1  B         0.1981399060    0.0136761356    0.0300117960
      2  F         0.7838404572    1.2015141336    0.0277958698
      3  F         0.9085904211   -1.0872275045    0.2257519057
      4  F        -0.7986028360   -0.1383481996   -1.0899514951
      5  F        -1.0918799663    0.0103801870    0.8064067306

Z-matrix Print:
$molecule
0 2
F 
B  1 1.505640
F  2 1.324390 1 112.441208
F  2 1.324780 1 112.424738 3 139.951730 0
F  2 1.506959 1 79.415129 3 -110.059403 0
$end

 
 --------------------------------------------------------------
 
                    Orbital Energies (a.u.)
 --------------------------------------------------------------
 
 Alpha MOs
 -- Occupied --
-24.931 -24.931 -24.836 -24.836  -7.053  -1.443  -1.367  -1.356
 -1.338  -0.772  -0.708  -0.683  -0.682  -0.657  -0.605  -0.602
 -0.598  -0.563  -0.558  -0.540  -0.527
 -- Virtual --
  0.059   0.077   0.083   0.084   0.195   0.243   0.265   0.266
  0.287   0.296   0.305   0.314   0.320   0.347   0.349   0.371
  0.390   0.392   0.396   0.421   0.436   0.452   0.518   0.526
  0.563   0.564   0.637   0.762   0.995   1.036   1.220   1.241
  1.299   1.303   1.354   1.362   1.377   1.416   1.418   1.426
  1.430   1.443   1.444   1.466   1.500   1.842   1.966   2.027
  2.032   2.076   2.359   2.367   3.740   3.741   3.750   3.766
  3.779   3.795   3.816   3.818   3.829   3.853   3.869   3.957
  4.045   4.182   4.262   4.276   4.314   4.413   4.629   4.752
  6.267   6.275   6.300   6.305   6.306   6.333   6.404   6.405
  6.431   6.438   6.651   6.835  14.617  66.780  66.841  66.900
 66.910
 
 Beta MOs
 -- Occupied --
-24.915 -24.915 -24.836 -24.836  -7.053  -1.405  -1.350  -1.338
 -1.317  -0.741  -0.677  -0.674  -0.669  -0.594  -0.586  -0.583
 -0.560  -0.552  -0.536  -0.526
 -- Virtual --
 -0.243   0.059   0.079   0.082   0.084   0.198   0.244   0.265
  0.270   0.289   0.300   0.306   0.316   0.323   0.348   0.352
  0.377   0.392   0.392   0.396   0.422   0.435   0.454   0.520
  0.525   0.563   0.564   0.636   0.763   0.995   1.046   1.234
  1.244   1.303   1.318   1.361   1.364   1.383   1.419   1.432
  1.432   1.434   1.443   1.461   1.466   1.500   1.857   1.966
  2.033   2.035   2.091   2.359   2.370   3.774   3.787   3.788
  3.795   3.806   3.815   3.830   3.843   3.848   3.856   3.905
  3.980   4.048   4.193   4.264   4.296   4.319   4.435   4.630
  4.767   6.285   6.297   6.319   6.328   6.338   6.358   6.411
  6.433   6.438   6.445   6.652   6.853  14.616  66.793  66.854
 66.900  66.910
 --------------------------------------------------------------
 
          Ground-State Mulliken Net Atomic Charges

     Atom                 Charge (a.u.)    Spin (a.u.)
  --------------------------------------------------------
      1 B                     0.526973      -0.043227
      2 F                    -0.119630      -0.001094
      3 F                    -0.121228      -0.001093
      4 F                    -0.142789       0.523637
      5 F                    -0.143326       0.521778
  --------------------------------------------------------
  Sum of atomic charges =     0.000000
  Sum of spin   charges =     1.000000

 -----------------------------------------------------------------
                    Cartesian Multipole Moments
 -----------------------------------------------------------------
    Charge (ESU x 10^10)
                 0.0000
    Dipole Moment (Debye)
         X      -0.7400      Y      -0.0470      Z      -0.1127
       Tot       0.7500
    Quadrupole Moments (Debye-Ang)
        XX     -26.2017     XY       0.0268     YY     -27.3423
        XZ      -0.4484     YZ       0.3198     ZZ     -23.3960
    Octopole Moments (Debye-Ang^2)
       XXX      -1.3183    XXY       0.2088    XYY      -2.7945
       YYY      -0.5624    XXZ      -0.3681    XYZ       0.2820
       YYZ      -0.3838    XZZ       0.3833    YZZ       0.1120
       ZZZ       0.1853
    Hexadecapole Moments (Debye-Ang^3)
      XXXX    -115.0403   XXXY      -0.5261   XXYY     -36.9551
      XYYY      -1.0035   YYYY     -99.2311   XXXZ      -3.5382
      XXYZ       0.4902   XYYZ      -1.3984   YYYZ       1.0825
      XXZZ     -30.8525   XYZZ      -0.2618   YYZZ     -27.9793
      XZZZ      -4.0515   YZZZ       1.2484   ZZZZ     -66.9507
 -----------------------------------------------------------------
Archival summary:
1\1\nid00724\OPT\ProcedureUnspecified\BasisUnspecified\41(2)\sblau\TueJul1709:56:512018TueJul1709:56:512018\0\\#,OPT,ProcedureUnspecified,BasisUnspecified,\\0,2\F\B,1,1.50564\F,2,1.32439,1,112.441\F,2,1.32478,1,112.425,3,139.952,0\F,2,1.50696,1,79.4151,3,-110.059,0\\\@

 Total job time:  272.93s(wall), 7978.86s(cpu) 
 Tue Jul 17 09:56:51 2018

        *************************************************************
        *                                                           *
        *  Thank you very much for using Q-Chem.  Have a nice day.  *
        *                                                           *
        *************************************************************


0 sent ACK to 0 
now end server 0 ... 
cleanup process ... done
