 vasp.5.4.4.18Apr17-6-g9f103f2a35 (build Aug 22 2019 09:35:51) complex          
  
 executed on             LinuxIFC date 2021.04.26  18:40:12
 running on    6 total cores
 distrk:  each k-point on    6 cores,    1 groups
 distr:  one band on NCORES_PER_BAND=   1 cores,    6 groups


--------------------------------------------------------------------------------------------------------


 INCAR:
 POTCAR:   PAW_PBE Li_sv 23Jan2001                
 POTCAR:   PAW_PBE Mn_pv 07Sep2000                
 POTCAR:   PAW_PBE O 08Apr2002                    

 ----------------------------------------------------------------------------- 
|                                                                             |
|           W    W    AA    RRRRR   N    N  II  N    N   GGGG   !!!           |
|           W    W   A  A   R    R  NN   N  II  NN   N  G    G  !!!           |
|           W    W  A    A  R    R  N N  N  II  N N  N  G       !!!           |
|           W WW W  AAAAAA  RRRRR   N  N N  II  N  N N  G  GGG   !            |
|           WW  WW  A    A  R   R   N   NN  II  N   NN  G    G                |
|           W    W  A    A  R    R  N    N  II  N    N   GGGG   !!!           |
|                                                                             |
|      For optimal performance we recommend to set                            |
|        NCORE= 4 - approx SQRT( number of cores)                             |
|      NCORE specifies how many cores store one orbital (NPAR=cpu/NCORE).     |
|      This setting can  greatly improve the performance of VASP for DFT.     |
|      The default,   NCORE=1            might be grossly inefficient         |
|      on modern multi-core architectures or massively parallel machines.     |
|      Do your own testing !!!!                                               |
|      Unfortunately you need to use the default for GW and RPA calculations. |
|      (for HF NCORE is supported but not extensively tested yet)             |
|                                                                             |
 ----------------------------------------------------------------------------- 

 POTCAR:   PAW_PBE Li_sv 23Jan2001                
   VRHFIN =Li: 1s2s2p                                                           
   LEXCH  = PE                                                                  
   EATOM  =   202.7858 eV,   14.9043 Ry                                         
                                                                                
   TITEL  = PAW_PBE Li_sv 23Jan2001                                             
   LULTRA =        F    use ultrasoft PP ?                                      
   IUNSCR =        0    unscreen: 0-lin 1-nonlin 2-no                           
   RPACOR =     .000    partial core radius                                     
   POMASS =    7.010; ZVAL   =    3.000    mass and valenz                      
   RCORE  =    2.050    outmost cutoff radius                                   
   RWIGS  =    2.050; RWIGS  =    1.085    wigner-seitz radius (au A)           
   ENMAX  =  271.649; ENMIN  =  203.737 eV                                      
   ICORE  =        2    local potential                                         
   LCOR   =        T    correct aug charges                                     
   LPAW   =        T    paw PP                                                  
   EAUG   =  428.394                                                            
   RMAX   =    2.797    core radius for proj-oper                               
   RAUG   =    1.300    factor for augmentation sphere                          
   RDEP   =    2.094    radius for radial grids                                 
   RDEPT  =    1.550    core radius for aug-charge                              
   QCUT   =   -4.468; QGAM   =    8.937    optimization parameters              
                                                                                
   Description                                                                  
     l     E      TYP  RCUT    TYP  RCUT                                        
     0   .000     23  1.550                                                     
     0   .000     23  2.050                                                     
     0   .000     23  1.550                                                     
     0   .000     23  2.050                                                     
     1  -.200     23  2.050                                                     
     1  1.500     23  2.050                                                     
     2   .000      7  1.550                                                     
  local pseudopotential read in
  atomic valenz-charges read in
  non local Contribution for L=           0  read in
    real space projection operators read in
  non local Contribution for L=           0  read in
    real space projection operators read in
  non local Contribution for L=           1  read in
    real space projection operators read in
  non local Contribution for L=           1  read in
    real space projection operators read in
    PAW grid and wavefunctions read in
 
   number of l-projection  operators is LMAX  =           4
   number of lm-projection operators is LMMAX =           8
 
 POTCAR:   PAW_PBE Mn_pv 07Sep2000                
   VRHFIN =Mn: 3p4s3d                                                           
   LEXCH  = PE                                                                  
   EATOM  =  2024.8347 eV,  148.8212 Ry                                         
                                                                                
   TITEL  = PAW_PBE Mn_pv 07Sep2000                                             
   LULTRA =        F    use ultrasoft PP ?                                      
   IUNSCR =        1    unscreen: 0-lin 1-nonlin 2-no                           
   RPACOR =    2.080    partial core radius                                     
   POMASS =   54.938; ZVAL   =   13.000    mass and valenz                      
   RCORE  =    2.300    outmost cutoff radius                                   
   RWIGS  =    2.500; RWIGS  =    1.323    wigner-seitz radius (au A)           
   ENMAX  =  269.865; ENMIN  =  202.399 eV                                      
   RCLOC  =    1.725    cutoff for local pot                                    
   LCOR   =        T    correct aug charges                                     
   LPAW   =        T    paw PP                                                  
   EAUG   =  569.085                                                            
   DEXC   =    -.003                                                            
   RMAX   =    2.807    core radius for proj-oper                               
   RAUG   =    1.300    factor for augmentation sphere                          
   RDEP   =    2.338    radius for radial grids                                 
   QCUT   =   -4.454; QGAM   =    8.907    optimization parameters              
                                                                                
   Description                                                                  
     l     E      TYP  RCUT    TYP  RCUT                                        
     1   .000     23  2.000                                                     
     1  -.100     23  2.000                                                     
     2   .000     23  2.300                                                     
     2   .000     23  2.300                                                     
     0   .000     23  2.300                                                     
     0   .000     23  2.300                                                     
     3   .000      7   .000                                                     
  local pseudopotential read in
  partial core-charges read in
  atomic valenz-charges read in
  non local Contribution for L=           1  read in
    real space projection operators read in
  non local Contribution for L=           1  read in
    real space projection operators read in
  non local Contribution for L=           2  read in
    real space projection operators read in
  non local Contribution for L=           2  read in
    real space projection operators read in
  non local Contribution for L=           0  read in
    real space projection operators read in
  non local Contribution for L=           0  read in
    real space projection operators read in
    PAW grid and wavefunctions read in
 
   number of l-projection  operators is LMAX  =           6
   number of lm-projection operators is LMMAX =          18
 
 POTCAR:   PAW_PBE O 08Apr2002                    
   VRHFIN =O: s2p4                                                              
   LEXCH  = PE                                                                  
   EATOM  =   432.3788 eV,   31.7789 Ry                                         
                                                                                
   TITEL  = PAW_PBE O 08Apr2002                                                 
   LULTRA =        F    use ultrasoft PP ?                                      
   IUNSCR =        0    unscreen: 0-lin 1-nonlin 2-no                           
   RPACOR =     .000    partial core radius                                     
   POMASS =   16.000; ZVAL   =    6.000    mass and valenz                      
   RCORE  =    1.520    outmost cutoff radius                                   
   RWIGS  =    1.550; RWIGS  =     .820    wigner-seitz radius (au A)           
   ENMAX  =  400.000; ENMIN  =  300.000 eV                                      
   ICORE  =        2    local potential                                         
   LCOR   =        T    correct aug charges                                     
   LPAW   =        T    paw PP                                                  
   EAUG   =  605.392                                                            
   DEXC   =     .000                                                            
   RMAX   =    2.264    core radius for proj-oper                               
   RAUG   =    1.300    factor for augmentation sphere                          
   RDEP   =    1.550    radius for radial grids                                 
   QCUT   =   -5.520; QGAM   =   11.041    optimization parameters              
                                                                                
   Description                                                                  
     l     E      TYP  RCUT    TYP  RCUT                                        
     0   .000     23  1.200                                                     
     0  -.700     23  1.200                                                     
     1   .000     23  1.520                                                     
     1   .600     23  1.520                                                     
     2   .000      7  1.500                                                     
  local pseudopotential read in
  atomic valenz-charges read in
  non local Contribution for L=           0  read in
    real space projection operators read in
  non local Contribution for L=           0  read in
    real space projection operators read in
  non local Contribution for L=           1  read in
    real space projection operators read in
  non local Contribution for L=           1  read in
    real space projection operators read in
    PAW grid and wavefunctions read in
 
   number of l-projection  operators is LMAX  =           4
   number of lm-projection operators is LMMAX =           8
 
 Optimization of the real space projectors (new method)

 maximal supplied QI-value         = 18.33
 optimisation between [QCUT,QGAM] = [ 11.55, 23.28] = [ 37.34,151.76] Ry 
 Optimized for a Real-space Cutoff    1.32 Angstroem

   l    n(q)    QCUT    max X(q) W(low)/X(q) W(high)/X(q)  e(spline) 
   0      9    11.548     5.519    0.68E-05    0.20E-05    0.27E-07
   0      9    11.548    24.272    0.42E-04    0.24E-04    0.63E-07
   1      9    11.548     4.148    0.83E-04    0.77E-04    0.38E-06
   1      9    11.548    11.842    0.23E-03    0.17E-03    0.54E-06
 Optimization of the real space projectors (new method)

 maximal supplied QI-value         = 16.25
 optimisation between [QCUT,QGAM] = [ 11.54, 23.24] = [ 37.28,151.24] Ry 
 Optimized for a Real-space Cutoff    1.53 Angstroem

   l    n(q)    QCUT    max X(q) W(low)/X(q) W(high)/X(q)  e(spline) 
   1     10    11.539     4.093    0.14E-05    0.94E-06    0.35E-07
   1     10    11.539     5.163    0.38E-04    0.24E-04    0.17E-06
   2     10    11.539     4.144    0.87E-05    0.14E-04    0.48E-07
   2     10    11.539    35.116    0.12E-03    0.13E-03    0.25E-06
   0     11    11.539    20.431    0.20E-04    0.18E-05    0.19E-07
   0     11    11.539    61.159    0.37E-04    0.19E-04    0.29E-06
 Optimization of the real space projectors (new method)

 maximal supplied QI-value         = 24.76
 optimisation between [QCUT,QGAM] = [ 11.64, 23.27] = [ 37.91,151.63] Ry 
 Optimized for a Real-space Cutoff    1.08 Angstroem

   l    n(q)    QCUT    max X(q) W(low)/X(q) W(high)/X(q)  e(spline) 
   0      7    11.635     4.192    0.54E-04    0.80E-04    0.26E-07
   0      7    11.635     8.473    0.70E-04    0.40E-03    0.21E-06
   1      7    11.635     2.474    0.39E-04    0.14E-03    0.23E-07
   1      7    11.635     3.912    0.25E-03    0.37E-03    0.22E-06
 PAW_PBE Li_sv 23Jan2001                :
 energy of atom  1       EATOM= -202.7858
 kinetic energy error for atom=    0.0020 (will be added to EATOM!!)
 PAW_PBE Mn_pv 07Sep2000                :
 energy of atom  2       EATOM=-2024.8347
 kinetic energy error for atom=    0.0058 (will be added to EATOM!!)
 PAW_PBE O 08Apr2002                    :
 energy of atom  3       EATOM= -432.3788
 kinetic energy error for atom=    0.0208 (will be added to EATOM!!)
 
 
 POSCAR: Li1 Mn8 O16                             
  positions in direct lattice
  velocities in cartesian coordinates
 exchange correlation table for  LEXCH =        8
   RHO(1)=    0.500       N(1)  =     2000
   RHO(2)=  100.500       N(2)  =     4000
 


--------------------------------------------------------------------------------------------------------


 ion  position               nearest neighbor table
   1  0.000  0.000  0.500-  25 1.98  14 1.98  13 1.98  23 1.98
   2  0.750  0.500  0.375-  10 1.93  13 1.93  14 1.93  16 1.93  12 1.93  17 1.93   4 2.89   4 2.89
                             9 2.89   3 2.89   5 2.89   7 2.89
   3  0.000  0.250  0.125-  15 1.93  17 1.93  19 1.93  20 1.93  14 1.93  24 1.93   5 2.89   5 2.89
                             8 2.89   4 2.89   2 2.89   6 2.89
   4  0.250  0.500  0.375-  10 1.93  13 1.93  14 1.93  16 1.93  15 1.93  11 1.93   2 2.89   2 2.89
                             9 2.89   3 2.89   5 2.89   7 2.89
   5  0.000  0.750  0.125-  15 1.93  17 1.93  19 1.93  20 1.93  13 1.93  18 1.93   3 2.89   3 2.89
                             8 2.89   2 2.89   4 2.89   6 2.89
   6  0.250  0.000  0.875-  18 1.93  21 1.93  22 1.93  24 1.93  20 1.93  25 1.93   8 2.89   8 2.89
                             9 2.89   5 2.89   7 2.89   3 2.89
   7  0.500  0.750  0.625-  11 1.93  12 1.93  23 1.93  25 1.93  16 1.93  22 1.93   9 2.89   9 2.89
                             2 2.89   4 2.89   6 2.89   8 2.89
   8  0.750  0.000  0.875-  18 1.93  21 1.93  22 1.93  24 1.93  23 1.93  19 1.93   6 2.89   6 2.89
                             9 2.89   5 2.89   3 2.89   7 2.89
   9  0.500  0.250  0.625-  11 1.93  12 1.93  23 1.93  25 1.93  10 1.93  21 1.93   7 2.89   7 2.89
                             8 2.89   4 2.89   6 2.89   2 2.89
  10  0.500  0.279  0.391-   2 1.93   4 1.93   9 1.93
  11  0.279  0.500  0.609-   7 1.93   9 1.93   4 1.93
  12  0.721  0.500  0.609-   7 1.93   9 1.93   2 1.93
  13  0.000  0.721  0.359-   2 1.93   4 1.93   5 1.93   1 1.98
  14  0.000  0.279  0.359-   2 1.93   4 1.93   3 1.93   1 1.98
  15  0.221  0.500  0.141-   3 1.93   5 1.93   4 1.93
  16  0.500  0.721  0.391-   2 1.93   4 1.93   7 1.93
  17  0.779  0.500  0.141-   3 1.93   5 1.93   2 1.93
  18  0.000  0.779  0.891-   6 1.93   8 1.93   5 1.93
  19  0.779  0.000  0.109-   3 1.93   5 1.93   8 1.93
  20  0.221  0.000  0.109-   3 1.93   5 1.93   6 1.93
  21  0.500  0.221  0.859-   6 1.93   8 1.93   9 1.93
  22  0.500  0.779  0.859-   6 1.93   8 1.93   7 1.93
  23  0.721  0.000  0.641-   7 1.93   9 1.93   8 1.93   1 1.98
  24  0.000  0.221  0.891-   6 1.93   8 1.93   3 1.93
  25  0.279  0.000  0.641-   7 1.93   9 1.93   6 1.93   1 1.98
 

IMPORTANT INFORMATION: All symmetrisations will be switched off!
NOSYMM: (Re-)initialisation of all symmetry stuff for point group C_1.

 
 
 KPOINTS: pymatgen v2019.10.16 with grid density =

Automatic generation of k-mesh.
Space group operators:
 irot       det(A)        alpha          n_x          n_y          n_z        tau_x        tau_y        tau_z
    1     1.000000     0.000000     1.000000     0.000000     0.000000     0.000000     0.000000     0.000000
 
 Subroutine IBZKPT returns following result:
 ===========================================
 
 Found     26 irreducible k-points:
 
 Following reciprocal coordinates:
            Coordinates               Weight
  0.000000  0.000000  0.000000      1.000000
  0.250000  0.000000  0.000000      2.000000
  0.500000  0.000000  0.000000      1.000000
  0.000000  0.250000  0.000000      2.000000
  0.250000  0.250000  0.000000      2.000000
  0.500000  0.250000  0.000000      2.000000
 -0.250000  0.250000  0.000000      2.000000
  0.000000  0.500000  0.000000      1.000000
  0.250000  0.500000  0.000000      2.000000
  0.500000  0.500000  0.000000      1.000000
  0.000000  0.000000  0.333333      2.000000
  0.250000  0.000000  0.333333      2.000000
  0.500000  0.000000  0.333333      2.000000
 -0.250000  0.000000  0.333333      2.000000
  0.000000  0.250000  0.333333      2.000000
  0.250000  0.250000  0.333333      2.000000
  0.500000  0.250000  0.333333      2.000000
 -0.250000  0.250000  0.333333      2.000000
  0.000000  0.500000  0.333333      2.000000
  0.250000  0.500000  0.333333      2.000000
  0.500000  0.500000  0.333333      2.000000
 -0.250000  0.500000  0.333333      2.000000
  0.000000 -0.250000  0.333333      2.000000
  0.250000 -0.250000  0.333333      2.000000
  0.500000 -0.250000  0.333333      2.000000
 -0.250000 -0.250000  0.333333      2.000000
 
 Following cartesian coordinates:
            Coordinates               Weight
  0.000000  0.000000  0.000000      1.000000
  0.043323  0.000000  0.000000      2.000000
  0.086646  0.000000  0.000000      1.000000
  0.000000  0.043323  0.000000      2.000000
  0.043323  0.043323  0.000000      2.000000
  0.086646  0.043323  0.000000      2.000000
 -0.043323  0.043323  0.000000      2.000000
  0.000000  0.086646  0.000000      1.000000
  0.043323  0.086646  0.000000      2.000000
  0.086646  0.086646  0.000000      1.000000
  0.000000  0.000000  0.040601      2.000000
  0.043323  0.000000  0.040601      2.000000
  0.086646  0.000000  0.040601      2.000000
 -0.043323  0.000000  0.040601      2.000000
  0.000000  0.043323  0.040601      2.000000
  0.043323  0.043323  0.040601      2.000000
  0.086646  0.043323  0.040601      2.000000
 -0.043323  0.043323  0.040601      2.000000
  0.000000  0.086646  0.040601      2.000000
  0.043323  0.086646  0.040601      2.000000
  0.086646  0.086646  0.040601      2.000000
 -0.043323  0.086646  0.040601      2.000000
  0.000000 -0.043323  0.040601      2.000000
  0.043323 -0.043323  0.040601      2.000000
  0.086646 -0.043323  0.040601      2.000000
 -0.043323 -0.043323  0.040601      2.000000
 
 TETIRR: Found    144 inequivalent tetrahedra from      288


--------------------------------------------------------------------------------------------------------




 Dimension of arrays:
   k-points           NKPTS =     26   k-points in BZ     NKDIM =     26   number of bands    NBANDS=    150
   number of dos      NEDOS =    301   number of ions     NIONS =     25
   non local maximal  LDIM  =      6   non local SUM 2l+1 LMDIM =     18
   total plane-waves  NPLWV = 147456
   max r-space proj   IRMAX =   8202   max aug-charges    IRDMAX=  16563
   dimension x,y,z NGX =    48 NGY =   48 NGZ =   64
   dimension x,y,z NGXF=    96 NGYF=   96 NGZF=  128
   support grid    NGXF=    96 NGYF=   96 NGZF=  128
   ions per type =               1   8  16
   NGX,Y,Z   is equivalent  to a cutoff of  13.83, 13.83, 12.96 a.u.
   NGXF,Y,Z  is equivalent  to a cutoff of  27.66, 27.66, 25.92 a.u.

 SYSTEM =  unknown system                          
 POSCAR =  Li1 Mn8 O16                             

 Startparameter for this run:
   NWRITE =      2    write-flag & timer
   PREC   = accura    normal or accurate (medium, high low for compatibility)
   ISTART =      0    job   : 0-new  1-cont  2-samecut
   ICHARG =      1    charge: 1-file 2-atom 10-const
   ISPIN  =      2    spin polarized calculation?
   LNONCOLLINEAR =      F non collinear calculations
   LSORBIT =      F    spin-orbit coupling
   INIWAV =      1    electr: 0-lowe 1-rand  2-diag
   LASPH  =      F    aspherical Exc in radial PAW
   METAGGA=      F    non-selfconsistent MetaGGA calc.

 Electronic Relaxation 1
   ENCUT  =  520.0 eV  38.22 Ry    6.18 a.u.  10.73 10.73 15.27*2*pi/ulx,y,z
   ENINI  =  520.0     initial cutoff
   ENAUG  =  605.4 eV  augmentation charge cutoff
   NELM   =    100;   NELMIN=  1; NELMDL=  0     # of ELM steps 
   EDIFF  = 0.1E-01   stopping-criterion for ELM
   LREAL  =      T    real-space projection
   NLSPLINE    = F    spline interpolate recip. space projectors
   LCOMPAT=      F    compatible to vasp.4.4
   GGA_COMPAT  = T    GGA compatible to vasp.4.4-vasp.4.6
   LMAXPAW     = -100 max onsite density
   LMAXMIX     =    2 max onsite mixed and CHGCAR
   VOSKOWN=      0    Vosko Wilk Nusair interpolation
   ROPT   =   -0.00025  -0.00025  -0.00025
 Ionic relaxation
   EDIFFG = 0.0E+00   stopping-criterion for IOM
   NSW    =      0    number of steps for IOM
   NBLOCK =      1;   KBLOCK =      1    inner block; outer block 
   IBRION =     -1    ionic relax: 0-MD 1-quasi-New 2-CG
   NFREE  =      0    steps in history (QN), initial steepest desc. (CG)
   ISIF   =      2    stress and relaxation
   IWAVPR =     10    prediction:  0-non 1-charg 2-wave 3-comb
   ISYM   =      0    0-nonsym 1-usesym 2-fastsym
   LCORR  =      T    Harris-Foulkes like correction to forces

   POTIM  = 0.5000    time-step for ionic-motion
   TEIN   =    0.0    initial temperature
   TEBEG  =    0.0;   TEEND  =   0.0 temperature during run
   SMASS  =  -3.00    Nose mass-parameter (am)
   estimated Nose-frequenzy (Omega)   =  0.10E-29 period in steps =****** mass=  -0.761E-27a.u.
   SCALEE = 1.0000    scale energy and forces
   NPACO  =    256;   APACO  = 16.0  distance and # of slots for P.C.
   PSTRESS=    0.0 pullay stress

  Mass of Ions in am
   POMASS =   7.01 54.94 16.00
  Ionic Valenz
   ZVAL   =   3.00 13.00  6.00
  Atomic Wigner-Seitz radii
   RWIGS  =  -1.00 -1.00 -1.00
  virtual crystal weights 
   VCA    =   1.00  1.00  1.00
   NELECT =     203.0000    total number of electrons
   NUPDOWN=      -1.0000    fix difference up-down

 DOS related values:
   EMIN   =  10.00;   EMAX   =-10.00  energy-range for DOS
   EFERMI =   0.00
   ISMEAR =    -5;   SIGMA  =   0.05  broadening in eV -4-tet -1-fermi 0-gaus

 Electronic relaxation 2 (details)
   IALGO  =     68    algorithm
   LDIAG  =      T    sub-space diagonalisation (order eigenvalues)
   LSUBROT=      F    optimize rotation matrix (better conditioning)
   TURBO    =      0    0=normal 1=particle mesh
   IRESTART =      0    0=no restart 2=restart with 2 vectors
   NREBOOT  =      0    no. of reboots
   NMIN     =      0    reboot dimension
   EREF     =   0.00    reference energy to select bands
   IMIX   =      4    mixing-type and parameters
     AMIX     =   0.40;   BMIX     =  1.00
     AMIX_MAG =   1.60;   BMIX_MAG =  1.00
     AMIN     =   0.10
     WC   =   100.;   INIMIX=   1;  MIXPRE=   1;  MAXMIX= -45

 Intra band minimization:
   WEIMIN = 0.0000     energy-eigenvalue tresh-hold
   EBREAK =  0.00E+00  absolut break condition
   DEPER  =   0.30     relativ break condition  

   TIME   =   0.40     timestep for ELM

  volume/ion in A,a.u.               =      10.94        73.80
  Fermi-wavevector in a.u.,A,eV,Ry     =   1.482442  2.801409 29.900622  2.197634
  Thomas-Fermi vector in A             =   2.596227
 
 Write flags
   LWAVE        =      F    write WAVECAR
   LDOWNSAMPLE  =      F    k-point downsampling of WAVECAR
   LCHARG       =      T    write CHGCAR
   LVTOT        =      F    write LOCPOT, total local potential
   LVHAR        =      F    write LOCPOT, Hartree potential only
   LELF         =      F    write electronic localiz. function (ELF)
   LORBIT       =     11    0 simple, 1 ext, 2 COOP (PROOUT), +10 PAW based schemes


 Dipole corrections
   LMONO  =      F    monopole corrections only (constant potential shift)
   LDIPOL =      F    correct potential (dipole corrections)
   IDIPOL =      0    1-x, 2-y, 3-z, 4-all directions 
   EPSILON=  1.0000000 bulk dielectric constant

 Exchange correlation treatment:
   GGA     =    --    GGA type
   LEXCH   =     8    internal setting for exchange type
   VOSKOWN=      0    Vosko Wilk Nusair interpolation
   LHFCALC =     F    Hartree Fock is set to
   LHFONE  =     F    Hartree Fock one center treatment
   AEXX    =    0.0000 exact exchange contribution

 Linear response parameters
   LEPSILON=     F    determine dielectric tensor
   LRPA    =     F    only Hartree local field effects (RPA)
   LNABLA  =     F    use nabla operator in PAW spheres
   LVEL    =     F    velocity operator in full k-point grid
   LINTERFAST=   F  fast interpolation
   KINTER  =     0    interpolate to denser k-point grid
   CSHIFT  =0.1000    complex shift for real part using Kramers Kronig
   OMEGAMAX=  -1.0    maximum frequency
   DEG_THRESHOLD= 0.2000000E-02 threshold for treating states as degnerate
   RTIME   =   -0.100 relaxation time in fs
  (WPLASMAI=    0.000 imaginary part of plasma frequency in eV, 0.658/RTIME)
   DFIELD  = 0.0000000 0.0000000 0.0000000 field for delta impulse in time
 
 Orbital magnetization related:
   ORBITALMAG=     F  switch on orbital magnetization
   LCHIMAG   =     F  perturbation theory with respect to B field
   DQ        =  0.001000  dq finite difference perturbation B field
   LLRAUG    =     F  two centre corrections for induced B field



--------------------------------------------------------------------------------------------------------


 Static calculation
 charge density and potential will be updated during run
 spin polarized calculation
 RMM-DIIS sequential band-by-band and
  variant of blocked Davidson during initial phase
 perform sub-space diagonalisation
    before iterative eigenvector-optimisation
 modified Broyden-mixing scheme, WC =      100.0
 initial mixing is a Kerker type mixing with AMIX =  0.4000 and BMIX =      1.0000
 Hartree-type preconditioning will be used
 using additional bands           48
 real space projection scheme for non local part
 use partial core corrections
 calculate Harris-corrections to forces 
   (improved forces if not selfconsistent)
 use gradient corrections 
 use of overlap-Matrix (Vanderbilt PP)
 Fermi weights with tetrahedron method with Bloechl corrections


--------------------------------------------------------------------------------------------------------


  energy-cutoff  :      520.00
  volume of cell :      273.39
      direct lattice vectors                 reciprocal lattice vectors
     5.770635000  0.000000000  0.000000000     0.173291154  0.000000000  0.000000000
     0.000000000  5.770635000  0.000000000     0.000000000  0.173291154  0.000000000
     0.000000000  0.000000000  8.209947000     0.000000000  0.000000000  0.121803466

  length of vectors
     5.770635000  5.770635000  8.209947000     0.173291154  0.173291154  0.121803466


 
 k-points in units of 2pi/SCALE and weight: pymatgen v2019.10.16 with grid density =
   0.00000000  0.00000000  0.00000000       0.021
   0.04332279  0.00000000  0.00000000       0.042
   0.08664558  0.00000000  0.00000000       0.021
   0.00000000  0.04332279  0.00000000       0.042
   0.04332279  0.04332279  0.00000000       0.042
   0.08664558  0.04332279  0.00000000       0.042
  -0.04332279  0.04332279  0.00000000       0.042
   0.00000000  0.08664558  0.00000000       0.021
   0.04332279  0.08664558  0.00000000       0.042
   0.08664558  0.08664558  0.00000000       0.021
   0.00000000  0.00000000  0.04060116       0.042
   0.04332279  0.00000000  0.04060116       0.042
   0.08664558  0.00000000  0.04060116       0.042
  -0.04332279  0.00000000  0.04060116       0.042
   0.00000000  0.04332279  0.04060116       0.042
   0.04332279  0.04332279  0.04060116       0.042
   0.08664558  0.04332279  0.04060116       0.042
  -0.04332279  0.04332279  0.04060116       0.042
   0.00000000  0.08664558  0.04060116       0.042
   0.04332279  0.08664558  0.04060116       0.042
   0.08664558  0.08664558  0.04060116       0.042
  -0.04332279  0.08664558  0.04060116       0.042
   0.00000000 -0.04332279  0.04060116       0.042
   0.04332279 -0.04332279  0.04060116       0.042
   0.08664558 -0.04332279  0.04060116       0.042
  -0.04332279 -0.04332279  0.04060116       0.042
 
 k-points in reciprocal lattice and weights: pymatgen v2019.10.16 with grid density =
   0.00000000  0.00000000  0.00000000       0.021
   0.25000000  0.00000000  0.00000000       0.042
   0.50000000  0.00000000  0.00000000       0.021
   0.00000000  0.25000000  0.00000000       0.042
   0.25000000  0.25000000  0.00000000       0.042
   0.50000000  0.25000000  0.00000000       0.042
  -0.25000000  0.25000000  0.00000000       0.042
   0.00000000  0.50000000  0.00000000       0.021
   0.25000000  0.50000000  0.00000000       0.042
   0.50000000  0.50000000  0.00000000       0.021
   0.00000000  0.00000000  0.33333333       0.042
   0.25000000  0.00000000  0.33333333       0.042
   0.50000000  0.00000000  0.33333333       0.042
  -0.25000000  0.00000000  0.33333333       0.042
   0.00000000  0.25000000  0.33333333       0.042
   0.25000000  0.25000000  0.33333333       0.042
   0.50000000  0.25000000  0.33333333       0.042
  -0.25000000  0.25000000  0.33333333       0.042
   0.00000000  0.50000000  0.33333333       0.042
   0.25000000  0.50000000  0.33333333       0.042
   0.50000000  0.50000000  0.33333333       0.042
  -0.25000000  0.50000000  0.33333333       0.042
   0.00000000 -0.25000000  0.33333333       0.042
   0.25000000 -0.25000000  0.33333333       0.042
   0.50000000 -0.25000000  0.33333333       0.042
  -0.25000000 -0.25000000  0.33333333       0.042
 
 position of ions in fractional coordinates (direct lattice) 
   0.00015900  0.00000400  0.49997000
   0.75000000  0.50000000  0.37500000
   0.00000000  0.25000000  0.12500000
   0.25000000  0.50000000  0.37500000
   0.00000000  0.75000000  0.12500000
   0.25000000  0.00000000  0.87500000
   0.50000000  0.75000000  0.62500000
   0.75000000  0.00000000  0.87500000
   0.50000000  0.25000000  0.62500000
   0.50000000  0.27918000  0.39075200
   0.27918000  0.50000000  0.60924800
   0.72082000  0.50000000  0.60924800
   0.00000000  0.72082000  0.35924800
   0.00000000  0.27918000  0.35924800
   0.22082000  0.50000000  0.14075200
   0.50000000  0.72082000  0.39075200
   0.77918000  0.50000000  0.14075200
   0.00000000  0.77918000  0.89075200
   0.77918000  0.00000000  0.10924800
   0.22082000  0.00000000  0.10924800
   0.50000000  0.22082000  0.85924800
   0.50000000  0.77918000  0.85924800
   0.72082000  0.00000000  0.64075200
   0.00000000  0.22082000  0.89075200
   0.27918000  0.00000000  0.64075200
 
 position of ions in cartesian coordinates  (Angst):
   0.00091753  0.00002308  4.10472720
   4.32797625  2.88531750  3.07873012
   0.00000000  1.44265875  1.02624337
   1.44265875  2.88531750  3.07873012
   0.00000000  4.32797625  1.02624337
   1.44265875  0.00000000  7.18370362
   2.88531750  4.32797625  5.13121687
   4.32797625  0.00000000  7.18370362
   2.88531750  1.44265875  5.13121687
   2.88531750  1.61104588  3.20805321
   1.61104588  2.88531750  5.00189379
   4.15958912  2.88531750  5.00189379
   0.00000000  4.15958912  2.94940704
   0.00000000  1.61104588  2.94940704
   1.27427162  2.88531750  1.15556646
   2.88531750  4.15958912  3.20805321
   4.49636338  2.88531750  1.15556646
   0.00000000  4.49636338  7.31302671
   4.49636338  0.00000000  0.89692029
   1.27427162  0.00000000  0.89692029
   2.88531750  1.27427162  7.05438054
   2.88531750  4.49636338  7.05438054
   4.15958912  0.00000000  5.26053996
   0.00000000  1.27427162  7.31302671
   1.61104588  0.00000000  5.26053996
 


--------------------------------------------------------------------------------------------------------


 k-point  1 :   0.0000 0.0000 0.0000  plane waves:    7395
 k-point  2 :   0.2500 0.0000 0.0000  plane waves:    7381
 k-point  3 :   0.5000 0.0000 0.0000  plane waves:    7382
 k-point  4 :   0.0000 0.2500 0.0000  plane waves:    7381
 k-point  5 :   0.2500 0.2500 0.0000  plane waves:    7355
 k-point  6 :   0.5000 0.2500 0.0000  plane waves:    7358
 k-point  7 :  -0.2500 0.2500 0.0000  plane waves:    7355
 k-point  8 :   0.0000 0.5000 0.0000  plane waves:    7382
 k-point  9 :   0.2500 0.5000 0.0000  plane waves:    7358
 k-point 10 :   0.5000 0.5000 0.0000  plane waves:    7384
 k-point 11 :   0.0000 0.0000 0.3333  plane waves:    7330
 k-point 12 :   0.2500 0.0000 0.3333  plane waves:    7359
 k-point 13 :   0.5000 0.0000 0.3333  plane waves:    7362
 k-point 14 :  -0.2500 0.0000 0.3333  plane waves:    7359
 k-point 15 :   0.0000 0.2500 0.3333  plane waves:    7359
 k-point 16 :   0.2500 0.2500 0.3333  plane waves:    7352
 k-point 17 :   0.5000 0.2500 0.3333  plane waves:    7350
 k-point 18 :  -0.2500 0.2500 0.3333  plane waves:    7352
 k-point 19 :   0.0000 0.5000 0.3333  plane waves:    7362
 k-point 20 :   0.2500 0.5000 0.3333  plane waves:    7350
 k-point 21 :   0.5000 0.5000 0.3333  plane waves:    7356
 k-point 22 :  -0.2500 0.5000 0.3333  plane waves:    7350
 k-point 23 :   0.0000-0.2500 0.3333  plane waves:    7359
 k-point 24 :   0.2500-0.2500 0.3333  plane waves:    7352
 k-point 25 :   0.5000-0.2500 0.3333  plane waves:    7350
 k-point 26 :  -0.2500-0.2500 0.3333  plane waves:    7352

 maximum and minimum number of plane-waves per node :      7395     7330

 maximum number of plane-waves:      7395
 maximum index in each direction: 
   IXMAX=   10   IYMAX=   10   IZMAX=   15
   IXMIN=  -11   IYMIN=  -11   IZMIN=  -15


 serial   3D FFT for wavefunctions
 parallel 3D FFT for charge:
    minimum data exchange during FFTs selected (reduces bandwidth)


 total amount of memory used by VASP MPI-rank0   244218. kBytes
=======================================================================

   base      :      30000. kBytes
   nonlr-proj:      17010. kBytes
   fftplans  :       7295. kBytes
   grid      :      29392. kBytes
   one-center:        777. kBytes
   wavefun   :     159744. kBytes
 
     INWAV:  cpu time    0.0000: real time    0.0000
 Broyden mixing: mesh for mixing (old mesh)
   NGX = 21   NGY = 21   NGZ = 31
  (NGX  = 96   NGY  = 96   NGZ  =128)
  gives a total of  13671 points

 initial charge density was supplied:
 number of electron     202.9999960 magnetization      22.9657023
 keeping initial charge density in first step


--------------------------------------------------------------------------------------------------------


 Maximum index for non-local projection operator         7951
 Maximum index for augmentation-charges         2679 (set IRDMAX)


--------------------------------------------------------------------------------------------------------


 First call to EWALD:  gamma=   0.273
 Maximum number of real-space cells 3x 3x 2
 Maximum number of reciprocal cells 2x 2x 3

    FEWALD:  cpu time    0.0025: real time    0.0025


--------------------------------------- Iteration      1(   1)  ---------------------------------------


    POTLOK:  cpu time    0.2838: real time    0.2879
    SETDIJ:  cpu time    0.0238: real time    0.0240
     EDDAV:  cpu time   65.6158: real time   66.0078
 BZINTS: Fermi energy: 23.687141;203.000000 electrons
         Band energy: 221.558072;  BLOECHL correction: -0.138160
       DOS:  cpu time    0.0636: real time    0.0638
    --------------------------------------------
      LOOP:  cpu time   65.9871: real time   66.3836

 eigenvalue-minimisations  : 15888
 total energy-change (2. order) : 0.3039620E+04  (-0.1034930E+05)
 number of electron     202.9999960 magnetization      22.9657023
 augmentation part      202.9999960 magnetization      22.9657023

 Free energy of the ion-electron system (eV)
  ---------------------------------------------------
  alpha Z        PSCENC =      1096.51130837
  Ewald energy   TEWEN  =    -13555.49352498
  -Hartree energ DENC   =     -8547.92511618
  -exchange      EXHF   =         0.00000000
  -V(xc)+E(xc)   XCENC  =      1010.28950544
  PAW double counting   =     16611.80812100   -17116.27091918
  entropy T*S    EENTRO =         0.00000000
  eigenvalues    EBANDS =       221.55807205
  atomic energy  EATOM  =     23319.14298724
  Solvation  Ediel_sol  =         0.00000000
  ---------------------------------------------------
  free energy    TOTEN  =      3039.62043375 eV

  energy without entropy =     3039.62043375  energy(sigma->0) =     3039.62043375


--------------------------------------------------------------------------------------------------------




--------------------------------------- Iteration      1(   2)  ---------------------------------------


     EDDAV:  cpu time   65.0162: real time   65.3971
 BZINTS: Fermi energy:  6.359323;203.000000 electrons
         Band energy:***********;  BLOECHL correction: -0.087899
       DOS:  cpu time    0.0626: real time    0.0627
    --------------------------------------------
      LOOP:  cpu time   65.0787: real time   65.4597

 eigenvalue-minimisations  : 15684
 total energy-change (2. order) :-0.2728473E+04  (-0.2547704E+04)
 number of electron     202.9999960 magnetization      22.9657023
 augmentation part      202.9999960 magnetization      22.9657023

 Free energy of the ion-electron system (eV)
  ---------------------------------------------------
  alpha Z        PSCENC =      1096.51130837
  Ewald energy   TEWEN  =    -13555.49352498
  -Hartree energ DENC   =     -8547.92511618
  -exchange      EXHF   =         0.00000000
  -V(xc)+E(xc)   XCENC  =      1010.28950544
  PAW double counting   =     16611.80812100   -17116.27091918
  entropy T*S    EENTRO =         0.00000000
  eigenvalues    EBANDS =     -2506.91453952
  atomic energy  EATOM  =     23319.14298724
  Solvation  Ediel_sol  =         0.00000000
  ---------------------------------------------------
  free energy    TOTEN  =       311.14782218 eV

  energy without entropy =      311.14782218  energy(sigma->0) =      311.14782218


--------------------------------------------------------------------------------------------------------




--------------------------------------- Iteration      1(   3)  ---------------------------------------


     EDDAV:  cpu time   66.8961: real time   67.2745
 BZINTS: Fermi energy:  2.818359;203.000000 electrons
         Band energy:***********;  BLOECHL correction: -0.033827
       DOS:  cpu time    0.0666: real time    0.0668
    --------------------------------------------
      LOOP:  cpu time   66.9627: real time   67.3413

 eigenvalue-minimisations  : 16242
 total energy-change (2. order) :-0.4592281E+03  (-0.3909717E+03)
 number of electron     202.9999960 magnetization      22.9657023
 augmentation part      202.9999960 magnetization      22.9657023

 Free energy of the ion-electron system (eV)
  ---------------------------------------------------
  alpha Z        PSCENC =      1096.51130837
  Ewald energy   TEWEN  =    -13555.49352498
  -Hartree energ DENC   =     -8547.92511618
  -exchange      EXHF   =         0.00000000
  -V(xc)+E(xc)   XCENC  =      1010.28950544
  PAW double counting   =     16611.80812100   -17116.27091918
  entropy T*S    EENTRO =         0.00000000
  eigenvalues    EBANDS =     -2966.14265892
  atomic energy  EATOM  =     23319.14298724
  Solvation  Ediel_sol  =         0.00000000
  ---------------------------------------------------
  free energy    TOTEN  =      -148.08029722 eV

  energy without entropy =     -148.08029722  energy(sigma->0) =     -148.08029722


--------------------------------------------------------------------------------------------------------




--------------------------------------- Iteration      1(   4)  ---------------------------------------


     EDDAV:  cpu time   77.3846: real time   77.8633
 BZINTS: Fermi energy:  2.613067;203.000000 electrons
         Band energy:***********;  BLOECHL correction: -0.033913
       DOS:  cpu time    0.0608: real time    0.0609
    --------------------------------------------
      LOOP:  cpu time   77.4454: real time   77.9242

 eigenvalue-minimisations  : 19560
 total energy-change (2. order) :-0.4651920E+02  (-0.4492466E+02)
 number of electron     202.9999960 magnetization      22.9657023
 augmentation part      202.9999960 magnetization      22.9657023

 Free energy of the ion-electron system (eV)
  ---------------------------------------------------
  alpha Z        PSCENC =      1096.51130837
  Ewald energy   TEWEN  =    -13555.49352498
  -Hartree energ DENC   =     -8547.92511618
  -exchange      EXHF   =         0.00000000
  -V(xc)+E(xc)   XCENC  =      1010.28950544
  PAW double counting   =     16611.80812100   -17116.27091918
  entropy T*S    EENTRO =         0.00000000
  eigenvalues    EBANDS =     -3012.66185438
  atomic energy  EATOM  =     23319.14298724
  Solvation  Ediel_sol  =         0.00000000
  ---------------------------------------------------
  free energy    TOTEN  =      -194.59949268 eV

  energy without entropy =     -194.59949268  energy(sigma->0) =     -194.59949268


--------------------------------------------------------------------------------------------------------




--------------------------------------- Iteration      1(   5)  ---------------------------------------


     EDDAV:  cpu time   78.3072: real time   78.7291
 BZINTS: Fermi energy:  2.607818;203.000000 electrons
         Band energy:***********;  BLOECHL correction: -0.033647
       DOS:  cpu time    0.0625: real time    0.0627
    CHARGE:  cpu time    2.2327: real time    2.2410
    MIXING:  cpu time    0.0072: real time    0.0073
    --------------------------------------------
      LOOP:  cpu time   80.6096: real time   81.0401

 eigenvalue-minimisations  : 19596
 total energy-change (2. order) :-0.1426447E+01  (-0.1420002E+01)
 number of electron     202.9999960 magnetization      22.9859702
 augmentation part       68.8201749 magnetization      16.3270439

 Broyden mixing:
  rms(total) = 0.70029E-01    rms(broyden)= 0.69914E-01
  rms(prec ) = 0.88121E-01
  weight for this iteration     100.00

 Free energy of the ion-electron system (eV)
  ---------------------------------------------------
  alpha Z        PSCENC =      1096.51130837
  Ewald energy   TEWEN  =    -13555.49352498
  -Hartree energ DENC   =     -8547.92511618
  -exchange      EXHF   =         0.00000000
  -V(xc)+E(xc)   XCENC  =      1010.28950544
  PAW double counting   =     16611.80812100   -17116.27091918
  entropy T*S    EENTRO =         0.00000000
  eigenvalues    EBANDS =     -3014.08830162
  atomic energy  EATOM  =     23319.14298724
  Solvation  Ediel_sol  =         0.00000000
  ---------------------------------------------------
  free energy    TOTEN  =      -196.02593993 eV

  energy without entropy =     -196.02593993  energy(sigma->0) =     -196.02593993


--------------------------------------------------------------------------------------------------------




--------------------------------------- Iteration      1(   6)  ---------------------------------------


    POTLOK:  cpu time    0.2634: real time    0.2644
    SETDIJ:  cpu time    0.0230: real time    0.0230
    EDDIAG:  cpu time    9.7751: real time    9.8210
  RMM-DIIS:  cpu time   64.1641: real time   64.5612
    ORTHCH:  cpu time    0.7696: real time    0.7725
 BZINTS: Fermi energy:  2.703467;203.000000 electrons
         Band energy:***********;  BLOECHL correction: -0.034133
       DOS:  cpu time    0.0650: real time    0.0653
    CHARGE:  cpu time    2.0602: real time    2.0684
    MIXING:  cpu time    0.0084: real time    0.0084
    --------------------------------------------
      LOOP:  cpu time   77.1289: real time   77.5842

 eigenvalue-minimisations  : 20820
 total energy-change (2. order) :-0.4984744E+00  (-0.7190539E-01)
 number of electron     202.9999961 magnetization      22.9891529
 augmentation part       68.7515293 magnetization      16.2801758

 Broyden mixing:
  rms(total) = 0.10059E+00    rms(broyden)= 0.10053E+00
  rms(prec ) = 0.13757E+00
  weight for this iteration     100.00

 eigenvalues of (default mixing * dielectric matrix)
  average eigenvalue GAMMA=   0.4016
  0.4016

 Free energy of the ion-electron system (eV)
  ---------------------------------------------------
  alpha Z        PSCENC =      1096.51130837
  Ewald energy   TEWEN  =    -13555.49352498
  -Hartree energ DENC   =     -8547.93969730
  -exchange      EXHF   =         0.00000000
  -V(xc)+E(xc)   XCENC  =      1010.21268733
  PAW double counting   =     16618.21427864   -17123.02223375
  entropy T*S    EENTRO =         0.00000000
  eigenvalues    EBANDS =     -3014.15021986
  atomic energy  EATOM  =     23319.14298724
  Solvation  Ediel_sol  =         0.00000000
  ---------------------------------------------------
  free energy    TOTEN  =      -196.52441432 eV

  energy without entropy =     -196.52441432  energy(sigma->0) =     -196.52441432


--------------------------------------------------------------------------------------------------------




--------------------------------------- Iteration      1(   7)  ---------------------------------------


    POTLOK:  cpu time    0.2630: real time    0.2645
    SETDIJ:  cpu time    0.0245: real time    0.0245
    EDDIAG:  cpu time    9.9687: real time   10.0153
  RMM-DIIS:  cpu time   68.0636: real time   68.4291
    ORTHCH:  cpu time    0.7300: real time    0.7327
 BZINTS: Fermi energy:  2.679010;203.000000 electrons
         Band energy:***********;  BLOECHL correction: -0.034297
       DOS:  cpu time    0.0602: real time    0.0603
    --------------------------------------------
      LOOP:  cpu time   79.1099: real time   79.5263

 eigenvalue-minimisations  : 22121
 total energy-change (2. order) : 0.6223027E-02  (-0.5737773E-02)
 number of electron     202.9999961 magnetization      22.9891529
 augmentation part       68.7515293 magnetization      16.2801758

 Free energy of the ion-electron system (eV)
  ---------------------------------------------------
  alpha Z        PSCENC =      1096.51130837
  Ewald energy   TEWEN  =    -13555.49352498
  -Hartree energ DENC   =     -8546.49049984
  -exchange      EXHF   =         0.00000000
  -V(xc)+E(xc)   XCENC  =      1010.19498659
  PAW double counting   =     16615.28773610   -17119.97980062
  entropy T*S    EENTRO =         0.00000000
  eigenvalues    EBANDS =     -3015.69138416
  atomic energy  EATOM  =     23319.14298724
  Solvation  Ediel_sol  =         0.00000000
  ---------------------------------------------------
  free energy    TOTEN  =      -196.51819129 eV

  energy without entropy =     -196.51819129  energy(sigma->0) =     -196.51819129


--------------------------------------------------------------------------------------------------------




 average (electrostatic) potential at core
  the test charge radii are     0.8577  0.9577  0.7215
  (the norm of the test charge is              1.0000)
       1 -16.1484       2 -50.2553       3 -50.2330       4 -50.2734       5 -50.2294
       6 -50.2420       7 -50.2893       8 -50.2441       9 -50.2775      10 -73.2627
      11 -73.2623      12 -73.2616      13 -73.4283      14 -73.4290      15 -73.1210
      16 -73.2621      17 -73.1212      18 -73.1586      19 -73.1578      20 -73.1585
      21 -73.1211      22 -73.1212      23 -73.4291      24 -73.1581      25 -73.4290
 
 
 
 E-fermi :   2.6790     XC(G=0): -10.6783     alpha+bet : -9.6740


 spin component 1

 k-point     1 :       0.0000    0.0000    0.0000
  band No.  band energies     occupation 
      1     -48.4535      1.00000
      2     -48.3876      1.00000
      3     -48.3685      1.00000
      4     -48.3426      1.00000
      5     -48.3256      1.00000
      6     -48.3056      1.00000
      7     -48.2995      1.00000
      8     -48.2889      1.00000
      9     -48.2039      1.00000
     10     -48.1916      1.00000
     11     -48.1880      1.00000
     12     -48.1788      1.00000
     13     -48.1693      1.00000
     14     -48.1673      1.00000
     15     -48.1636      1.00000
     16     -48.1619      1.00000
     17     -48.1519      1.00000
     18     -48.1499      1.00000
     19     -48.1486      1.00000
     20     -48.1453      1.00000
     21     -48.1450      1.00000
     22     -48.1275      1.00000
     23     -48.1237      1.00000
     24     -48.1087      1.00000
     25     -41.6656      1.00000
     26     -17.5804      1.00000
     27     -16.9906      1.00000
     28     -16.8190      1.00000
     29     -16.2153      1.00000
     30     -16.1876      1.00000
     31     -16.1861      1.00000
     32     -15.9857      1.00000
     33     -15.8512      1.00000
     34     -15.8511      1.00000
     35     -15.8149      1.00000
     36     -15.7851      1.00000
     37     -15.7024      1.00000
     38     -15.7020      1.00000
     39     -15.5613      1.00000
     40     -15.5329      1.00000
     41     -15.5322      1.00000
     42      -5.1461      1.00000
     43      -4.6636      1.00000
     44      -4.6113      1.00000
     45      -4.6109      1.00000
     46      -4.1706      1.00000
     47      -4.1239      1.00000
     48      -3.9526      1.00000
     49      -3.9472      1.00000
     50      -3.8082      1.00000
     51      -3.6694      1.00000
     52      -3.6686      1.00000
     53      -3.6552      1.00000
     54      -3.5537      1.00000
     55      -3.4639      1.00000
     56      -3.1143      1.00000
     57      -3.0590      1.00000
     58      -3.0331      1.00000
     59      -3.0317      1.00000
     60      -2.9643      1.00000
     61      -2.8781      1.00000
     62      -2.8137      1.00000
     63      -2.7976      1.00000
     64      -2.7973      1.00000
     65      -2.6694      1.00000
     66      -2.4730      1.00000
     67      -2.4725      1.00000
     68      -2.3383      1.00000
     69      -2.2929      1.00000
     70      -1.9919      1.00000
     71      -1.9888      1.00000
     72      -1.8337      1.00000
     73      -1.6785      1.00000
     74      -1.6751      1.00000
     75      -1.1690      1.00000
     76      -1.1658      1.00000
     77      -0.8519      1.00000
     78      -0.8036      1.00000
     79      -0.8035      1.00000
     80      -0.6875      1.00000
     81      -0.6687      1.00000
     82      -0.5553      1.00000
     83      -0.5252      1.00000
     84      -0.5057      1.00000
     85      -0.5054      1.00000
     86      -0.3980      1.00000
     87       0.1349      1.00000
     88       0.1354      1.00000
     89       0.1508      1.00000
     90       0.2544      1.00000
     91       0.2565      1.00000
     92       0.2834      1.00000
     93       0.2943      1.00000
     94       0.2973      1.00000
     95       0.4362      1.00000
     96       0.4523      1.00000
     97       0.4542      1.00000
     98       0.4607      1.00000
     99       0.5500      1.00000
    100       0.5522      1.00000
    101       0.6093      1.00000
    102       0.6096      1.00000
    103       0.6382      1.00000
    104       0.9409      1.00000
    105       0.9640      1.00000
    106       0.9660      1.00000
    107       1.3479      1.00000
    108       1.3498      1.00000
    109       1.3568      1.00000
    110       1.4044      1.00000
    111       1.4900      1.00000
    112       1.5124      1.00000
    113       1.5137      1.00000
    114       3.2307      0.00000
    115       3.2522      0.00000
    116       3.6684      0.00000
    117       3.6695      0.00000
    118       3.8470      0.00000
    119       3.8553      0.00000
    120       3.9032      0.00000
    121       3.9948      0.00000
    122       4.0004      0.00000
    123       4.2649      0.00000
    124       4.2732      0.00000
    125       4.4315      0.00000
    126       4.4335      0.00000
    127       4.4727      0.00000
    128       4.5261      0.00000
    129       4.5671      0.00000
    130       8.4329      0.00000
    131      11.1215      0.00000
    132      11.5339      0.00000
    133      11.6565      0.00000
    134      11.6574      0.00000
    135      11.9624      0.00000
    136      12.4873      0.00000
    137      12.4882      0.00000
    138      13.2155      0.00000
    139      13.3818      0.00000
    140      13.5197      0.00000
    141      13.5216      0.00000
    142      13.5623      0.00000
    143      13.8653      0.00000
    144      15.7350      0.00000
    145      15.8373      0.00000
    146      15.9048      0.00000
    147      15.9724      0.00000
    148      16.2572      0.00000
    149      16.3401      0.00000
    150      16.4993      0.00000

 k-point     2 :       0.2500    0.0000    0.0000
  band No.  band energies     occupation 
      1     -48.4461      1.00000
      2     -48.3885      1.00000
      3     -48.3638      1.00000
      4     -48.3426      1.00000
      5     -48.3310      1.00000
      6     -48.3085      1.00000
      7     -48.2953      1.00000
      8     -48.2889      1.00000
      9     -48.2013      1.00000
     10     -48.1915      1.00000
     11     -48.1881      1.00000
     12     -48.1796      1.00000
     13     -48.1700      1.00000
     14     -48.1684      1.00000
     15     -48.1666      1.00000
     16     -48.1627      1.00000
     17     -48.1532      1.00000
     18     -48.1519      1.00000
     19     -48.1485      1.00000
     20     -48.1427      1.00000
     21     -48.1416      1.00000
     22     -48.1276      1.00000
     23     -48.1253      1.00000
     24     -48.1134      1.00000
     25     -41.6656      1.00000
     26     -17.4841      1.00000
     27     -17.0265      1.00000
     28     -16.7773      1.00000
     29     -16.3296      1.00000
     30     -16.1792      1.00000
     31     -16.1759      1.00000
     32     -15.9638      1.00000
     33     -15.8731      1.00000
     34     -15.8547      1.00000
     35     -15.8111      1.00000
     36     -15.7780      1.00000
     37     -15.7078      1.00000
     38     -15.6833      1.00000
     39     -15.5781      1.00000
     40     -15.5623      1.00000
     41     -15.5529      1.00000
     42      -4.9683      1.00000
     43      -4.4668      1.00000
     44      -4.4661      1.00000
     45      -4.3679      1.00000
     46      -4.1112      1.00000
     47      -3.9962      1.00000
     48      -3.9305      1.00000
     49      -3.9269      1.00000
     50      -3.9007      1.00000
     51      -3.7084      1.00000
     52      -3.6473      1.00000
     53      -3.6111      1.00000
     54      -3.5610      1.00000
     55      -3.3888      1.00000
     56      -3.2782      1.00000
     57      -3.2180      1.00000
     58      -3.1503      1.00000
     59      -3.0788      1.00000
     60      -3.0665      1.00000
     61      -2.9766      1.00000
     62      -2.9463      1.00000
     63      -2.9154      1.00000
     64      -2.8335      1.00000
     65      -2.7107      1.00000
     66      -2.6803      1.00000
     67      -2.4842      1.00000
     68      -2.2982      1.00000
     69      -1.9184      1.00000
     70      -1.9029      1.00000
     71      -1.8901      1.00000
     72      -1.6405      1.00000
     73      -1.6281      1.00000
     74      -1.4766      1.00000
     75      -1.3865      1.00000
     76      -1.3313      1.00000
     77      -1.2375      1.00000
     78      -1.1248      1.00000
     79      -1.0623      1.00000
     80      -0.9450      1.00000
     81      -0.6630      1.00000
     82      -0.6499      1.00000
     83      -0.6178      1.00000
     84      -0.5647      1.00000
     85      -0.3741      1.00000
     86      -0.2168      1.00000
     87      -0.1661      1.00000
     88       0.0261      1.00000
     89       0.0581      1.00000
     90       0.1696      1.00000
     91       0.2891      1.00000
     92       0.3522      1.00000
     93       0.3674      1.00000
     94       0.3918      1.00000
     95       0.4462      1.00000
     96       0.5052      1.00000
     97       0.5977      1.00000
     98       0.6070      1.00000
     99       0.6422      1.00000
    100       0.6969      1.00000
    101       0.7624      1.00000
    102       0.8227      1.00000
    103       0.8354      1.00000
    104       0.9476      1.00000
    105       1.0955      1.00000
    106       1.1293      1.00000
    107       1.2042      1.00000
    108       1.2752      1.00000
    109       1.3116      1.00000
    110       1.3830      1.00000
    111       1.4111      1.00000
    112       1.4950      1.00000
    113       1.5662      1.00000
    114       3.4273      0.00000
    115       3.4471      0.00000
    116       3.6980      0.00000
    117       3.7552      0.00000
    118       3.7574      0.00000
    119       3.7793      0.00000
    120       3.8679      0.00000
    121       3.9019      0.00000
    122       3.9214      0.00000
    123       4.0994      0.00000
    124       4.2475      0.00000
    125       4.2765      0.00000
    126       4.3121      0.00000
    127       4.3618      0.00000
    128       4.4145      0.00000
    129       4.4940      0.00000
    130       8.9213      0.00000
    131      11.2385      0.00000
    132      11.3023      0.00000
    133      11.6762      0.00000
    134      11.9822      0.00000
    135      12.0627      0.00000
    136      12.2032      0.00000
    137      12.7785      0.00000
    138      13.1816      0.00000
    139      13.5680      0.00000
    140      13.6865      0.00000
    141      13.7124      0.00000
    142      14.1922      0.00000
    143      14.5900      0.00000
    144      15.2381      0.00000
    145      15.5823      0.00000
    146      15.8033      0.00000
    147      16.0433      0.00000
    148      16.2010      0.00000
    149      16.3272      0.00000
    150      16.5434      0.00000

 k-point     3 :       0.5000    0.0000    0.0000
  band No.  band energies     occupation 
      1     -48.4368      1.00000
      2     -48.3935      1.00000
      3     -48.3521      1.00000
      4     -48.3424      1.00000
      5     -48.3408      1.00000
      6     -48.3106      1.00000
      7     -48.2923      1.00000
      8     -48.2889      1.00000
      9     -48.1962      1.00000
     10     -48.1907      1.00000
     11     -48.1885      1.00000
     12     -48.1835      1.00000
     13     -48.1758      1.00000
     14     -48.1688      1.00000
     15     -48.1670      1.00000
     16     -48.1614      1.00000
     17     -48.1560      1.00000
     18     -48.1537      1.00000
     19     -48.1463      1.00000
     20     -48.1414      1.00000
     21     -48.1362      1.00000
     22     -48.1280      1.00000
     23     -48.1269      1.00000
     24     -48.1198      1.00000
     25     -41.6656      1.00000
     26     -17.2776      1.00000
     27     -17.2111      1.00000
     28     -16.5893      1.00000
     29     -16.5454      1.00000
     30     -16.1721      1.00000
     31     -16.1650      1.00000
     32     -15.9455      1.00000
     33     -15.8846      1.00000
     34     -15.8588      1.00000
     35     -15.8055      1.00000
     36     -15.7707      1.00000
     37     -15.7280      1.00000
     38     -15.6536      1.00000
     39     -15.5946      1.00000
     40     -15.5926      1.00000
     41     -15.5832      1.00000
     42      -4.5634      1.00000
     43      -4.5387      1.00000
     44      -4.1231      1.00000
     45      -4.0333      1.00000
     46      -4.0121      1.00000
     47      -3.9331      1.00000
     48      -3.8871      1.00000
     49      -3.8681      1.00000
     50      -3.8463      1.00000
     51      -3.7985      1.00000
     52      -3.7916      1.00000
     53      -3.6989      1.00000
     54      -3.5530      1.00000
     55      -3.4780      1.00000
     56      -3.4140      1.00000
     57      -3.3434      1.00000
     58      -3.3257      1.00000
     59      -3.2520      1.00000
     60      -3.1243      1.00000
     61      -3.0529      1.00000
     62      -2.9381      1.00000
     63      -2.8902      1.00000
     64      -2.8408      1.00000
     65      -2.7520      1.00000
     66      -2.5405      1.00000
     67      -2.5086      1.00000
     68      -2.0832      1.00000
     69      -2.0552      1.00000
     70      -1.9746      1.00000
     71      -1.9739      1.00000
     72      -1.6841      1.00000
     73      -1.5902      1.00000
     74      -1.5439      1.00000
     75      -1.4699      1.00000
     76      -1.4156      1.00000
     77      -1.2602      1.00000
     78      -1.1970      1.00000
     79      -1.1497      1.00000
     80      -0.9735      1.00000
     81      -0.8973      1.00000
     82      -0.7834      1.00000
     83      -0.7761      1.00000
     84      -0.6769      1.00000
     85      -0.4498      1.00000
     86      -0.2891      1.00000
     87      -0.0754      1.00000
     88       0.0524      1.00000
     89       0.0802      1.00000
     90       0.1770      1.00000
     91       0.2438      1.00000
     92       0.3216      1.00000
     93       0.3249      1.00000
     94       0.5943      1.00000
     95       0.6495      1.00000
     96       0.6800      1.00000
     97       0.6945      1.00000
     98       0.7053      1.00000
     99       0.7454      1.00000
    100       0.7755      1.00000
    101       0.8397      1.00000
    102       0.9704      1.00000
    103       1.0000      1.00000
    104       1.0222      1.00000
    105       1.0881      1.00000
    106       1.1313      1.00000
    107       1.1456      1.00000
    108       1.1634      1.00000
    109       1.2507      1.00000
    110       1.3893      1.00000
    111       1.4257      1.00000
    112       1.4946      1.00000
    113       1.5043      1.00000
    114       3.5956      0.00000
    115       3.6317      0.00000
    116       3.6662      0.00000
    117       3.6855      0.00000
    118       3.7149      0.00000
    119       3.7375      0.00000
    120       3.8510      0.00000
    121       3.8542      0.00000
    122       3.9555      0.00000
    123       4.0608      0.00000
    124       4.1037      0.00000
    125       4.1148      0.00000
    126       4.1843      0.00000
    127       4.2155      0.00000
    128       4.2607      0.00000
    129       4.4608      0.00000
    130      10.0160      0.00000
    131      10.1381      0.00000
    132      11.4304      0.00000
    133      11.8400      0.00000
    134      11.9986      0.00000
    135      12.1666      0.00000
    136      12.2257      0.00000
    137      13.6765      0.00000
    138      13.8398      0.00000
    139      13.9080      0.00000
    140      13.9487      0.00000
    141      13.9598      0.00000
    142      14.0970      0.00000
    143      14.6737      0.00000
    144      14.7863      0.00000
    145      15.0151      0.00000
    146      15.6421      0.00000
    147      15.7520      0.00000
    148      15.9543      0.00000
    149      16.4483      0.00000
    150      16.6538      0.00000

 k-point     4 :       0.0000    0.2500    0.0000
  band No.  band energies     occupation 
      1     -48.4434      1.00000
      2     -48.3912      1.00000
      3     -48.3683      1.00000
      4     -48.3442      1.00000
      5     -48.3251      1.00000
      6     -48.3030      1.00000
      7     -48.2999      1.00000
      8     -48.2897      1.00000
      9     -48.2036      1.00000
     10     -48.1893      1.00000
     11     -48.1877      1.00000
     12     -48.1788      1.00000
     13     -48.1719      1.00000
     14     -48.1684      1.00000
     15     -48.1624      1.00000
     16     -48.1586      1.00000
     17     -48.1546      1.00000
     18     -48.1524      1.00000
     19     -48.1489      1.00000
     20     -48.1472      1.00000
     21     -48.1415      1.00000
     22     -48.1320      1.00000
     23     -48.1265      1.00000
     24     -48.1086      1.00000
     25     -41.6656      1.00000
     26     -17.4840      1.00000
     27     -17.0266      1.00000
     28     -16.7773      1.00000
     29     -16.3294      1.00000
     30     -16.1807      1.00000
     31     -16.1746      1.00000
     32     -15.9635      1.00000
     33     -15.8730      1.00000
     34     -15.8546      1.00000
     35     -15.8110      1.00000
     36     -15.7784      1.00000
     37     -15.7080      1.00000
     38     -15.6829      1.00000
     39     -15.5783      1.00000
     40     -15.5630      1.00000
     41     -15.5522      1.00000
     42      -4.9683      1.00000
     43      -4.4663      1.00000
     44      -4.4657      1.00000
     45      -4.3680      1.00000
     46      -4.1110      1.00000
     47      -3.9961      1.00000
     48      -3.9303      1.00000
     49      -3.9239      1.00000
     50      -3.9039      1.00000
     51      -3.7079      1.00000
     52      -3.6474      1.00000
     53      -3.6114      1.00000
     54      -3.5616      1.00000
     55      -3.3902      1.00000
     56      -3.2788      1.00000
     57      -3.2178      1.00000
     58      -3.1492      1.00000
     59      -3.0788      1.00000
     60      -3.0698      1.00000
     61      -2.9767      1.00000
     62      -2.9461      1.00000
     63      -2.9118      1.00000
     64      -2.8337      1.00000
     65      -2.7101      1.00000
     66      -2.6807      1.00000
     67      -2.4843      1.00000
     68      -2.2988      1.00000
     69      -1.9182      1.00000
     70      -1.9040      1.00000
     71      -1.8884      1.00000
     72      -1.6427      1.00000
     73      -1.6274      1.00000
     74      -1.4782      1.00000
     75      -1.3862      1.00000
     76      -1.3300      1.00000
     77      -1.2397      1.00000
     78      -1.1252      1.00000
     79      -1.0599      1.00000
     80      -0.9439      1.00000
     81      -0.6634      1.00000
     82      -0.6491      1.00000
     83      -0.6173      1.00000
     84      -0.5653      1.00000
     85      -0.3744      1.00000
     86      -0.2146      1.00000
     87      -0.1654      1.00000
     88       0.0254      1.00000
     89       0.0578      1.00000
     90       0.1672      1.00000
     91       0.2929      1.00000
     92       0.3538      1.00000
     93       0.3686      1.00000
     94       0.3931      1.00000
     95       0.4454      1.00000
     96       0.5075      1.00000
     97       0.5964      1.00000
     98       0.6056      1.00000
     99       0.6430      1.00000
    100       0.6952      1.00000
    101       0.7534      1.00000
    102       0.8228      1.00000
    103       0.8390      1.00000
    104       0.9461      1.00000
    105       1.0954      1.00000
    106       1.1318      1.00000
    107       1.2004      1.00000
    108       1.2742      1.00000
    109       1.3138      1.00000
    110       1.3819      1.00000
    111       1.4175      1.00000
    112       1.4916      1.00000
    113       1.5666      1.00000
    114       3.4265      0.00000
    115       3.4484      0.00000
    116       3.6964      0.00000
    117       3.7506      0.00000
    118       3.7638      0.00000
    119       3.7776      0.00000
    120       3.8680      0.00000
    121       3.9074      0.00000
    122       3.9162      0.00000
    123       4.0913      0.00000
    124       4.2546      0.00000
    125       4.2830      0.00000
    126       4.3097      0.00000
    127       4.3641      0.00000
    128       4.4144      0.00000
    129       4.4893      0.00000
    130       8.9214      0.00000
    131      11.2392      0.00000
    132      11.3027      0.00000
    133      11.6761      0.00000
    134      11.9811      0.00000
    135      12.0621      0.00000
    136      12.2032      0.00000
    137      12.7785      0.00000
    138      13.1807      0.00000
    139      13.5653      0.00000
    140      13.6872      0.00000
    141      13.7119      0.00000
    142      14.1848      0.00000
    143      14.6041      0.00000
    144      15.2185      0.00000
    145      15.5518      0.00000
    146      15.6550      0.00000
    147      15.9373      0.00000
    148      16.1549      0.00000
    149      16.4978      0.00000
    150      16.6870      0.00000

 k-point     5 :       0.2500    0.2500    0.0000
  band No.  band energies     occupation 
      1     -48.4355      1.00000
      2     -48.3866      1.00000
      3     -48.3699      1.00000
      4     -48.3459      1.00000
      5     -48.3294      1.00000
      6     -48.3064      1.00000
      7     -48.2961      1.00000
      8     -48.2873      1.00000
      9     -48.2011      1.00000
     10     -48.1895      1.00000
     11     -48.1874      1.00000
     12     -48.1795      1.00000
     13     -48.1722      1.00000
     14     -48.1692      1.00000
     15     -48.1672      1.00000
     16     -48.1588      1.00000
     17     -48.1578      1.00000
     18     -48.1515      1.00000
     19     -48.1486      1.00000
     20     -48.1453      1.00000
     21     -48.1403      1.00000
     22     -48.1310      1.00000
     23     -48.1278      1.00000
     24     -48.1131      1.00000
     25     -41.6656      1.00000
     26     -17.3886      1.00000
     27     -16.9846      1.00000
     28     -16.8166      1.00000
     29     -16.4297      1.00000
     30     -16.1739      1.00000
     31     -16.1647      1.00000
     32     -15.9401      1.00000
     33     -15.8748      1.00000
     34     -15.8503      1.00000
     35     -15.8175      1.00000
     36     -15.7586      1.00000
     37     -15.7082      1.00000
     38     -15.7048      1.00000
     39     -15.5996      1.00000
     40     -15.5868      1.00000
     41     -15.5776      1.00000
     42      -4.8032      1.00000
     43      -4.2933      1.00000
     44      -4.2735      1.00000
     45      -4.2307      1.00000
     46      -4.0363      1.00000
     47      -3.9570      1.00000
     48      -3.9285      1.00000
     49      -3.8858      1.00000
     50      -3.8471      1.00000
     51      -3.8114      1.00000
     52      -3.6250      1.00000
     53      -3.6026      1.00000
     54      -3.5345      1.00000
     55      -3.4610      1.00000
     56      -3.3637      1.00000
     57      -3.2113      1.00000
     58      -3.1977      1.00000
     59      -3.1567      1.00000
     60      -3.0158      1.00000
     61      -2.9989      1.00000
     62      -2.9908      1.00000
     63      -2.8954      1.00000
     64      -2.7244      1.00000
     65      -2.7144      1.00000
     66      -2.6972      1.00000
     67      -2.6428      1.00000
     68      -2.2669      1.00000
     69      -2.1363      1.00000
     70      -1.8891      1.00000
     71      -1.8411      1.00000
     72      -1.7499      1.00000
     73      -1.5654      1.00000
     74      -1.5241      1.00000
     75      -1.5091      1.00000
     76      -1.4701      1.00000
     77      -1.3449      1.00000
     78      -1.2816      1.00000
     79      -1.1426      1.00000
     80      -1.1310      1.00000
     81      -0.7943      1.00000
     82      -0.7827      1.00000
     83      -0.5575      1.00000
     84      -0.5481      1.00000
     85      -0.4486      1.00000
     86      -0.3585      1.00000
     87      -0.1062      1.00000
     88       0.0922      1.00000
     89       0.1199      1.00000
     90       0.2289      1.00000
     91       0.3324      1.00000
     92       0.4074      1.00000
     93       0.4098      1.00000
     94       0.4224      1.00000
     95       0.4965      1.00000
     96       0.5027      1.00000
     97       0.5872      1.00000
     98       0.6567      1.00000
     99       0.6601      1.00000
    100       0.8163      1.00000
    101       0.8901      1.00000
    102       0.8928      1.00000
    103       0.9589      1.00000
    104       1.0030      1.00000
    105       1.0233      1.00000
    106       1.0721      1.00000
    107       1.2801      1.00000
    108       1.3098      1.00000
    109       1.3889      1.00000
    110       1.4775      1.00000
    111       1.4981      1.00000
    112       1.5064      1.00000
    113       1.5261      1.00000
    114       3.4898      0.00000
    115       3.4934      0.00000
    116       3.5425      0.00000
    117       3.6362      0.00000
    118       3.6881      0.00000
    119       3.7963      0.00000
    120       3.8430      0.00000
    121       3.8646      0.00000
    122       3.9269      0.00000
    123       4.0133      0.00000
    124       4.1105      0.00000
    125       4.1557      0.00000
    126       4.2079      0.00000
    127       4.2607      0.00000
    128       4.3702      0.00000
    129       4.4412      0.00000
    130       9.3944      0.00000
    131      11.4124      0.00000
    132      11.5466      0.00000
    133      11.6384      0.00000
    134      11.8820      0.00000
    135      12.4286      0.00000
    136      12.5569      0.00000
    137      12.5787      0.00000
    138      12.7608      0.00000
    139      13.7035      0.00000
    140      14.0601      0.00000
    141      14.0900      0.00000
    142      14.4170      0.00000
    143      14.8055      0.00000
    144      15.1319      0.00000
    145      15.2681      0.00000
    146      15.5281      0.00000
    147      16.2490      0.00000
    148      16.2907      0.00000
    149      16.4123      0.00000
    150      16.6439      0.00000

 k-point     6 :       0.5000    0.2500    0.0000
  band No.  band energies     occupation 
      1     -48.4255      1.00000
      2     -48.3870      1.00000
      3     -48.3672      1.00000
      4     -48.3484      1.00000
      5     -48.3340      1.00000
      6     -48.3086      1.00000
      7     -48.2939      1.00000
      8     -48.2850      1.00000
      9     -48.1953      1.00000
     10     -48.1889      1.00000
     11     -48.1883      1.00000
     12     -48.1835      1.00000
     13     -48.1763      1.00000
     14     -48.1712      1.00000
     15     -48.1659      1.00000
     16     -48.1618      1.00000
     17     -48.1589      1.00000
     18     -48.1515      1.00000
     19     -48.1470      1.00000
     20     -48.1448      1.00000
     21     -48.1363      1.00000
     22     -48.1310      1.00000
     23     -48.1288      1.00000
     24     -48.1189      1.00000
     25     -41.6656      1.00000
     26     -17.1805      1.00000
     27     -17.1282      1.00000
     28     -16.6655      1.00000
     29     -16.6523      1.00000
     30     -16.1670      1.00000
     31     -16.1459      1.00000
     32     -15.9181      1.00000
     33     -15.8643      1.00000
     34     -15.8529      1.00000
     35     -15.8169      1.00000
     36     -15.7479      1.00000
     37     -15.7345      1.00000
     38     -15.6913      1.00000
     39     -15.6238      1.00000
     40     -15.6154      1.00000
     41     -15.6112      1.00000
     42      -4.4355      1.00000
     43      -4.4238      1.00000
     44      -4.0836      1.00000
     45      -3.9617      1.00000
     46      -3.9595      1.00000
     47      -3.9224      1.00000
     48      -3.8386      1.00000
     49      -3.8269      1.00000
     50      -3.7566      1.00000
     51      -3.7428      1.00000
     52      -3.6801      1.00000
     53      -3.6386      1.00000
     54      -3.5874      1.00000
     55      -3.5779      1.00000
     56      -3.4101      1.00000
     57      -3.3768      1.00000
     58      -3.2359      1.00000
     59      -3.2034      1.00000
     60      -2.9844      1.00000
     61      -2.9811      1.00000
     62      -2.9354      1.00000
     63      -2.8836      1.00000
     64      -2.8006      1.00000
     65      -2.6746      1.00000
     66      -2.5362      1.00000
     67      -2.5052      1.00000
     68      -2.3011      1.00000
     69      -2.2193      1.00000
     70      -2.1517      1.00000
     71      -1.9758      1.00000
     72      -1.9388      1.00000
     73      -1.9100      1.00000
     74      -1.7579      1.00000
     75      -1.6201      1.00000
     76      -1.5322      1.00000
     77      -1.4870      1.00000
     78      -1.1892      1.00000
     79      -1.0218      1.00000
     80      -1.0075      1.00000
     81      -1.0009      1.00000
     82      -0.9676      1.00000
     83      -0.8398      1.00000
     84      -0.3496      1.00000
     85      -0.2995      1.00000
     86      -0.2101      1.00000
     87      -0.0800      1.00000
     88      -0.0573      1.00000
     89      -0.0278      1.00000
     90       0.4100      1.00000
     91       0.4307      1.00000
     92       0.4515      1.00000
     93       0.4640      1.00000
     94       0.5206      1.00000
     95       0.5276      1.00000
     96       0.5511      1.00000
     97       0.5801      1.00000
     98       0.6405      1.00000
     99       0.6768      1.00000
    100       0.7767      1.00000
    101       0.8580      1.00000
    102       0.9363      1.00000
    103       1.0384      1.00000
    104       1.0806      1.00000
    105       1.1508      1.00000
    106       1.2425      1.00000
    107       1.3192      1.00000
    108       1.3752      1.00000
    109       1.4253      1.00000
    110       1.4678      1.00000
    111       1.4687      1.00000
    112       1.5331      1.00000
    113       1.5682      1.00000
    114       3.3171      0.00000
    115       3.3873      0.00000
    116       3.5592      0.00000
    117       3.6074      0.00000
    118       3.7042      0.00000
    119       3.7391      0.00000
    120       3.7593      0.00000
    121       3.8423      0.00000
    122       3.8844      0.00000
    123       3.9214      0.00000
    124       3.9430      0.00000
    125       4.0334      0.00000
    126       4.2358      0.00000
    127       4.2902      0.00000
    128       4.2967      0.00000
    129       4.3606      0.00000
    130      10.4071      0.00000
    131      10.5434      0.00000
    132      11.7178      0.00000
    133      11.9435      0.00000
    134      12.0522      0.00000
    135      12.3220      0.00000
    136      12.4651      0.00000
    137      12.9992      0.00000
    138      13.5252      0.00000
    139      13.5782      0.00000
    140      14.0907      0.00000
    141      14.2348      0.00000
    142      14.4661      0.00000
    143      14.7091      0.00000
    144      14.7724      0.00000
    145      15.6431      0.00000
    146      15.8144      0.00000
    147      15.9466      0.00000
    148      16.1695      0.00000
    149      16.3347      0.00000
    150      16.5318      0.00000

 k-point     7 :      -0.2500    0.2500    0.0000
[...]
    103       3.6497      0.00000
    104       3.6710      0.00000
    105       3.6972      0.00000
    106       3.7063      0.00000
    107       3.7383      0.00000
    108       3.7931      0.00000
    109       3.8170      0.00000
    110       3.8913      0.00000
    111       3.9350      0.00000
    112       3.9628      0.00000
    113       3.9771      0.00000
    114       5.1089      0.00000
    115       5.1583      0.00000
    116       5.2163      0.00000
    117       5.2821      0.00000
    118       5.3130      0.00000
    119       5.3254      0.00000
    120       5.3665      0.00000
    121       5.3823      0.00000
    122       5.4045      0.00000
    123       5.4366      0.00000
    124       5.5165      0.00000
    125       5.5987      0.00000
    126       5.6735      0.00000
    127       5.6935      0.00000
    128       5.7415      0.00000
    129       5.7800      0.00000
    130       9.9851      0.00000
    131      10.9180      0.00000
    132      11.6108      0.00000
    133      11.8107      0.00000
    134      12.1572      0.00000
    135      12.5959      0.00000
    136      13.1215      0.00000
    137      13.2229      0.00000
    138      13.7484      0.00000
    139      14.1499      0.00000
    140      14.3877      0.00000
    141      14.4677      0.00000
    142      14.7563      0.00000
    143      15.0661      0.00000
    144      15.3330      0.00000
    145      15.4949      0.00000
    146      15.9254      0.00000
    147      16.1725      0.00000
    148      16.4290      0.00000
    149      16.6372      0.00000
    150      17.0902      0.00000


--------------------------------------------------------------------------------------------------------


 soft charge-density along one line, spin component           1
         0         1         2         3         4         5         6         7         8         9
 total charge-density along one line
 
 soft charge-density along one line, spin component           2
         0         1         2         3         4         5         6         7         8         9
 total charge-density along one line
 
 pseudopotential strength for first ion, spin component:           1
-49.627   9.581  -0.000  -0.000  -0.000  -0.000  -0.000  -0.000
  9.581  -0.621   0.000   0.000   0.000   0.000   0.000   0.000
 -0.000   0.000  -0.518  -0.000   0.000   0.265  -0.000  -0.000
 -0.000   0.000  -0.000  -0.518  -0.000  -0.000   0.265  -0.000
 -0.000   0.000   0.000  -0.000  -0.518  -0.000  -0.000   0.265
 -0.000   0.000   0.265  -0.000  -0.000   1.932  -0.000  -0.000
 -0.000   0.000  -0.000   0.265  -0.000  -0.000   1.932  -0.000
 -0.000   0.000  -0.000  -0.000   0.265  -0.000  -0.000   1.932
 pseudopotential strength for first ion, spin component:           2
-49.622   9.580   0.000  -0.000  -0.000   0.000  -0.000  -0.000
  9.580  -0.620  -0.000   0.000   0.000  -0.000   0.000   0.000
  0.000  -0.000  -0.509   0.000   0.000   0.259   0.000   0.000
 -0.000   0.000   0.000  -0.509  -0.000   0.000   0.259  -0.000
 -0.000   0.000   0.000  -0.000  -0.509   0.000  -0.000   0.259
  0.000  -0.000   0.259   0.000   0.000   1.935   0.000   0.000
 -0.000   0.000   0.000   0.259  -0.000   0.000   1.935  -0.000
 -0.000   0.000   0.000  -0.000   0.259   0.000  -0.000   1.935
 total augmentation occupancy for first ion, spin component:           1
  2.016   0.110   0.000  -0.000   0.000   0.000   0.000  -0.000
  0.110   0.777   0.000  -0.000   0.000  -0.000   0.000  -0.000
  0.000   0.000   0.088   0.000  -0.000  -0.016  -0.000   0.000
 -0.000  -0.000   0.000   0.090   0.000   0.000  -0.016  -0.000
  0.000   0.000  -0.000   0.000   0.088   0.000  -0.000  -0.016
  0.000  -0.000  -0.016   0.000   0.000   0.003  -0.000  -0.000
  0.000   0.000  -0.000  -0.016  -0.000  -0.000   0.003   0.000
 -0.000  -0.000   0.000  -0.000  -0.016  -0.000   0.000   0.003
 total augmentation occupancy for first ion, spin component:           2
  0.001   0.005   0.000  -0.000   0.000   0.000   0.000   0.000
  0.005   0.032   0.000  -0.000   0.000   0.000   0.000  -0.000
  0.000   0.000   0.003   0.000   0.000  -0.000   0.000   0.000
 -0.000  -0.000   0.000   0.003   0.000  -0.000  -0.000  -0.000
  0.000   0.000   0.000   0.000   0.003   0.000   0.000  -0.000
  0.000   0.000  -0.000  -0.000   0.000   0.000  -0.000  -0.000
  0.000   0.000   0.000  -0.000   0.000  -0.000   0.000  -0.000
  0.000  -0.000   0.000  -0.000  -0.000  -0.000  -0.000   0.000


------------------------ aborting loop because EDIFF is reached ----------------------------------------


 


 total charge     
 
# of ion       s       p       d       tot
------------------------------------------
    1        2.081   0.213   0.000   2.294
    2        0.342   6.443   4.859  11.644
    3        0.343   6.445   4.854  11.642
    4        0.342   6.444   4.866  11.652
    5        0.343   6.445   4.852  11.640
    6        0.343   6.445   4.858  11.646
    7        0.342   6.444   4.875  11.662
    8        0.343   6.445   4.859  11.647
    9        0.342   6.444   4.870  11.656
   10        1.581   3.399   0.000   4.980
   11        1.581   3.398   0.000   4.979
   12        1.581   3.398   0.000   4.979
   13        1.569   3.466   0.000   5.035
   14        1.569   3.466   0.000   5.035
   15        1.583   3.395   0.000   4.978
   16        1.581   3.398   0.000   4.979
   17        1.583   3.396   0.000   4.979
   18        1.582   3.398   0.000   4.979
   19        1.582   3.398   0.000   4.980
   20        1.582   3.398   0.000   4.980
   21        1.583   3.395   0.000   4.977
   22        1.583   3.394   0.000   4.977
   23        1.569   3.465   0.000   5.034
   24        1.582   3.397   0.000   4.979
   25        1.569   3.465   0.000   5.034
--------------------------------------------------
tot         30.082 106.393  38.894 175.370
 


 magnetization (x)
 
# of ion       s       p       d       tot
------------------------------------------
    1        0.003   0.007   0.000   0.011
    2        0.029   0.034   2.672   2.735
    3        0.030   0.035   2.718   2.783
    4        0.029   0.034   2.671   2.734
    5        0.030   0.035   2.718   2.783
    6        0.030   0.035   2.715   2.780
    7        0.029   0.034   2.666   2.729
    8        0.030   0.035   2.715   2.780
    9        0.029   0.034   2.668   2.731
   10        0.003   0.009   0.000   0.011
   11        0.003   0.009   0.000   0.011
   12        0.003   0.008   0.000   0.011
   13        0.001   0.017   0.000   0.017
   14        0.001   0.017   0.000   0.018
   15        0.003   0.020   0.000   0.023
   16        0.003   0.008   0.000   0.011
   17        0.003   0.019   0.000   0.023
   18        0.003   0.009   0.000   0.012
   19        0.003   0.009   0.000   0.012
   20        0.003   0.009   0.000   0.012
   21        0.003   0.020   0.000   0.023
   22        0.003   0.020   0.000   0.023
   23        0.001   0.017   0.000   0.018
   24        0.003   0.009   0.000   0.012
   25        0.001   0.017   0.000   0.018
--------------------------------------------------
tot          0.282   0.497  21.542  22.321
 
    CHARGE:  cpu time    2.0454: real time    2.0528
    FORLOC:  cpu time    0.0280: real time    0.0281
    FORNL :  cpu time   19.7702: real time   19.8765
    STRESS:  cpu time   59.0791: real time   59.4101
    FORCOR:  cpu time    0.2533: real time    0.2543
    FORHAR:  cpu time    0.0566: real time    0.0569
    MIXING:  cpu time    0.0081: real time    0.0081
    OFIELD:  cpu time    0.0000: real time    0.0001

  FORCE on cell =-STRESS in cart. coord.  units (eV):
  Direction    XX          YY          ZZ          XY          YZ          ZX
  --------------------------------------------------------------------------------------
  Alpha Z  1096.51131  1096.51131  1096.51131
  Ewald   -4524.85729 -4524.72454 -4505.96229    -0.00000    -0.00622     0.24722
  Hartree  2844.41257  2845.16864  2859.86761     0.01204     0.43935     0.72701
  E(xc)   -1110.68302 -1110.68170 -1110.68836     0.00027     0.00023     0.00055
  Local   -1205.04994 -1205.96095 -1238.77858    -0.02050    -0.49571    -1.05012
  n-local  -910.07070  -910.07616  -910.03529     0.00156     0.00141    -0.00021
  augment   599.08431   599.06837   598.77254     0.00660    -0.00058    -0.00113
  Kinetic  3212.53359  3212.47205  3211.38128     0.00631    -0.00663    -0.01074
  Fock        0.00000     0.00000     0.00000     0.00000     0.00000     0.00000
  -------------------------------------------------------------------------------------
  Total       1.88082     1.77704     1.06822     0.00628    -0.06815    -0.08742
  in kB      11.02223    10.41405     6.26015     0.03678    -0.39938    -0.51229
  external pressure =        9.23 kB  Pullay stress =        0.00 kB


 VOLUME and BASIS-vectors are now :
 -----------------------------------------------------------------------------
  energy-cutoff  :      520.00
  volume of cell :      273.39
      direct lattice vectors                 reciprocal lattice vectors
     5.770635000  0.000000000  0.000000000     0.173291154  0.000000000  0.000000000
     0.000000000  5.770635000  0.000000000     0.000000000  0.173291154  0.000000000
     0.000000000  0.000000000  8.209947000     0.000000000  0.000000000  0.121803466

  length of vectors
     5.770635000  5.770635000  8.209947000     0.173291154  0.173291154  0.121803466


 FORCES acting on ions
    electron-ion (+dipol)            ewald-force                    non-local-force                 convergence-correction
 -----------------------------------------------------------------------------------------------
   0.135E+00 -.542E-02 0.180E-01   -.121E+00 -.305E-02 0.326E-01   -.419E-02 0.315E-03 0.214E-02   -.130E-01 0.775E-02 -.529E-01
   0.188E+02 0.166E-01 0.264E+02   -.201E+02 0.939E-03 -.269E+02   0.405E+00 0.251E-02 0.517E+00   0.850E-01 -.203E-01 -.668E-01
   0.531E-01 -.108E+02 0.313E+02   -.860E-02 0.110E+02 -.329E+02   0.253E-02 -.263E+00 0.600E+00   -.461E-01 0.622E-01 0.321E+00
   -.188E+02 0.172E-01 0.264E+02   0.201E+02 0.940E-03 -.269E+02   -.405E+00 0.302E-02 0.516E+00   -.841E-01 -.196E-01 -.669E-01
   0.499E-01 0.108E+02 0.313E+02   -.860E-02 -.110E+02 -.329E+02   0.144E-02 0.262E+00 0.599E+00   -.421E-01 -.617E-01 0.331E+00
   -.106E+02 -.270E-01 -.317E+02   0.110E+02 -.216E-03 0.329E+02   -.254E+00 -.139E-02 -.612E+00   -.104E+00 0.282E-01 0.104E+00
   -.798E-01 0.190E+02 -.260E+02   0.373E-01 -.201E+02 0.269E+02   -.495E-02 0.413E+00 -.504E+00   0.468E-01 -.131E+00 -.337E+00
   0.106E+02 -.261E-01 -.317E+02   -.110E+02 -.216E-03 0.328E+02   0.253E+00 -.406E-03 -.613E+00   0.105E+00 0.261E-01 0.112E+00
   -.768E-01 -.190E+02 -.260E+02   0.373E-01 0.201E+02 0.269E+02   -.132E-02 -.412E+00 -.505E+00   0.410E-01 0.126E+00 -.332E+00
   -.135E+00 0.344E+03 0.258E+03   0.164E-01 -.364E+03 -.272E+03   -.118E-01 0.201E+02 0.144E+02   0.128E+00 0.230E+00 -.293E-01
   0.344E+03 0.793E-01 -.257E+03   -.364E+03 0.412E-03 0.272E+03   0.201E+02 0.716E-02 -.144E+02   -.541E-01 -.857E-01 -.222E+00
   -.344E+03 0.774E-01 -.257E+03   0.364E+03 0.411E-03 0.272E+03   -.201E+02 0.644E-02 -.144E+02   0.780E-01 -.820E-01 -.364E+00
   0.142E+00 -.315E+03 -.211E+03   -.272E-01 0.330E+03 0.222E+03   0.117E-01 -.141E+02 -.956E+01   -.125E+00 -.180E+00 -.967E-01
   0.141E+00 0.315E+03 -.212E+03   -.272E-01 -.330E+03 0.222E+03   0.125E-01 0.141E+02 -.956E+01   -.126E+00 0.182E+00 -.581E-01
   -.355E+03 -.214E-01 0.257E+03   0.376E+03 0.104E-03 -.272E+03   -.206E+02 -.248E-02 0.145E+02   -.180E+00 0.233E-01 0.196E+00
   -.135E+00 -.344E+03 0.258E+03   0.164E-01 0.364E+03 -.272E+03   -.973E-02 -.201E+02 0.144E+02   0.126E+00 -.244E+00 -.129E+00
   0.355E+03 -.199E-01 0.257E+03   -.376E+03 0.104E-03 -.272E+03   0.206E+02 -.153E-02 0.145E+02   0.159E+00 0.206E-01 0.345E+00
   -.819E-02 0.357E+03 0.233E+03   -.376E-02 -.378E+03 -.247E+03   -.113E-02 0.206E+02 0.139E+02   0.128E-01 0.564E-02 0.172E+00
   0.357E+03 0.182E-01 -.234E+03   -.378E+03 -.945E-04 0.247E+03   0.206E+02 0.818E-03 -.139E+02   0.180E+00 -.194E-01 0.136E+00
   -.357E+03 0.216E-01 -.234E+03   0.378E+03 -.946E-04 0.247E+03   -.206E+02 0.132E-02 -.139E+02   -.183E+00 -.220E-01 0.992E-01
   0.798E-02 -.356E+03 -.257E+03   0.415E-02 0.376E+03 0.272E+03   0.194E-02 -.206E+02 -.145E+02   -.139E-01 -.135E-01 -.198E-01
   0.555E-02 0.356E+03 -.258E+03   0.415E-02 -.376E+03 0.272E+03   0.119E-03 0.206E+02 -.145E+02   -.107E-01 0.266E-01 0.793E-01
   -.315E+03 -.768E-01 0.212E+03   0.330E+03 -.682E-03 -.222E+03   -.142E+02 -.676E-02 0.957E+01   0.925E-01 0.842E-01 -.132E+00
   -.728E-02 -.357E+03 0.233E+03   -.376E-02 0.378E+03 -.247E+03   -.836E-03 -.206E+02 0.139E+02   0.115E-01 -.705E-02 0.130E+00
   0.315E+03 -.788E-01 0.212E+03   -.330E+03 -.684E-03 -.222E+03   0.142E+02 -.692E-02 0.956E+01   -.917E-01 0.859E-01 -.943E-01
 -----------------------------------------------------------------------------------------------
   0.173E-01 -.236E-01 -.253E-01   -.568E-13 0.284E-13 0.426E-12   -.132E-01 0.151E-02 0.537E-02   -.837E-02 0.227E-01 0.264E-01
 
 
 POSITION                                       TOTAL-FORCE (eV/Angst)
 -----------------------------------------------------------------------------------
      0.00092      0.00002      4.10473        -0.003087     -0.000431     -0.000307
      4.32798      2.88532      3.07873        -0.798969     -0.000272     -0.114754
      0.00000      1.44266      1.02624         0.001099      0.057272     -0.626635
      1.44266      2.88532      3.07873         0.799418      0.001546     -0.116193
      0.00000      4.32798      1.02624         0.000898     -0.056935     -0.626414
      1.44266      0.00000      7.18370         0.060681     -0.000434      0.620202
      2.88532      4.32798      5.13122        -0.000434     -0.797722      0.122102
      4.32798      0.00000      7.18370        -0.059507     -0.000627      0.619052
      2.88532      1.44266      5.13122         0.000386      0.795115      0.121325
      2.88532      1.61105      3.20805        -0.003036      0.022672     -0.007433
      1.61105      2.88532      5.00189         0.021371      0.001183      0.011401
      4.15959      2.88532      5.00189        -0.023696      0.002171      0.012201
      0.00000      4.15959      2.94941         0.001695      0.447533      0.405825
      0.00000      1.61105      2.94941         0.001044     -0.447870      0.404788
      1.27427      2.88532      1.15557        -0.087496     -0.000490      0.126171
      2.88532      4.15959      3.20805        -0.001703     -0.020230     -0.007342
      4.49636      2.88532      1.15557         0.091529     -0.000802      0.125387
      0.00000      4.49636      7.31303        -0.000146      0.024638      0.011740
      4.49636      0.00000      0.89692         0.022413     -0.000430     -0.015312
      1.27427      0.00000      0.89692        -0.023543      0.000775     -0.015148
      2.88532      1.27427      7.05438         0.000358     -0.085409     -0.124832
      2.88532      4.49636      7.05438        -0.000693      0.083251     -0.124728
      4.15959      0.00000      5.26054         0.448876     -0.000047     -0.407905
      0.00000      1.27427      7.31303        -0.000206     -0.023959      0.013357
      1.61105      0.00000      5.26054        -0.447251     -0.000500     -0.406548
 -----------------------------------------------------------------------------------
    total drift:                               -0.004265      0.000579      0.006444


--------------------------------------------------------------------------------------------------------



  FREE ENERGIE OF THE ION-ELECTRON SYSTEM (eV)
  ---------------------------------------------------
  free  energy   TOTEN  =      -196.51819129 eV

  energy  without entropy=     -196.51819129  energy(sigma->0) =     -196.51819129
 


--------------------------------------------------------------------------------------------------------


    POTLOK:  cpu time    0.2889: real time    0.2906


--------------------------------------------------------------------------------------------------------


     LOOP+:  cpu time  596.6243: real time  600.0268
    4ORBIT:  cpu time    0.0000: real time    0.0000
 


 total charge     
 
# of ion       s       p       d       tot
------------------------------------------
    1        2.081   0.213   0.000   2.294
    2        0.342   6.443   4.859  11.644
    3        0.343   6.445   4.854  11.642
    4        0.342   6.444   4.866  11.652
    5        0.343   6.445   4.852  11.640
    6        0.343   6.445   4.858  11.646
    7        0.342   6.444   4.875  11.662
    8        0.343   6.445   4.859  11.647
    9        0.342   6.444   4.870  11.656
   10        1.581   3.399   0.000   4.980
   11        1.581   3.398   0.000   4.979
   12        1.581   3.398   0.000   4.979
   13        1.569   3.466   0.000   5.035
   14        1.569   3.466   0.000   5.035
   15        1.583   3.395   0.000   4.978
   16        1.581   3.398   0.000   4.979
   17        1.583   3.396   0.000   4.979
   18        1.582   3.398   0.000   4.979
   19        1.582   3.398   0.000   4.980
   20        1.582   3.398   0.000   4.980
   21        1.583   3.395   0.000   4.977
   22        1.583   3.394   0.000   4.977
   23        1.569   3.465   0.000   5.034
   24        1.582   3.397   0.000   4.979
   25        1.569   3.465   0.000   5.034
--------------------------------------------------
tot         30.082 106.393  38.894 175.370
 


 magnetization (x)
 
# of ion       s       p       d       tot
------------------------------------------
    1        0.003   0.007   0.000   0.011
    2        0.029   0.034   2.672   2.735
    3        0.030   0.035   2.718   2.783
    4        0.029   0.034   2.671   2.734
    5        0.030   0.035   2.718   2.783
    6        0.030   0.035   2.715   2.780
    7        0.029   0.034   2.666   2.729
    8        0.030   0.035   2.715   2.780
    9        0.029   0.034   2.668   2.731
   10        0.003   0.009   0.000   0.011
   11        0.003   0.009   0.000   0.011
   12        0.003   0.008   0.000   0.011
   13        0.001   0.017   0.000   0.017
   14        0.001   0.017   0.000   0.018
   15        0.003   0.020   0.000   0.023
   16        0.003   0.008   0.000   0.011
   17        0.003   0.019   0.000   0.023
   18        0.003   0.009   0.000   0.012
   19        0.003   0.009   0.000   0.012
   20        0.003   0.009   0.000   0.012
   21        0.003   0.020   0.000   0.023
   22        0.003   0.020   0.000   0.023
   23        0.001   0.017   0.000   0.018
   24        0.003   0.009   0.000   0.012
   25        0.001   0.017   0.000   0.018
--------------------------------------------------
tot          0.282   0.497  21.542  22.321
 
 BZINTS: Fermi energy:  2.679010;203.000000 electrons
         Band energy:***********;  BLOECHL correction: -0.034297

 total amount of memory used by VASP MPI-rank0   244218. kBytes
=======================================================================

   base      :      30000. kBytes
   nonlr-proj:      17010. kBytes
   fftplans  :       7295. kBytes
   grid      :      29392. kBytes
   one-center:        777. kBytes
   wavefun   :     159744. kBytes
 
  
  
 General timing and accounting informations for this job:
 ========================================================
  
                  Total CPU time used (sec):      616.789
                            User time (sec):      608.522
                          System time (sec):        8.267
                         Elapsed time (sec):      620.259
  
                   Maximum memory used (kb):   477806592.
                   Average memory used (kb):           0.
  
                          Minor page faults:       121533
                          Major page faults:          224
                 Voluntary context switches:           33
