 vasp.5.4.4.18Apr17-6-g9f103f2a35 (build Aug 22 2019 09:35:51) complex          
  
 executed on             LinuxIFC date 2021.04.26  18:22:11
 running on    6 total cores
 distrk:  each k-point on    6 cores,    1 groups
 distr:  one band on NCORES_PER_BAND=   1 cores,    6 groups


--------------------------------------------------------------------------------------------------------


 INCAR:
 POTCAR:   PAW_PBE Li_sv 23Jan2001                
 POTCAR:   PAW_PBE Mn_pv 07Sep2000                
 POTCAR:   PAW_PBE O 08Apr2002                    

 ----------------------------------------------------------------------------- 
|                                                                             |
|           W    W    AA    RRRRR   N    N  II  N    N   GGGG   !!!           |
|           W    W   A  A   R    R  NN   N  II  NN   N  G    G  !!!           |
|           W    W  A    A  R    R  N N  N  II  N N  N  G       !!!           |
|           W WW W  AAAAAA  RRRRR   N  N N  II  N  N N  G  GGG   !            |
|           WW  WW  A    A  R   R   N   NN  II  N   NN  G    G                |
|           W    W  A    A  R    R  N    N  II  N    N   GGGG   !!!           |
|                                                                             |
|      For optimal performance we recommend to set                            |
|        NCORE= 4 - approx SQRT( number of cores)                             |
|      NCORE specifies how many cores store one orbital (NPAR=cpu/NCORE).     |
|      This setting can  greatly improve the performance of VASP for DFT.     |
|      The default,   NCORE=1            might be grossly inefficient         |
|      on modern multi-core architectures or massively parallel machines.     |
|      Do your own testing !!!!                                               |
|      Unfortunately you need to use the default for GW and RPA calculations. |
|      (for HF NCORE is supported but not extensively tested yet)             |
|                                                                             |
 ----------------------------------------------------------------------------- 

 POTCAR:   PAW_PBE Li_sv 23Jan2001                
   VRHFIN =Li: 1s2s2p                                                           
   LEXCH  = PE                                                                  
   EATOM  =   202.7858 eV,   14.9043 Ry                                         
                                                                                
   TITEL  = PAW_PBE Li_sv 23Jan2001                                             
   LULTRA =        F    use ultrasoft PP ?                                      
   IUNSCR =        0    unscreen: 0-lin 1-nonlin 2-no                           
   RPACOR =     .000    partial core radius                                     
   POMASS =    7.010; ZVAL   =    3.000    mass and valenz                      
   RCORE  =    2.050    outmost cutoff radius                                   
   RWIGS  =    2.050; RWIGS  =    1.085    wigner-seitz radius (au A)           
   ENMAX  =  271.649; ENMIN  =  203.737 eV                                      
   ICORE  =        2    local potential                                         
   LCOR   =        T    correct aug charges                                     
   LPAW   =        T    paw PP                                                  
   EAUG   =  428.394                                                            
   RMAX   =    2.797    core radius for proj-oper                               
   RAUG   =    1.300    factor for augmentation sphere                          
   RDEP   =    2.094    radius for radial grids                                 
   RDEPT  =    1.550    core radius for aug-charge                              
   QCUT   =   -4.468; QGAM   =    8.937    optimization parameters              
                                                                                
   Description                                                                  
     l     E      TYP  RCUT    TYP  RCUT                                        
     0   .000     23  1.550                                                     
     0   .000     23  2.050                                                     
     0   .000     23  1.550                                                     
     0   .000     23  2.050                                                     
     1  -.200     23  2.050                                                     
     1  1.500     23  2.050                                                     
     2   .000      7  1.550                                                     
  local pseudopotential read in
  atomic valenz-charges read in
  non local Contribution for L=           0  read in
    real space projection operators read in
  non local Contribution for L=           0  read in
    real space projection operators read in
  non local Contribution for L=           1  read in
    real space projection operators read in
  non local Contribution for L=           1  read in
    real space projection operators read in
    PAW grid and wavefunctions read in
 
   number of l-projection  operators is LMAX  =           4
   number of lm-projection operators is LMMAX =           8
 
 POTCAR:   PAW_PBE Mn_pv 07Sep2000                
   VRHFIN =Mn: 3p4s3d                                                           
   LEXCH  = PE                                                                  
   EATOM  =  2024.8347 eV,  148.8212 Ry                                         
                                                                                
   TITEL  = PAW_PBE Mn_pv 07Sep2000                                             
   LULTRA =        F    use ultrasoft PP ?                                      
   IUNSCR =        1    unscreen: 0-lin 1-nonlin 2-no                           
   RPACOR =    2.080    partial core radius                                     
   POMASS =   54.938; ZVAL   =   13.000    mass and valenz                      
   RCORE  =    2.300    outmost cutoff radius                                   
   RWIGS  =    2.500; RWIGS  =    1.323    wigner-seitz radius (au A)           
   ENMAX  =  269.865; ENMIN  =  202.399 eV                                      
   RCLOC  =    1.725    cutoff for local pot                                    
   LCOR   =        T    correct aug charges                                     
   LPAW   =        T    paw PP                                                  
   EAUG   =  569.085                                                            
   DEXC   =    -.003                                                            
   RMAX   =    2.807    core radius for proj-oper                               
   RAUG   =    1.300    factor for augmentation sphere                          
   RDEP   =    2.338    radius for radial grids                                 
   QCUT   =   -4.454; QGAM   =    8.907    optimization parameters              
                                                                                
   Description                                                                  
     l     E      TYP  RCUT    TYP  RCUT                                        
     1   .000     23  2.000                                                     
     1  -.100     23  2.000                                                     
     2   .000     23  2.300                                                     
     2   .000     23  2.300                                                     
     0   .000     23  2.300                                                     
     0   .000     23  2.300                                                     
     3   .000      7   .000                                                     
  local pseudopotential read in
  partial core-charges read in
  atomic valenz-charges read in
  non local Contribution for L=           1  read in
    real space projection operators read in
  non local Contribution for L=           1  read in
    real space projection operators read in
  non local Contribution for L=           2  read in
    real space projection operators read in
  non local Contribution for L=           2  read in
    real space projection operators read in
  non local Contribution for L=           0  read in
    real space projection operators read in
  non local Contribution for L=           0  read in
    real space projection operators read in
    PAW grid and wavefunctions read in
 
   number of l-projection  operators is LMAX  =           6
   number of lm-projection operators is LMMAX =          18
 
 POTCAR:   PAW_PBE O 08Apr2002                    
   VRHFIN =O: s2p4                                                              
   LEXCH  = PE                                                                  
   EATOM  =   432.3788 eV,   31.7789 Ry                                         
                                                                                
   TITEL  = PAW_PBE O 08Apr2002                                                 
   LULTRA =        F    use ultrasoft PP ?                                      
   IUNSCR =        0    unscreen: 0-lin 1-nonlin 2-no                           
   RPACOR =     .000    partial core radius                                     
   POMASS =   16.000; ZVAL   =    6.000    mass and valenz                      
   RCORE  =    1.520    outmost cutoff radius                                   
   RWIGS  =    1.550; RWIGS  =     .820    wigner-seitz radius (au A)           
   ENMAX  =  400.000; ENMIN  =  300.000 eV                                      
   ICORE  =        2    local potential                                         
   LCOR   =        T    correct aug charges                                     
   LPAW   =        T    paw PP                                                  
   EAUG   =  605.392                                                            
   DEXC   =     .000                                                            
   RMAX   =    2.264    core radius for proj-oper                               
   RAUG   =    1.300    factor for augmentation sphere                          
   RDEP   =    1.550    radius for radial grids                                 
   QCUT   =   -5.520; QGAM   =   11.041    optimization parameters              
                                                                                
   Description                                                                  
     l     E      TYP  RCUT    TYP  RCUT                                        
     0   .000     23  1.200                                                     
     0  -.700     23  1.200                                                     
     1   .000     23  1.520                                                     
     1   .600     23  1.520                                                     
     2   .000      7  1.500                                                     
  local pseudopotential read in
  atomic valenz-charges read in
  non local Contribution for L=           0  read in
    real space projection operators read in
  non local Contribution for L=           0  read in
    real space projection operators read in
  non local Contribution for L=           1  read in
    real space projection operators read in
  non local Contribution for L=           1  read in
    real space projection operators read in
    PAW grid and wavefunctions read in
 
   number of l-projection  operators is LMAX  =           4
   number of lm-projection operators is LMMAX =           8
 
 Optimization of the real space projectors (new method)

 maximal supplied QI-value         = 18.33
 optimisation between [QCUT,QGAM] = [ 11.55, 23.28] = [ 37.34,151.76] Ry 
 Optimized for a Real-space Cutoff    1.32 Angstroem

   l    n(q)    QCUT    max X(q) W(low)/X(q) W(high)/X(q)  e(spline) 
   0      9    11.548     5.519    0.68E-05    0.20E-05    0.27E-07
   0      9    11.548    24.272    0.42E-04    0.24E-04    0.63E-07
   1      9    11.548     4.148    0.83E-04    0.77E-04    0.38E-06
   1      9    11.548    11.842    0.23E-03    0.17E-03    0.54E-06
 Optimization of the real space projectors (new method)

 maximal supplied QI-value         = 16.25
 optimisation between [QCUT,QGAM] = [ 11.54, 23.24] = [ 37.28,151.24] Ry 
 Optimized for a Real-space Cutoff    1.53 Angstroem

   l    n(q)    QCUT    max X(q) W(low)/X(q) W(high)/X(q)  e(spline) 
   1     10    11.539     4.093    0.14E-05    0.94E-06    0.35E-07
   1     10    11.539     5.163    0.38E-04    0.24E-04    0.17E-06
   2     10    11.539     4.144    0.87E-05    0.14E-04    0.48E-07
   2     10    11.539    35.116    0.12E-03    0.13E-03    0.25E-06
   0     11    11.539    20.431    0.20E-04    0.18E-05    0.19E-07
   0     11    11.539    61.159    0.37E-04    0.19E-04    0.29E-06
 Optimization of the real space projectors (new method)

 maximal supplied QI-value         = 24.76
 optimisation between [QCUT,QGAM] = [ 11.64, 23.27] = [ 37.91,151.63] Ry 
 Optimized for a Real-space Cutoff    1.08 Angstroem

   l    n(q)    QCUT    max X(q) W(low)/X(q) W(high)/X(q)  e(spline) 
   0      7    11.635     4.192    0.54E-04    0.80E-04    0.26E-07
   0      7    11.635     8.473    0.70E-04    0.40E-03    0.21E-06
   1      7    11.635     2.474    0.39E-04    0.14E-03    0.23E-07
   1      7    11.635     3.912    0.25E-03    0.37E-03    0.22E-06
 PAW_PBE Li_sv 23Jan2001                :
 energy of atom  1       EATOM= -202.7858
 kinetic energy error for atom=    0.0020 (will be added to EATOM!!)
 PAW_PBE Mn_pv 07Sep2000                :
 energy of atom  2       EATOM=-2024.8347
 kinetic energy error for atom=    0.0058 (will be added to EATOM!!)
 PAW_PBE O 08Apr2002                    :
 energy of atom  3       EATOM= -432.3788
 kinetic energy error for atom=    0.0208 (will be added to EATOM!!)
 
 
 POSCAR: Li1 Mn8 O16                             
  positions in direct lattice
  No initial velocities read in
 exchange correlation table for  LEXCH =        8
   RHO(1)=    0.500       N(1)  =     2000
   RHO(2)=  100.500       N(2)  =     4000
 


--------------------------------------------------------------------------------------------------------


 ion  position               nearest neighbor table
   1  0.000  0.000  0.500-  25 1.98  14 1.98  13 1.98  23 1.98
   2  0.750  0.500  0.375-  10 1.93  13 1.93  14 1.93  16 1.93  12 1.93  17 1.93   4 2.89   4 2.89
                             9 2.89   3 2.89   5 2.89   7 2.89
   3  0.000  0.250  0.125-  15 1.93  17 1.93  19 1.93  20 1.93  14 1.93  24 1.93   5 2.89   5 2.89
                             8 2.89   4 2.89   2 2.89   6 2.89
   4  0.250  0.500  0.375-  10 1.93  13 1.93  14 1.93  16 1.93  15 1.93  11 1.93   2 2.89   2 2.89
                             9 2.89   3 2.89   5 2.89   7 2.89
   5  0.000  0.750  0.125-  15 1.93  17 1.93  19 1.93  20 1.93  13 1.93  18 1.93   3 2.89   3 2.89
                             8 2.89   2 2.89   4 2.89   6 2.89
   6  0.250  0.000  0.875-  18 1.93  21 1.93  22 1.93  24 1.93  20 1.93  25 1.93   8 2.89   8 2.89
                             9 2.89   5 2.89   7 2.89   3 2.89
   7  0.500  0.750  0.625-  11 1.93  12 1.93  23 1.93  25 1.93  16 1.93  22 1.93   9 2.89   9 2.89
                             2 2.89   4 2.89   6 2.89   8 2.89
   8  0.750  0.000  0.875-  18 1.93  21 1.93  22 1.93  24 1.93  23 1.93  19 1.93   6 2.89   6 2.89
                             9 2.89   5 2.89   3 2.89   7 2.89
   9  0.500  0.250  0.625-  11 1.93  12 1.93  23 1.93  25 1.93  10 1.93  21 1.93   7 2.89   7 2.89
                             8 2.89   4 2.89   6 2.89   2 2.89
  10  0.500  0.279  0.391-   2 1.93   4 1.93   9 1.93
  11  0.279  0.500  0.609-   7 1.93   9 1.93   4 1.93
  12  0.721  0.500  0.609-   7 1.93   9 1.93   2 1.93
  13  0.000  0.721  0.359-   2 1.93   4 1.93   5 1.93   1 1.98
  14  0.000  0.279  0.359-   2 1.93   4 1.93   3 1.93   1 1.98
  15  0.221  0.500  0.141-   3 1.93   5 1.93   4 1.93
  16  0.500  0.721  0.391-   2 1.93   4 1.93   7 1.93
  17  0.779  0.500  0.141-   3 1.93   5 1.93   2 1.93
  18  0.000  0.779  0.891-   6 1.93   8 1.93   5 1.93
  19  0.779  0.000  0.109-   3 1.93   5 1.93   8 1.93
  20  0.221  0.000  0.109-   3 1.93   5 1.93   6 1.93
  21  0.500  0.221  0.859-   6 1.93   8 1.93   9 1.93
  22  0.500  0.779  0.859-   6 1.93   8 1.93   7 1.93
  23  0.721  0.000  0.641-   7 1.93   9 1.93   8 1.93   1 1.98
  24  0.000  0.221  0.891-   6 1.93   8 1.93   3 1.93
  25  0.279  0.000  0.641-   7 1.93   9 1.93   6 1.93   1 1.98
 

IMPORTANT INFORMATION: All symmetrisations will be switched off!
NOSYMM: (Re-)initialisation of all symmetry stuff for point group C_1.

 
 
 KPOINTS: pymatgen v2019.10.16 with grid density =

Automatic generation of k-mesh.
Space group operators:
 irot       det(A)        alpha          n_x          n_y          n_z        tau_x        tau_y        tau_z
    1     1.000000     0.000000     1.000000     0.000000     0.000000     0.000000     0.000000     0.000000
 
 Subroutine IBZKPT returns following result:
 ===========================================
 
 Found     26 irreducible k-points:
 
 Following reciprocal coordinates:
            Coordinates               Weight
  0.000000  0.000000  0.000000      1.000000
  0.250000  0.000000  0.000000      2.000000
  0.500000  0.000000  0.000000      1.000000
  0.000000  0.250000  0.000000      2.000000
  0.250000  0.250000  0.000000      2.000000
  0.500000  0.250000  0.000000      2.000000
 -0.250000  0.250000  0.000000      2.000000
  0.000000  0.500000  0.000000      1.000000
  0.250000  0.500000  0.000000      2.000000
  0.500000  0.500000  0.000000      1.000000
  0.000000  0.000000  0.333333      2.000000
  0.250000  0.000000  0.333333      2.000000
  0.500000  0.000000  0.333333      2.000000
 -0.250000  0.000000  0.333333      2.000000
  0.000000  0.250000  0.333333      2.000000
  0.250000  0.250000  0.333333      2.000000
  0.500000  0.250000  0.333333      2.000000
 -0.250000  0.250000  0.333333      2.000000
  0.000000  0.500000  0.333333      2.000000
  0.250000  0.500000  0.333333      2.000000
  0.500000  0.500000  0.333333      2.000000
 -0.250000  0.500000  0.333333      2.000000
  0.000000 -0.250000  0.333333      2.000000
  0.250000 -0.250000  0.333333      2.000000
  0.500000 -0.250000  0.333333      2.000000
 -0.250000 -0.250000  0.333333      2.000000
 
 Following cartesian coordinates:
            Coordinates               Weight
  0.000000  0.000000  0.000000      1.000000
  0.043323  0.000000  0.000000      2.000000
  0.086646  0.000000  0.000000      1.000000
  0.000000  0.043323  0.000000      2.000000
  0.043323  0.043323  0.000000      2.000000
  0.086646  0.043323  0.000000      2.000000
 -0.043323  0.043323  0.000000      2.000000
  0.000000  0.086646  0.000000      1.000000
  0.043323  0.086646  0.000000      2.000000
  0.086646  0.086646  0.000000      1.000000
  0.000000  0.000000  0.040601      2.000000
  0.043323  0.000000  0.040601      2.000000
  0.086646  0.000000  0.040601      2.000000
 -0.043323  0.000000  0.040601      2.000000
  0.000000  0.043323  0.040601      2.000000
  0.043323  0.043323  0.040601      2.000000
  0.086646  0.043323  0.040601      2.000000
 -0.043323  0.043323  0.040601      2.000000
  0.000000  0.086646  0.040601      2.000000
  0.043323  0.086646  0.040601      2.000000
  0.086646  0.086646  0.040601      2.000000
 -0.043323  0.086646  0.040601      2.000000
  0.000000 -0.043323  0.040601      2.000000
  0.043323 -0.043323  0.040601      2.000000
  0.086646 -0.043323  0.040601      2.000000
 -0.043323 -0.043323  0.040601      2.000000
 
 TETIRR: Found    144 inequivalent tetrahedra from      288


--------------------------------------------------------------------------------------------------------




 Dimension of arrays:
   k-points           NKPTS =     26   k-points in BZ     NKDIM =     26   number of bands    NBANDS=    150
   number of dos      NEDOS =    301   number of ions     NIONS =     25
   non local maximal  LDIM  =      6   non local SUM 2l+1 LMDIM =     18
   total plane-waves  NPLWV = 147456
   max r-space proj   IRMAX =   8202   max aug-charges    IRDMAX=  16563
   dimension x,y,z NGX =    48 NGY =   48 NGZ =   64
   dimension x,y,z NGXF=    96 NGYF=   96 NGZF=  128
   support grid    NGXF=    96 NGYF=   96 NGZF=  128
   ions per type =               1   8  16
   NGX,Y,Z   is equivalent  to a cutoff of  13.83, 13.83, 12.96 a.u.
   NGXF,Y,Z  is equivalent  to a cutoff of  27.66, 27.66, 25.92 a.u.

 SYSTEM =  unknown system                          
 POSCAR =  Li1 Mn8 O16                             

 Startparameter for this run:
   NWRITE =      2    write-flag & timer
   PREC   = accura    normal or accurate (medium, high low for compatibility)
   ISTART =      0    job   : 0-new  1-cont  2-samecut
   ICHARG =      1    charge: 1-file 2-atom 10-const
   ISPIN  =      2    spin polarized calculation?
   LNONCOLLINEAR =      F non collinear calculations
   LSORBIT =      F    spin-orbit coupling
   INIWAV =      1    electr: 0-lowe 1-rand  2-diag
   LASPH  =      F    aspherical Exc in radial PAW
   METAGGA=      F    non-selfconsistent MetaGGA calc.

 Electronic Relaxation 1
   ENCUT  =  520.0 eV  38.22 Ry    6.18 a.u.  10.73 10.73 15.27*2*pi/ulx,y,z
   ENINI  =  520.0     initial cutoff
   ENAUG  =  605.4 eV  augmentation charge cutoff
   NELM   =    100;   NELMIN=  1; NELMDL= -5     # of ELM steps 
   EDIFF  = 0.1E-01   stopping-criterion for ELM
   LREAL  =      T    real-space projection
   NLSPLINE    = F    spline interpolate recip. space projectors
   LCOMPAT=      F    compatible to vasp.4.4
   GGA_COMPAT  = T    GGA compatible to vasp.4.4-vasp.4.6
   LMAXPAW     = -100 max onsite density
   LMAXMIX     =    2 max onsite mixed and CHGCAR
   VOSKOWN=      0    Vosko Wilk Nusair interpolation
   ROPT   =   -0.00025  -0.00025  -0.00025
 Ionic relaxation
   EDIFFG = 0.0E+00   stopping-criterion for IOM
   NSW    =      0    number of steps for IOM
   NBLOCK =      1;   KBLOCK =      1    inner block; outer block 
   IBRION =     -1    ionic relax: 0-MD 1-quasi-New 2-CG
   NFREE  =      0    steps in history (QN), initial steepest desc. (CG)
   ISIF   =      2    stress and relaxation
   IWAVPR =     10    prediction:  0-non 1-charg 2-wave 3-comb
   ISYM   =      0    0-nonsym 1-usesym 2-fastsym
   LCORR  =      T    Harris-Foulkes like correction to forces

   POTIM  = 0.5000    time-step for ionic-motion
   TEIN   =    0.0    initial temperature
   TEBEG  =    0.0;   TEEND  =   0.0 temperature during run
   SMASS  =  -3.00    Nose mass-parameter (am)
   estimated Nose-frequenzy (Omega)   =  0.10E-29 period in steps =****** mass=  -0.761E-27a.u.
   SCALEE = 1.0000    scale energy and forces
   NPACO  =    256;   APACO  = 16.0  distance and # of slots for P.C.
   PSTRESS=    0.0 pullay stress

  Mass of Ions in am
   POMASS =   7.01 54.94 16.00
  Ionic Valenz
   ZVAL   =   3.00 13.00  6.00
  Atomic Wigner-Seitz radii
   RWIGS  =  -1.00 -1.00 -1.00
  virtual crystal weights 
   VCA    =   1.00  1.00  1.00
   NELECT =     203.0000    total number of electrons
   NUPDOWN=      -1.0000    fix difference up-down

 DOS related values:
   EMIN   =  10.00;   EMAX   =-10.00  energy-range for DOS
   EFERMI =   0.00
   ISMEAR =    -5;   SIGMA  =   0.05  broadening in eV -4-tet -1-fermi 0-gaus

 Electronic relaxation 2 (details)
   IALGO  =     68    algorithm
   LDIAG  =      T    sub-space diagonalisation (order eigenvalues)
   LSUBROT=      F    optimize rotation matrix (better conditioning)
   TURBO    =      0    0=normal 1=particle mesh
   IRESTART =      0    0=no restart 2=restart with 2 vectors
   NREBOOT  =      0    no. of reboots
   NMIN     =      0    reboot dimension
   EREF     =   0.00    reference energy to select bands
   IMIX   =      4    mixing-type and parameters
     AMIX     =   0.40;   BMIX     =  1.00
     AMIX_MAG =   1.60;   BMIX_MAG =  1.00
     AMIN     =   0.10
     WC   =   100.;   INIMIX=   1;  MIXPRE=   1;  MAXMIX= -45

 Intra band minimization:
   WEIMIN = 0.0000     energy-eigenvalue tresh-hold
   EBREAK =  0.00E+00  absolut break condition
   DEPER  =   0.30     relativ break condition  

   TIME   =   0.40     timestep for ELM

  volume/ion in A,a.u.               =      10.94        73.80
  Fermi-wavevector in a.u.,A,eV,Ry     =   1.482442  2.801409 29.900622  2.197634
  Thomas-Fermi vector in A             =   2.596227
 
 Write flags
   LWAVE        =      F    write WAVECAR
   LDOWNSAMPLE  =      F    k-point downsampling of WAVECAR
   LCHARG       =      T    write CHGCAR
   LVTOT        =      F    write LOCPOT, total local potential
   LVHAR        =      F    write LOCPOT, Hartree potential only
   LELF         =      F    write electronic localiz. function (ELF)
   LORBIT       =     11    0 simple, 1 ext, 2 COOP (PROOUT), +10 PAW based schemes


 Dipole corrections
   LMONO  =      F    monopole corrections only (constant potential shift)
   LDIPOL =      F    correct potential (dipole corrections)
   IDIPOL =      0    1-x, 2-y, 3-z, 4-all directions 
   EPSILON=  1.0000000 bulk dielectric constant

 Exchange correlation treatment:
   GGA     =    --    GGA type
   LEXCH   =     8    internal setting for exchange type
   VOSKOWN=      0    Vosko Wilk Nusair interpolation
   LHFCALC =     F    Hartree Fock is set to
   LHFONE  =     F    Hartree Fock one center treatment
   AEXX    =    0.0000 exact exchange contribution

 Linear response parameters
   LEPSILON=     F    determine dielectric tensor
   LRPA    =     F    only Hartree local field effects (RPA)
   LNABLA  =     F    use nabla operator in PAW spheres
   LVEL    =     F    velocity operator in full k-point grid
   LINTERFAST=   F  fast interpolation
   KINTER  =     0    interpolate to denser k-point grid
   CSHIFT  =0.1000    complex shift for real part using Kramers Kronig
   OMEGAMAX=  -1.0    maximum frequency
   DEG_THRESHOLD= 0.2000000E-02 threshold for treating states as degnerate
   RTIME   =   -0.100 relaxation time in fs
  (WPLASMAI=    0.000 imaginary part of plasma frequency in eV, 0.658/RTIME)
   DFIELD  = 0.0000000 0.0000000 0.0000000 field for delta impulse in time
 
 Orbital magnetization related:
   ORBITALMAG=     F  switch on orbital magnetization
   LCHIMAG   =     F  perturbation theory with respect to B field
   DQ        =  0.001000  dq finite difference perturbation B field
   LLRAUG    =     F  two centre corrections for induced B field



--------------------------------------------------------------------------------------------------------


 Static calculation
 charge density and potential will be updated during run
 spin polarized calculation
 RMM-DIIS sequential band-by-band and
  variant of blocked Davidson during initial phase
 perform sub-space diagonalisation
    before iterative eigenvector-optimisation
 modified Broyden-mixing scheme, WC =      100.0
 initial mixing is a Kerker type mixing with AMIX =  0.4000 and BMIX =      1.0000
 Hartree-type preconditioning will be used
 using additional bands           48
 real space projection scheme for non local part
 use partial core corrections
 calculate Harris-corrections to forces 
   (improved forces if not selfconsistent)
 use gradient corrections 
 use of overlap-Matrix (Vanderbilt PP)
 Fermi weights with tetrahedron method with Bloechl corrections


--------------------------------------------------------------------------------------------------------


  energy-cutoff  :      520.00
  volume of cell :      273.39
      direct lattice vectors                 reciprocal lattice vectors
     5.770635000  0.000000000  0.000000000     0.173291154  0.000000000  0.000000000
     0.000000000  5.770635000  0.000000000     0.000000000  0.173291154  0.000000000
     0.000000000  0.000000000  8.209947000     0.000000000  0.000000000  0.121803466

  length of vectors
     5.770635000  5.770635000  8.209947000     0.173291154  0.173291154  0.121803466


 
 k-points in units of 2pi/SCALE and weight: pymatgen v2019.10.16 with grid density =
   0.00000000  0.00000000  0.00000000       0.021
   0.04332279  0.00000000  0.00000000       0.042
   0.08664558  0.00000000  0.00000000       0.021
   0.00000000  0.04332279  0.00000000       0.042
   0.04332279  0.04332279  0.00000000       0.042
   0.08664558  0.04332279  0.00000000       0.042
  -0.04332279  0.04332279  0.00000000       0.042
   0.00000000  0.08664558  0.00000000       0.021
   0.04332279  0.08664558  0.00000000       0.042
   0.08664558  0.08664558  0.00000000       0.021
   0.00000000  0.00000000  0.04060116       0.042
   0.04332279  0.00000000  0.04060116       0.042
   0.08664558  0.00000000  0.04060116       0.042
  -0.04332279  0.00000000  0.04060116       0.042
   0.00000000  0.04332279  0.04060116       0.042
   0.04332279  0.04332279  0.04060116       0.042
   0.08664558  0.04332279  0.04060116       0.042
  -0.04332279  0.04332279  0.04060116       0.042
   0.00000000  0.08664558  0.04060116       0.042
   0.04332279  0.08664558  0.04060116       0.042
   0.08664558  0.08664558  0.04060116       0.042
  -0.04332279  0.08664558  0.04060116       0.042
   0.00000000 -0.04332279  0.04060116       0.042
   0.04332279 -0.04332279  0.04060116       0.042
   0.08664558 -0.04332279  0.04060116       0.042
  -0.04332279 -0.04332279  0.04060116       0.042
 
 k-points in reciprocal lattice and weights: pymatgen v2019.10.16 with grid density =
   0.00000000  0.00000000  0.00000000       0.021
   0.25000000  0.00000000  0.00000000       0.042
   0.50000000  0.00000000  0.00000000       0.021
   0.00000000  0.25000000  0.00000000       0.042
   0.25000000  0.25000000  0.00000000       0.042
   0.50000000  0.25000000  0.00000000       0.042
  -0.25000000  0.25000000  0.00000000       0.042
   0.00000000  0.50000000  0.00000000       0.021
   0.25000000  0.50000000  0.00000000       0.042
   0.50000000  0.50000000  0.00000000       0.021
   0.00000000  0.00000000  0.33333333       0.042
   0.25000000  0.00000000  0.33333333       0.042
   0.50000000  0.00000000  0.33333333       0.042
  -0.25000000  0.00000000  0.33333333       0.042
   0.00000000  0.25000000  0.33333333       0.042
   0.25000000  0.25000000  0.33333333       0.042
   0.50000000  0.25000000  0.33333333       0.042
  -0.25000000  0.25000000  0.33333333       0.042
   0.00000000  0.50000000  0.33333333       0.042
   0.25000000  0.50000000  0.33333333       0.042
   0.50000000  0.50000000  0.33333333       0.042
  -0.25000000  0.50000000  0.33333333       0.042
   0.00000000 -0.25000000  0.33333333       0.042
   0.25000000 -0.25000000  0.33333333       0.042
   0.50000000 -0.25000000  0.33333333       0.042
  -0.25000000 -0.25000000  0.33333333       0.042
 
 position of ions in fractional coordinates (direct lattice) 
   0.00015900  0.00000400  0.49997000
   0.75000000  0.50000000  0.37500000
   0.00000000  0.25000000  0.12500000
   0.25000000  0.50000000  0.37500000
   0.00000000  0.75000000  0.12500000
   0.25000000  0.00000000  0.87500000
   0.50000000  0.75000000  0.62500000
   0.75000000  0.00000000  0.87500000
   0.50000000  0.25000000  0.62500000
   0.50000000  0.27918000  0.39075200
   0.27918000  0.50000000  0.60924800
   0.72082000  0.50000000  0.60924800
   0.00000000  0.72082000  0.35924800
   0.00000000  0.27918000  0.35924800
   0.22082000  0.50000000  0.14075200
   0.50000000  0.72082000  0.39075200
   0.77918000  0.50000000  0.14075200
   0.00000000  0.77918000  0.89075200
   0.77918000  0.00000000  0.10924800
   0.22082000  0.00000000  0.10924800
   0.50000000  0.22082000  0.85924800
   0.50000000  0.77918000  0.85924800
   0.72082000  0.00000000  0.64075200
   0.00000000  0.22082000  0.89075200
   0.27918000  0.00000000  0.64075200
 
 position of ions in cartesian coordinates  (Angst):
   0.00091753  0.00002308  4.10472720
   4.32797625  2.88531750  3.07873012
   0.00000000  1.44265875  1.02624337
   1.44265875  2.88531750  3.07873012
   0.00000000  4.32797625  1.02624337
   1.44265875  0.00000000  7.18370362
   2.88531750  4.32797625  5.13121687
   4.32797625  0.00000000  7.18370362
   2.88531750  1.44265875  5.13121687
   2.88531750  1.61104588  3.20805321
   1.61104588  2.88531750  5.00189379
   4.15958912  2.88531750  5.00189379
   0.00000000  4.15958912  2.94940704
   0.00000000  1.61104588  2.94940704
   1.27427162  2.88531750  1.15556646
   2.88531750  4.15958912  3.20805321
   4.49636338  2.88531750  1.15556646
   0.00000000  4.49636338  7.31302671
   4.49636338  0.00000000  0.89692029
   1.27427162  0.00000000  0.89692029
   2.88531750  1.27427162  7.05438054
   2.88531750  4.49636338  7.05438054
   4.15958912  0.00000000  5.26053996
   0.00000000  1.27427162  7.31302671
   1.61104588  0.00000000  5.26053996
 


--------------------------------------------------------------------------------------------------------


 k-point  1 :   0.0000 0.0000 0.0000  plane waves:    7395
 k-point  2 :   0.2500 0.0000 0.0000  plane waves:    7381
 k-point  3 :   0.5000 0.0000 0.0000  plane waves:    7382
 k-point  4 :   0.0000 0.2500 0.0000  plane waves:    7381
 k-point  5 :   0.2500 0.2500 0.0000  plane waves:    7355
 k-point  6 :   0.5000 0.2500 0.0000  plane waves:    7358
 k-point  7 :  -0.2500 0.2500 0.0000  plane waves:    7355
 k-point  8 :   0.0000 0.5000 0.0000  plane waves:    7382
 k-point  9 :   0.2500 0.5000 0.0000  plane waves:    7358
 k-point 10 :   0.5000 0.5000 0.0000  plane waves:    7384
 k-point 11 :   0.0000 0.0000 0.3333  plane waves:    7330
 k-point 12 :   0.2500 0.0000 0.3333  plane waves:    7359
 k-point 13 :   0.5000 0.0000 0.3333  plane waves:    7362
 k-point 14 :  -0.2500 0.0000 0.3333  plane waves:    7359
 k-point 15 :   0.0000 0.2500 0.3333  plane waves:    7359
 k-point 16 :   0.2500 0.2500 0.3333  plane waves:    7352
 k-point 17 :   0.5000 0.2500 0.3333  plane waves:    7350
 k-point 18 :  -0.2500 0.2500 0.3333  plane waves:    7352
 k-point 19 :   0.0000 0.5000 0.3333  plane waves:    7362
 k-point 20 :   0.2500 0.5000 0.3333  plane waves:    7350
 k-point 21 :   0.5000 0.5000 0.3333  plane waves:    7356
 k-point 22 :  -0.2500 0.5000 0.3333  plane waves:    7350
 k-point 23 :   0.0000-0.2500 0.3333  plane waves:    7359
 k-point 24 :   0.2500-0.2500 0.3333  plane waves:    7352
 k-point 25 :   0.5000-0.2500 0.3333  plane waves:    7350
 k-point 26 :  -0.2500-0.2500 0.3333  plane waves:    7352

 maximum and minimum number of plane-waves per node :      7395     7330

 maximum number of plane-waves:      7395
 maximum index in each direction: 
   IXMAX=   10   IYMAX=   10   IZMAX=   15
   IXMIN=  -11   IYMIN=  -11   IZMIN=  -15


 serial   3D FFT for wavefunctions
 parallel 3D FFT for charge:
    minimum data exchange during FFTs selected (reduces bandwidth)


 total amount of memory used by VASP MPI-rank0   244218. kBytes
=======================================================================

   base      :      30000. kBytes
   nonlr-proj:      17010. kBytes
   fftplans  :       7295. kBytes
   grid      :      29392. kBytes
   one-center:        777. kBytes
   wavefun   :     159744. kBytes
 
     INWAV:  cpu time    0.0000: real time    0.0000
 Broyden mixing: mesh for mixing (old mesh)
   NGX = 21   NGY = 21   NGZ = 31
  (NGX  = 96   NGY  = 96   NGZ  =128)
  gives a total of  13671 points

 initial charge density was supplied:
 charge density of overlapping atoms calculated
 number of electron     203.0000000 magnetization      50.2000000
 keeping initial charge density in first step


--------------------------------------------------------------------------------------------------------


 Maximum index for non-local projection operator         7951
 Maximum index for augmentation-charges         2679 (set IRDMAX)


--------------------------------------------------------------------------------------------------------


 First call to EWALD:  gamma=   0.273
 Maximum number of real-space cells 3x 3x 2
 Maximum number of reciprocal cells 2x 2x 3

    FEWALD:  cpu time    0.0026: real time    0.0026


--------------------------------------- Iteration      1(   1)  ---------------------------------------


    POTLOK:  cpu time    0.2704: real time    0.2741
    SETDIJ:  cpu time    0.0213: real time    0.0213
     EDDAV:  cpu time   64.8240: real time   65.1813
 BZINTS: Fermi energy: 25.268477;203.000000 electrons
         Band energy: 676.593592;  BLOECHL correction: -0.088225
       DOS:  cpu time    0.0592: real time    0.0594
    --------------------------------------------
      LOOP:  cpu time   65.1750: real time   65.5361

 eigenvalue-minimisations  : 15696
 total energy-change (2. order) : 0.3323143E+04  (-0.1004927E+05)
 number of electron     203.0000000 magnetization      50.2000000
 augmentation part      203.0000000 magnetization      50.2000000

 Free energy of the ion-electron system (eV)
  ---------------------------------------------------
  alpha Z        PSCENC =      1096.51130837
  Ewald energy   TEWEN  =    -13555.49352498
  -Hartree energ DENC   =     -8780.69935388
  -exchange      EXHF   =         0.00000000
  -V(xc)+E(xc)   XCENC  =      1023.10749199
  PAW double counting   =     15913.62944871   -16369.64932519
  entropy T*S    EENTRO =         0.00000000
  eigenvalues    EBANDS =       676.59359219
  atomic energy  EATOM  =     23319.14298724
  Solvation  Ediel_sol  =         0.00000000
  ---------------------------------------------------
  free energy    TOTEN  =      3323.14262444 eV

  energy without entropy =     3323.14262444  energy(sigma->0) =     3323.14262444


--------------------------------------------------------------------------------------------------------




--------------------------------------- Iteration      1(   2)  ---------------------------------------


     EDDAV:  cpu time   65.5961: real time   65.9680
 BZINTS: Fermi energy:  9.025915;203.000000 electrons
         Band energy:***********;  BLOECHL correction: -0.074290
       DOS:  cpu time    0.0609: real time    0.0610
    --------------------------------------------
      LOOP:  cpu time   65.6570: real time   66.0290

 eigenvalue-minimisations  : 15816
 total energy-change (2. order) :-0.2969068E+04  (-0.2708153E+04)
 number of electron     203.0000000 magnetization      50.2000000
 augmentation part      203.0000000 magnetization      50.2000000

 Free energy of the ion-electron system (eV)
  ---------------------------------------------------
  alpha Z        PSCENC =      1096.51130837
  Ewald energy   TEWEN  =    -13555.49352498
  -Hartree energ DENC   =     -8780.69935388
  -exchange      EXHF   =         0.00000000
  -V(xc)+E(xc)   XCENC  =      1023.10749199
  PAW double counting   =     15913.62944871   -16369.64932519
  entropy T*S    EENTRO =         0.00000000
  eigenvalues    EBANDS =     -2292.47431922
  atomic energy  EATOM  =     23319.14298724
  Solvation  Ediel_sol  =         0.00000000
  ---------------------------------------------------
  free energy    TOTEN  =       354.07471303 eV

  energy without entropy =      354.07471303  energy(sigma->0) =      354.07471303


--------------------------------------------------------------------------------------------------------




--------------------------------------- Iteration      1(   3)  ---------------------------------------


     EDDAV:  cpu time   66.9687: real time   67.3344
 BZINTS: Fermi energy:  5.765023;203.000000 electrons
         Band energy:***********;  BLOECHL correction: -0.025729
       DOS:  cpu time    0.0584: real time    0.0585
    --------------------------------------------
      LOOP:  cpu time   67.0272: real time   67.3929

 eigenvalue-minimisations  : 16434
 total energy-change (2. order) :-0.5478381E+03  (-0.4898871E+03)
 number of electron     203.0000000 magnetization      50.2000000
 augmentation part      203.0000000 magnetization      50.2000000

 Free energy of the ion-electron system (eV)
  ---------------------------------------------------
  alpha Z        PSCENC =      1096.51130837
  Ewald energy   TEWEN  =    -13555.49352498
  -Hartree energ DENC   =     -8780.69935388
  -exchange      EXHF   =         0.00000000
  -V(xc)+E(xc)   XCENC  =      1023.10749199
  PAW double counting   =     15913.62944871   -16369.64932519
  entropy T*S    EENTRO =         0.00000000
  eigenvalues    EBANDS =     -2840.31244990
  atomic energy  EATOM  =     23319.14298724
  Solvation  Ediel_sol  =         0.00000000
  ---------------------------------------------------
  free energy    TOTEN  =      -193.76341765 eV

  energy without entropy =     -193.76341765  energy(sigma->0) =     -193.76341765


--------------------------------------------------------------------------------------------------------




--------------------------------------- Iteration      1(   4)  ---------------------------------------


     EDDAV:  cpu time   87.3128: real time   87.8487
 BZINTS: Fermi energy:  5.478992;203.000000 electrons
         Band energy:***********;  BLOECHL correction: -0.028565
       DOS:  cpu time    0.0645: real time    0.0649
    --------------------------------------------
      LOOP:  cpu time   87.3773: real time   87.9136

 eigenvalue-minimisations  : 22716
 total energy-change (2. order) :-0.5403852E+02  (-0.5288672E+02)
 number of electron     203.0000000 magnetization      50.2000000
 augmentation part      203.0000000 magnetization      50.2000000

 Free energy of the ion-electron system (eV)
  ---------------------------------------------------
  alpha Z        PSCENC =      1096.51130837
  Ewald energy   TEWEN  =    -13555.49352498
  -Hartree energ DENC   =     -8780.69935388
  -exchange      EXHF   =         0.00000000
  -V(xc)+E(xc)   XCENC  =      1023.10749199
  PAW double counting   =     15913.62944871   -16369.64932519
  entropy T*S    EENTRO =         0.00000000
  eigenvalues    EBANDS =     -2894.35096951
  atomic energy  EATOM  =     23319.14298724
  Solvation  Ediel_sol  =         0.00000000
  ---------------------------------------------------
  free energy    TOTEN  =      -247.80193726 eV

  energy without entropy =     -247.80193726  energy(sigma->0) =     -247.80193726


--------------------------------------------------------------------------------------------------------




--------------------------------------- Iteration      1(   5)  ---------------------------------------


     EDDAV:  cpu time   86.3622: real time   86.7718
 BZINTS: Fermi energy:  5.469856;203.000000 electrons
         Band energy:***********;  BLOECHL correction: -0.027766
       DOS:  cpu time    0.0668: real time    0.0668
    CHARGE:  cpu time    2.2667: real time    2.2708
    MIXING:  cpu time    0.0079: real time    0.0079
    --------------------------------------------
      LOOP:  cpu time   88.7035: real time   89.1173

 eigenvalue-minimisations  : 22692
 total energy-change (2. order) :-0.1094393E+01  (-0.1090095E+01)
 number of electron     202.9999994 magnetization      35.3071723
 augmentation part       64.2627003 magnetization      26.3528612

 Broyden mixing:
  rms(total) = 0.66795E+01    rms(broyden)= 0.66769E+01
  rms(prec ) = 0.89984E+01
  weight for this iteration     100.00

 Free energy of the ion-electron system (eV)
  ---------------------------------------------------
  alpha Z        PSCENC =      1096.51130837
  Ewald energy   TEWEN  =    -13555.49352498
  -Hartree energ DENC   =     -8780.69935388
  -exchange      EXHF   =         0.00000000
  -V(xc)+E(xc)   XCENC  =      1023.10749199
  PAW double counting   =     15913.62944871   -16369.64932519
  entropy T*S    EENTRO =         0.00000000
  eigenvalues    EBANDS =     -2895.44536272
  atomic energy  EATOM  =     23319.14298724
  Solvation  Ediel_sol  =         0.00000000
  ---------------------------------------------------
  free energy    TOTEN  =      -248.89633047 eV

  energy without entropy =     -248.89633047  energy(sigma->0) =     -248.89633047


--------------------------------------------------------------------------------------------------------




--------------------------------------- Iteration      1(   6)  ---------------------------------------


    POTLOK:  cpu time    0.2653: real time    0.2662
    SETDIJ:  cpu time    0.0239: real time    0.0239
    EDDIAG:  cpu time    9.7063: real time    9.7326
  RMM-DIIS:  cpu time   57.7725: real time   58.0407
    ORTHCH:  cpu time    0.7289: real time    0.7302
 BZINTS: Fermi energy:  1.185731;203.000000 electrons
         Band energy:***********;  BLOECHL correction: -0.078638
       DOS:  cpu time    0.0809: real time    0.0813
    CHARGE:  cpu time    2.2662: real time    2.2751
    MIXING:  cpu time    0.0083: real time    0.0084
    --------------------------------------------
      LOOP:  cpu time   70.8523: real time   71.1584

 eigenvalue-minimisations  : 18929
 total energy-change (2. order) : 0.9714706E+01  (-0.4186801E+02)
 number of electron     202.9999900 magnetization      30.2459264
 augmentation part       82.0479710 magnetization      24.1626177

 Broyden mixing:
  rms(total) = 0.93201E+01    rms(broyden)= 0.93182E+01
  rms(prec ) = 0.13551E+02
  weight for this iteration     100.00

 eigenvalues of (default mixing * dielectric matrix)
  average eigenvalue GAMMA=   0.4596
  0.4596

 Free energy of the ion-electron system (eV)
  ---------------------------------------------------
  alpha Z        PSCENC =      1096.51130837
  Ewald energy   TEWEN  =    -13555.49352498
  -Hartree energ DENC   =     -8423.56819076
  -exchange      EXHF   =         0.00000000
  -V(xc)+E(xc)   XCENC  =      1017.23559650
  PAW double counting   =     15646.30631574   -16098.32559609
  entropy T*S    EENTRO =         0.00000000
  eigenvalues    EBANDS =     -3240.99052068
  atomic energy  EATOM  =     23319.14298724
  Solvation  Ediel_sol  =         0.00000000
  ---------------------------------------------------
  free energy    TOTEN  =      -239.18162466 eV

  energy without entropy =     -239.18162466  energy(sigma->0) =     -239.18162466


--------------------------------------------------------------------------------------------------------




--------------------------------------- Iteration      1(   7)  ---------------------------------------


    POTLOK:  cpu time    0.2852: real time    0.2866
    SETDIJ:  cpu time    0.0302: real time    0.0303
    EDDIAG:  cpu time    9.9294: real time    9.9827
  RMM-DIIS:  cpu time   66.0869: real time   66.4408
    ORTHCH:  cpu time    0.9088: real time    0.9129
 BZINTS: Fermi energy:  4.260047;203.000000 electrons
         Band energy:***********;  BLOECHL correction: -0.032779
       DOS:  cpu time    0.0681: real time    0.0684
    CHARGE:  cpu time    2.1822: real time    2.1930
    MIXING:  cpu time    0.0081: real time    0.0081
    --------------------------------------------
      LOOP:  cpu time   79.4988: real time   79.9227

 eigenvalue-minimisations  : 21538
 total energy-change (2. order) : 0.4062015E+02  (-0.1043575E+02)
 number of electron     202.9999977 magnetization      26.3919864
 augmentation part       65.5174442 magnetization      17.8542495

 Broyden mixing:
  rms(total) = 0.33726E+01    rms(broyden)= 0.33697E+01
  rms(prec ) = 0.45071E+01
  weight for this iteration     100.00

 eigenvalues of (default mixing * dielectric matrix)
  average eigenvalue GAMMA=   0.5200
  0.7492  0.2908

 Free energy of the ion-electron system (eV)
  ---------------------------------------------------
  alpha Z        PSCENC =      1096.51130837
  Ewald energy   TEWEN  =    -13555.49352498
  -Hartree energ DENC   =     -8739.10950880
  -exchange      EXHF   =         0.00000000
  -V(xc)+E(xc)   XCENC  =      1016.92474761
  PAW double counting   =     16360.47432093   -16842.86711978
  entropy T*S    EENTRO =         0.00000000
  eigenvalues    EBANDS =     -2854.14468668
  atomic energy  EATOM  =     23319.14298724
  Solvation  Ediel_sol  =         0.00000000
  ---------------------------------------------------
  free energy    TOTEN  =      -198.56147610 eV

  energy without entropy =     -198.56147610  energy(sigma->0) =     -198.56147610


--------------------------------------------------------------------------------------------------------




--------------------------------------- Iteration      1(   8)  ---------------------------------------


    POTLOK:  cpu time    0.2667: real time    0.2687
    SETDIJ:  cpu time    0.0242: real time    0.0245
    EDDIAG:  cpu time   10.1552: real time   10.2157
  RMM-DIIS:  cpu time   55.4906: real time   55.8284
    ORTHCH:  cpu time    0.7306: real time    0.7334
 BZINTS: Fermi energy:  3.574554;203.000000 electrons
         Band energy:***********;  BLOECHL correction: -0.033718
       DOS:  cpu time    0.0628: real time    0.0630
    CHARGE:  cpu time    2.1810: real time    2.1927
    MIXING:  cpu time    0.0101: real time    0.0102
    --------------------------------------------
      LOOP:  cpu time   68.9213: real time   69.3366

 eigenvalue-minimisations  : 17700
 total energy-change (2. order) : 0.2521614E+01  (-0.7557264E+00)
 number of electron     202.9999970 magnetization      23.6596498
 augmentation part       66.7718465 magnetization      15.8469941

 Broyden mixing:
  rms(total) = 0.17818E+01    rms(broyden)= 0.17818E+01
  rms(prec ) = 0.25491E+01
  weight for this iteration     100.00

 eigenvalues of (default mixing * dielectric matrix)
  average eigenvalue GAMMA=   0.7235
  0.3210  0.9248  0.9248

 Free energy of the ion-electron system (eV)
  ---------------------------------------------------
  alpha Z        PSCENC =      1096.51130837
  Ewald energy   TEWEN  =    -13555.49352498
  -Hartree energ DENC   =     -8670.56221918
  -exchange      EXHF   =         0.00000000
  -V(xc)+E(xc)   XCENC  =      1013.95160822
  PAW double counting   =     16399.18548619   -16885.84613171
  entropy T*S    EENTRO =         0.00000000
  eigenvalues    EBANDS =     -2912.92937614
  atomic energy  EATOM  =     23319.14298724
  Solvation  Ediel_sol  =         0.00000000
  ---------------------------------------------------
  free energy    TOTEN  =      -196.03986200 eV

  energy without entropy =     -196.03986200  energy(sigma->0) =     -196.03986200


--------------------------------------------------------------------------------------------------------




--------------------------------------- Iteration      1(   9)  ---------------------------------------


    POTLOK:  cpu time    0.2928: real time    0.2943
    SETDIJ:  cpu time    0.0269: real time    0.0269
    EDDIAG:  cpu time   10.0573: real time   10.1035
  RMM-DIIS:  cpu time   53.0606: real time   53.3735
    ORTHCH:  cpu time    0.9124: real time    0.9156
 BZINTS: Fermi energy:  2.862569;203.000000 electrons
         Band energy:***********;  BLOECHL correction: -0.029742
       DOS:  cpu time    0.0692: real time    0.0693
    CHARGE:  cpu time    2.6491: real time    2.6606
    MIXING:  cpu time    0.0096: real time    0.0096
    --------------------------------------------
      LOOP:  cpu time   67.0776: real time   67.4532

 eigenvalue-minimisations  : 16987
 total energy-change (2. order) :-0.6595801E+00  (-0.9631823E+00)
 number of electron     202.9999963 magnetization      23.1358683
 augmentation part       68.1115498 magnetization      15.9308044

 Broyden mixing:
  rms(total) = 0.81029E+00    rms(broyden)= 0.80999E+00
  rms(prec ) = 0.10715E+01
  weight for this iteration     100.00

 eigenvalues of (default mixing * dielectric matrix)
  average eigenvalue GAMMA=   0.7509
  1.0809  1.0809  0.3190  0.5230

 Free energy of the ion-electron system (eV)
  ---------------------------------------------------
  alpha Z        PSCENC =      1096.51130837
  Ewald energy   TEWEN  =    -13555.49352498
  -Hartree energ DENC   =     -8601.06881052
  -exchange      EXHF   =         0.00000000
  -V(xc)+E(xc)   XCENC  =      1011.04855748
  PAW double counting   =     16456.98369939   -16948.94996857
  entropy T*S    EENTRO =         0.00000000
  eigenvalues    EBANDS =     -2974.87369050
  atomic energy  EATOM  =     23319.14298724
  Solvation  Ediel_sol  =         0.00000000
  ---------------------------------------------------
  free energy    TOTEN  =      -196.69944210 eV

  energy without entropy =     -196.69944210  energy(sigma->0) =     -196.69944210


--------------------------------------------------------------------------------------------------------




--------------------------------------- Iteration      1(  10)  ---------------------------------------


    POTLOK:  cpu time    0.2655: real time    0.2662
    SETDIJ:  cpu time    0.0240: real time    0.0240
    EDDIAG:  cpu time    9.9978: real time   10.0510
  RMM-DIIS:  cpu time   57.2086: real time   57.5332
    ORTHCH:  cpu time    0.8922: real time    0.8967
 BZINTS: Fermi energy:  2.742317;203.000000 electrons
         Band energy:***********;  BLOECHL correction: -0.034291
       DOS:  cpu time    0.0661: real time    0.0664
    CHARGE:  cpu time    2.3264: real time    2.3356
    MIXING:  cpu time    0.0087: real time    0.0087
    --------------------------------------------
      LOOP:  cpu time   70.7894: real time   71.1819

 eigenvalue-minimisations  : 18429
 total energy-change (2. order) : 0.1438547E+00  (-0.1710198E+00)
 number of electron     202.9999961 magnetization      23.0722045
 augmentation part       68.6095133 magnetization      16.0908133

 Broyden mixing:
  rms(total) = 0.43071E+00    rms(broyden)= 0.43051E+00
  rms(prec ) = 0.56689E+00
  weight for this iteration     100.00

 eigenvalues of (default mixing * dielectric matrix)
  average eigenvalue GAMMA=   0.8030
  1.3470  1.3470  0.6559  0.3161  0.3490

 Free energy of the ion-electron system (eV)
  ---------------------------------------------------
  alpha Z        PSCENC =      1096.51130837
  Ewald energy   TEWEN  =    -13555.49352498
  -Hartree energ DENC   =     -8573.46050961
  -exchange      EXHF   =         0.00000000
  -V(xc)+E(xc)   XCENC  =      1010.47657509
  PAW double counting   =     16487.00048500   -16981.74673751
  entropy T*S    EENTRO =         0.00000000
  eigenvalues    EBANDS =     -2998.98617097
  atomic energy  EATOM  =     23319.14298724
  Solvation  Ediel_sol  =         0.00000000
  ---------------------------------------------------
  free energy    TOTEN  =      -196.55558738 eV

  energy without entropy =     -196.55558738  energy(sigma->0) =     -196.55558738


--------------------------------------------------------------------------------------------------------




--------------------------------------- Iteration      1(  11)  ---------------------------------------


    POTLOK:  cpu time    0.2987: real time    0.2997
    SETDIJ:  cpu time    0.0332: real time    0.0333
    EDDIAG:  cpu time    9.9074: real time    9.9707
  RMM-DIIS:  cpu time   65.1278: real time   65.5750
    ORTHCH:  cpu time    0.8839: real time    0.8881
 BZINTS: Fermi energy:  2.637413;203.000000 electrons
         Band energy:***********;  BLOECHL correction: -0.033298
       DOS:  cpu time    0.0618: real time    0.0618
    CHARGE:  cpu time    2.1519: real time    2.1706
    MIXING:  cpu time    0.0086: real time    0.0087
    --------------------------------------------
      LOOP:  cpu time   78.4734: real time   79.0080

 eigenvalue-minimisations  : 20770
 total energy-change (2. order) : 0.2517740E-01  (-0.5321636E-01)
 number of electron     202.9999960 magnetization      23.0260093
 augmentation part       68.8491366 magnetization      16.2417724

 Broyden mixing:
  rms(total) = 0.17518E+00    rms(broyden)= 0.17507E+00
  rms(prec ) = 0.23369E+00
  weight for this iteration     100.00

 eigenvalues of (default mixing * dielectric matrix)
  average eigenvalue GAMMA=   0.8799
  1.7229  1.2731  0.9923  0.6792  0.3197  0.2923

 Free energy of the ion-electron system (eV)
  ---------------------------------------------------
  alpha Z        PSCENC =      1096.51130837
  Ewald energy   TEWEN  =    -13555.49352498
  -Hartree energ DENC   =     -8552.59506965
  -exchange      EXHF   =         0.00000000
  -V(xc)+E(xc)   XCENC  =      1010.25125971
  PAW double counting   =     16527.91722612   -17026.23082585
  entropy T*S    EENTRO =         0.00000000
  eigenvalues    EBANDS =     -3016.03377092
  atomic energy  EATOM  =     23319.14298724
  Solvation  Ediel_sol  =         0.00000000
  ---------------------------------------------------
  free energy    TOTEN  =      -196.53040998 eV

  energy without entropy =     -196.53040998  energy(sigma->0) =     -196.53040998


--------------------------------------------------------------------------------------------------------




--------------------------------------- Iteration      1(  12)  ---------------------------------------


    POTLOK:  cpu time    0.2658: real time    0.2667
    SETDIJ:  cpu time    0.0266: real time    0.0268
    EDDIAG:  cpu time   10.0095: real time   10.0653
  RMM-DIIS:  cpu time   65.3729: real time   65.7602
    ORTHCH:  cpu time    0.9198: real time    0.9223
 BZINTS: Fermi energy:  2.659344;203.000000 electrons
         Band energy:***********;  BLOECHL correction: -0.034406
       DOS:  cpu time    0.0767: real time    0.0779
    CHARGE:  cpu time    2.1622: real time    2.1718
    MIXING:  cpu time    0.0091: real time    0.0092
    --------------------------------------------
      LOOP:  cpu time   78.8427: real time   79.3002

 eigenvalue-minimisations  : 21005
 total energy-change (2. order) : 0.1296161E-01  (-0.1295418E-01)
 number of electron     202.9999960 magnetization      22.9684836
 augmentation part       68.8837776 magnetization      16.2753201

 Broyden mixing:
  rms(total) = 0.77760E-01    rms(broyden)= 0.77722E-01
  rms(prec ) = 0.93269E-01
  weight for this iteration     100.00

 eigenvalues of (default mixing * dielectric matrix)
  average eigenvalue GAMMA=   0.9342
  2.1281  1.2229  1.2229  0.6767  0.6767  0.3202  0.2918

 Free energy of the ion-electron system (eV)
  ---------------------------------------------------
  alpha Z        PSCENC =      1096.51130837
  Ewald energy   TEWEN  =    -13555.49352498
  -Hartree energ DENC   =     -8544.23617300
  -exchange      EXHF   =         0.00000000
  -V(xc)+E(xc)   XCENC  =      1010.19175471
  PAW double counting   =     16583.49824406   -17086.15161565
  entropy T*S    EENTRO =         0.00000000
  eigenvalues    EBANDS =     -3019.98042911
  atomic energy  EATOM  =     23319.14298724
  Solvation  Ediel_sol  =         0.00000000
  ---------------------------------------------------
  free energy    TOTEN  =      -196.51744836 eV

  energy without entropy =     -196.51744836  energy(sigma->0) =     -196.51744836


--------------------------------------------------------------------------------------------------------




--------------------------------------- Iteration      1(  13)  ---------------------------------------


    POTLOK:  cpu time    0.2644: real time    0.2653
    SETDIJ:  cpu time    0.0259: real time    0.0260
    EDDIAG:  cpu time   10.0871: real time   10.1393
  RMM-DIIS:  cpu time   63.9812: real time   64.4337
    ORTHCH:  cpu time    0.7618: real time    0.7651
 BZINTS: Fermi energy:  2.662060;203.000000 electrons
         Band energy:***********;  BLOECHL correction: -0.034384
       DOS:  cpu time    0.0604: real time    0.0605
    --------------------------------------------
      LOOP:  cpu time   75.1807: real time   75.6898

 eigenvalue-minimisations  : 20578
 total energy-change (2. order) :-0.9149680E-03  (-0.1149698E-02)
 number of electron     202.9999960 magnetization      22.9684836
 augmentation part       68.8837776 magnetization      16.2753201

 Free energy of the ion-electron system (eV)
  ---------------------------------------------------
  alpha Z        PSCENC =      1096.51130837
  Ewald energy   TEWEN  =    -13555.49352498
  -Hartree energ DENC   =     -8546.02400058
  -exchange      EXHF   =         0.00000000
  -V(xc)+E(xc)   XCENC  =      1010.24397654
  PAW double counting   =     16603.26494949   -17107.20942566
  entropy T*S    EENTRO =         0.00000000
  eigenvalues    EBANDS =     -3016.95463376
  atomic energy  EATOM  =     23319.14298724
  Solvation  Ediel_sol  =         0.00000000
  ---------------------------------------------------
  free energy    TOTEN  =      -196.51836333 eV

  energy without entropy =     -196.51836333  energy(sigma->0) =     -196.51836333


--------------------------------------------------------------------------------------------------------




 average (electrostatic) potential at core
  the test charge radii are     0.8577  0.9577  0.7215
  (the norm of the test charge is              1.0000)
       1 -16.1421       2 -50.3271       3 -50.2701       4 -50.2718       5 -50.2898
       6 -50.2566       7 -50.2723       8 -50.2500       9 -50.3161      10 -73.2619
      11 -73.2635      12 -73.2615      13 -73.4042      14 -73.4052      15 -73.0834
      16 -73.2637      17 -73.0808      18 -73.1356      19 -73.1372      20 -73.1357
      21 -73.0836      22 -73.0860      23 -73.4041      24 -73.1378      25 -73.4036
 
 
 
 E-fermi :   2.6621     XC(G=0): -10.6815     alpha+bet : -9.6740


 spin component 1

 k-point     1 :       0.0000    0.0000    0.0000
  band No.  band energies     occupation 
      1     -48.4826      1.00000
      2     -48.4211      1.00000
      3     -48.4031      1.00000
      4     -48.3567      1.00000
      5     -48.3542      1.00000
      6     -48.3371      1.00000
      7     -48.3313      1.00000
      8     -48.3143      1.00000
      9     -48.2413      1.00000
     10     -48.2270      1.00000
     11     -48.2134      1.00000
     12     -48.2127      1.00000
     13     -48.2044      1.00000
     14     -48.1981      1.00000
     15     -48.1949      1.00000
     16     -48.1877      1.00000
     17     -48.1843      1.00000
     18     -48.1725      1.00000
     19     -48.1689      1.00000
     20     -48.1660      1.00000
     21     -48.1631      1.00000
     22     -48.1465      1.00000
     23     -48.1337      1.00000
     24     -48.1315      1.00000
     25     -41.6630      1.00000
     26     -17.5790      1.00000
     27     -16.9844      1.00000
     28     -16.8201      1.00000
     29     -16.2156      1.00000
     30     -16.1823      1.00000
     31     -16.1806      1.00000
     32     -15.9783      1.00000
     33     -15.8541      1.00000
     34     -15.8539      1.00000
     35     -15.8030      1.00000
     36     -15.7908      1.00000
     37     -15.6971      1.00000
     38     -15.6966      1.00000
     39     -15.5544      1.00000
     40     -15.5238      1.00000
     41     -15.5238      1.00000
     42      -5.1489      1.00000
     43      -4.6657      1.00000
     44      -4.6132      1.00000
     45      -4.6126      1.00000
     46      -4.1696      1.00000
     47      -4.1288      1.00000
     48      -3.9583      1.00000
     49      -3.9539      1.00000
     50      -3.8088      1.00000
     51      -3.6706      1.00000
     52      -3.6682      1.00000
     53      -3.6608      1.00000
     54      -3.5556      1.00000
     55      -3.4712      1.00000
     56      -3.1163      1.00000
     57      -3.0577      1.00000
     58      -3.0393      1.00000
     59      -3.0352      1.00000
     60      -2.9678      1.00000
     61      -2.8819      1.00000
     62      -2.8081      1.00000
     63      -2.8014      1.00000
     64      -2.7980      1.00000
     65      -2.6630      1.00000
     66      -2.4768      1.00000
     67      -2.4743      1.00000
     68      -2.3360      1.00000
     69      -2.2991      1.00000
     70      -1.9940      1.00000
     71      -1.9913      1.00000
     72      -1.8374      1.00000
     73      -1.6799      1.00000
     74      -1.6753      1.00000
     75      -1.1798      1.00000
     76      -1.1766      1.00000
     77      -0.8489      1.00000
     78      -0.8001      1.00000
     79      -0.7988      1.00000
     80      -0.7055      1.00000
     81      -0.6870      1.00000
     82      -0.5466      1.00000
     83      -0.5204      1.00000
     84      -0.5009      1.00000
     85      -0.5004      1.00000
     86      -0.3925      1.00000
     87       0.1148      1.00000
     88       0.1219      1.00000
     89       0.1357      1.00000
     90       0.2565      1.00000
     91       0.2581      1.00000
     92       0.2587      1.00000
     93       0.2713      1.00000
     94       0.2758      1.00000
     95       0.4159      1.00000
     96       0.4276      1.00000
     97       0.4381      1.00000
     98       0.4505      1.00000
     99       0.5327      1.00000
    100       0.5399      1.00000
    101       0.6118      1.00000
    102       0.6129      1.00000
    103       0.6446      1.00000
    104       0.9242      1.00000
    105       0.9495      1.00000
    106       0.9517      1.00000
    107       1.3395      1.00000
    108       1.3470      1.00000
    109       1.3531      1.00000
    110       1.3944      1.00000
    111       1.4793      1.00000
    112       1.4987      1.00000
    113       1.5045      1.00000
    114       3.2184      0.00000
    115       3.2407      0.00000
    116       3.6557      0.00000
    117       3.6626      0.00000
    118       3.8378      0.00000
    119       3.8411      0.00000
    120       3.8944      0.00000
    121       3.9859      0.00000
    122       3.9957      0.00000
    123       4.2582      0.00000
    124       4.2606      0.00000
    125       4.4245      0.00000
    126       4.4257      0.00000
    127       4.4674      0.00000
    128       4.5185      0.00000
    129       4.5613      0.00000
    130       8.4314      0.00000
    131      11.1218      0.00000
    132      11.5346      0.00000
    133      11.6551      0.00000
    134      11.6552      0.00000
    135      11.9603      0.00000
    136      12.4851      0.00000
    137      12.4868      0.00000
    138      13.2132      0.00000
    139      13.3775      0.00000
    140      13.5199      0.00000
    141      13.5216      0.00000
    142      13.5624      0.00000
    143      13.8659      0.00000
    144      15.7113      0.00000
    145      15.8478      0.00000
    146      15.9619      0.00000
    147      16.0482      0.00000
    148      16.1164      0.00000
    149      16.2190      0.00000
    150      16.4271      0.00000

 k-point     2 :       0.2500    0.0000    0.0000
  band No.  band energies     occupation 
      1     -48.4736      1.00000
      2     -48.4257      1.00000
      3     -48.3997      1.00000
      4     -48.3590      1.00000
      5     -48.3533      1.00000
      6     -48.3378      1.00000
      7     -48.3286      1.00000
      8     -48.3156      1.00000
      9     -48.2410      1.00000
     10     -48.2272      1.00000
     11     -48.2163      1.00000
     12     -48.2094      1.00000
     13     -48.2038      1.00000
     14     -48.1964      1.00000
     15     -48.1941      1.00000
     16     -48.1883      1.00000
     17     -48.1855      1.00000
     18     -48.1762      1.00000
     19     -48.1706      1.00000
     20     -48.1658      1.00000
     21     -48.1618      1.00000
     22     -48.1490      1.00000
     23     -48.1366      1.00000
     24     -48.1315      1.00000
     25     -41.6630      1.00000
     26     -17.4825      1.00000
     27     -17.0217      1.00000
     28     -16.7773      1.00000
     29     -16.3290      1.00000
     30     -16.1752      1.00000
     31     -16.1691      1.00000
     32     -15.9566      1.00000
     33     -15.8739      1.00000
     34     -15.8585      1.00000
     35     -15.8052      1.00000
     36     -15.7767      1.00000
     37     -15.7076      1.00000
     38     -15.6770      1.00000
     39     -15.5711      1.00000
     40     -15.5527      1.00000
     41     -15.5438      1.00000
     42      -4.9710      1.00000
     43      -4.4684      1.00000
     44      -4.4676      1.00000
     45      -4.3703      1.00000
     46      -4.1119      1.00000
     47      -4.0014      1.00000
     48      -3.9370      1.00000
     49      -3.9262      1.00000
     50      -3.9085      1.00000
     51      -3.7093      1.00000
     52      -3.6511      1.00000
     53      -3.6134      1.00000
     54      -3.5657      1.00000
     55      -3.3912      1.00000
     56      -3.2782      1.00000
     57      -3.2194      1.00000
     58      -3.1522      1.00000
     59      -3.0785      1.00000
     60      -3.0750      1.00000
     61      -2.9808      1.00000
     62      -2.9470      1.00000
     63      -2.9146      1.00000
     64      -2.8306      1.00000
     65      -2.7109      1.00000
     66      -2.6821      1.00000
     67      -2.4882      1.00000
     68      -2.2990      1.00000
     69      -1.9205      1.00000
     70      -1.9068      1.00000
     71      -1.8896      1.00000
     72      -1.6427      1.00000
     73      -1.6299      1.00000
     74      -1.4809      1.00000
     75      -1.3897      1.00000
     76      -1.3314      1.00000
     77      -1.2453      1.00000
     78      -1.1233      1.00000
     79      -1.0743      1.00000
     80      -0.9438      1.00000
     81      -0.6625      1.00000
     82      -0.6528      1.00000
     83      -0.6188      1.00000
     84      -0.5626      1.00000
     85      -0.3731      1.00000
     86      -0.2285      1.00000
     87      -0.1728      1.00000
     88       0.0236      1.00000
     89       0.0540      1.00000
     90       0.1657      1.00000
     91       0.2677      1.00000
     92       0.3352      1.00000
     93       0.3491      1.00000
     94       0.3713      1.00000
     95       0.4261      1.00000
     96       0.4933      1.00000
     97       0.5867      1.00000
     98       0.5910      1.00000
     99       0.6338      1.00000
    100       0.6931      1.00000
    101       0.7445      1.00000
    102       0.8147      1.00000
    103       0.8337      1.00000
    104       0.9353      1.00000
    105       1.0825      1.00000
    106       1.1214      1.00000
    107       1.1918      1.00000
    108       1.2634      1.00000
    109       1.3117      1.00000
    110       1.3737      1.00000
    111       1.4072      1.00000
    112       1.4802      1.00000
    113       1.5568      1.00000
    114       3.4174      0.00000
    115       3.4362      0.00000
    116       3.6833      0.00000
    117       3.7415      0.00000
    118       3.7507      0.00000
    119       3.7706      0.00000
    120       3.8590      0.00000
    121       3.9025      0.00000
    122       3.9063      0.00000
    123       4.0834      0.00000
    124       4.2464      0.00000
    125       4.2750      0.00000
    126       4.3039      0.00000
    127       4.3548      0.00000
    128       4.4069      0.00000
    129       4.4807      0.00000
    130       8.9202      0.00000
    131      11.2373      0.00000
    132      11.3011      0.00000
    133      11.6773      0.00000
    134      11.9790      0.00000
    135      12.0624      0.00000
    136      12.2027      0.00000
    137      12.7770      0.00000
    138      13.1758      0.00000
    139      13.5620      0.00000
    140      13.6834      0.00000
    141      13.7076      0.00000
    142      14.1812      0.00000
    143      14.5908      0.00000
    144      15.1871      0.00000
    145      15.5719      0.00000
    146      15.6607      0.00000
    147      15.8644      0.00000
    148      15.9651      0.00000
    149      16.0813      0.00000
    150      16.3118      0.00000

 k-point     3 :       0.5000    0.0000    0.0000
  band No.  band energies     occupation 
      1     -48.4600      1.00000
      2     -48.4365      1.00000
      3     -48.3940      1.00000
      4     -48.3615      1.00000
      5     -48.3527      1.00000
      6     -48.3388      1.00000
      7     -48.3241      1.00000
      8     -48.3186      1.00000
      9     -48.2407      1.00000
     10     -48.2274      1.00000
     11     -48.2163      1.00000
     12     -48.2105      1.00000
     13     -48.1969      1.00000
     14     -48.1959      1.00000
     15     -48.1939      1.00000
     16     -48.1907      1.00000
     17     -48.1869      1.00000
     18     -48.1830      1.00000
     19     -48.1716      1.00000
     20     -48.1652      1.00000
     21     -48.1571      1.00000
     22     -48.1536      1.00000
     23     -48.1397      1.00000
     24     -48.1314      1.00000
     25     -41.6630      1.00000
     26     -17.2774      1.00000
     27     -17.2062      1.00000
     28     -16.5850      1.00000
     29     -16.5479      1.00000
     30     -16.1678      1.00000
     31     -16.1579      1.00000
     32     -15.9387      1.00000
     33     -15.8788      1.00000
     34     -15.8633      1.00000
     35     -15.8103      1.00000
     36     -15.7655      1.00000
     37     -15.7281      1.00000
     38     -15.6471      1.00000
     39     -15.5874      1.00000
     40     -15.5825      1.00000
     41     -15.5739      1.00000
     42      -4.5644      1.00000
     43      -4.5426      1.00000
     44      -4.1248      1.00000
     45      -4.0345      1.00000
     46      -4.0136      1.00000
     47      -3.9355      1.00000
     48      -3.8918      1.00000
     49      -3.8720      1.00000
     50      -3.8513      1.00000
     51      -3.8063      1.00000
     52      -3.7968      1.00000
     53      -3.7015      1.00000
     54      -3.5549      1.00000
     55      -3.4779      1.00000
     56      -3.4121      1.00000
     57      -3.3449      1.00000
     58      -3.3244      1.00000
     59      -3.2552      1.00000
     60      -3.1336      1.00000
     61      -3.0557      1.00000
     62      -2.9372      1.00000
     63      -2.8922      1.00000
     64      -2.8408      1.00000
     65      -2.7563      1.00000
     66      -2.5390      1.00000
     67      -2.5122      1.00000
     68      -2.0839      1.00000
     69      -2.0583      1.00000
     70      -1.9804      1.00000
     71      -1.9732      1.00000
     72      -1.6899      1.00000
     73      -1.5922      1.00000
     74      -1.5408      1.00000
     75      -1.4658      1.00000
     76      -1.4130      1.00000
     77      -1.2598      1.00000
     78      -1.2065      1.00000
     79      -1.1493      1.00000
     80      -0.9770      1.00000
     81      -0.9050      1.00000
     82      -0.7877      1.00000
     83      -0.7858      1.00000
     84      -0.6829      1.00000
     85      -0.4513      1.00000
     86      -0.2926      1.00000
     87      -0.0694      1.00000
     88       0.0553      1.00000
     89       0.0654      1.00000
     90       0.1575      1.00000
     91       0.2413      1.00000
     92       0.2913      1.00000
     93       0.3123      1.00000
     94       0.5841      1.00000
     95       0.6353      1.00000
     96       0.6637      1.00000
     97       0.6747      1.00000
     98       0.6853      1.00000
     99       0.7319      1.00000
    100       0.7718      1.00000
    101       0.8362      1.00000
    102       0.9643      1.00000
    103       0.9830      1.00000
    104       1.0087      1.00000
    105       1.0836      1.00000
    106       1.1269      1.00000
    107       1.1349      1.00000
    108       1.1560      1.00000
    109       1.2439      1.00000
    110       1.3831      1.00000
    111       1.4192      1.00000
    112       1.4802      1.00000
    113       1.4948      1.00000
    114       3.5899      0.00000
    115       3.6111      0.00000
    116       3.6546      0.00000
    117       3.6810      0.00000
    118       3.7017      0.00000
    119       3.7225      0.00000
    120       3.8450      0.00000
    121       3.8522      0.00000
    122       3.9496      0.00000
    123       4.0506      0.00000
    124       4.0902      0.00000
    125       4.1091      0.00000
    126       4.1731      0.00000
    127       4.2142      0.00000
    128       4.2564      0.00000
    129       4.4466      0.00000
    130      10.0146      0.00000
    131      10.1373      0.00000
    132      11.4298      0.00000
    133      11.8419      0.00000
    134      11.9987      0.00000
    135      12.1651      0.00000
    136      12.2214      0.00000
    137      13.6682      0.00000
    138      13.8299      0.00000
    139      13.9021      0.00000
    140      13.9421      0.00000
    141      13.9463      0.00000
    142      14.0925      0.00000
    143      14.6442      0.00000
    144      14.6977      0.00000
    145      14.8568      0.00000
    146      15.5870      0.00000
    147      15.6583      0.00000
    148      15.7367      0.00000
    149      15.8638      0.00000
    150      16.5963      0.00000

 k-point     4 :       0.0000    0.2500    0.0000
  band No.  band energies     occupation 
      1     -48.4747      1.00000
      2     -48.4211      1.00000
      3     -48.3991      1.00000
      4     -48.3639      1.00000
      5     -48.3562      1.00000
      6     -48.3378      1.00000
      7     -48.3262      1.00000
      8     -48.3143      1.00000
      9     -48.2392      1.00000
     10     -48.2273      1.00000
     11     -48.2133      1.00000
     12     -48.2125      1.00000
     13     -48.2044      1.00000
     14     -48.2026      1.00000
     15     -48.1970      1.00000
     16     -48.1884      1.00000
     17     -48.1838      1.00000
     18     -48.1738      1.00000
     19     -48.1687      1.00000
     20     -48.1653      1.00000
     21     -48.1610      1.00000
     22     -48.1478      1.00000
     23     -48.1351      1.00000
     24     -48.1334      1.00000
     25     -41.6630      1.00000
     26     -17.4826      1.00000
     27     -17.0215      1.00000
     28     -16.7774      1.00000
     29     -16.3292      1.00000
     30     -16.1734      1.00000
     31     -16.1705      1.00000
     32     -15.9567      1.00000
     33     -15.8741      1.00000
     34     -15.8582      1.00000
     35     -15.8053      1.00000
     36     -15.7766      1.00000
     37     -15.7074      1.00000
     38     -15.6774      1.00000
     39     -15.5710      1.00000
     40     -15.5527      1.00000
     41     -15.5438      1.00000
     42      -4.9709      1.00000
     43      -4.4689      1.00000
     44      -4.4677      1.00000
     45      -4.3697      1.00000
     46      -4.1104      1.00000
     47      -4.0020      1.00000
     48      -3.9370      1.00000
     49      -3.9296      1.00000
     50      -3.9038      1.00000
     51      -3.7076      1.00000
     52      -3.6492      1.00000
     53      -3.6159      1.00000
     54      -3.5672      1.00000
     55      -3.3910      1.00000
     56      -3.2785      1.00000
     57      -3.2201      1.00000
     58      -3.1532      1.00000
     59      -3.0786      1.00000
     60      -3.0689      1.00000
     61      -2.9806      1.00000
     62      -2.9487      1.00000
     63      -2.9171      1.00000
     64      -2.8313      1.00000
     65      -2.7132      1.00000
     66      -2.6828      1.00000
     67      -2.4887      1.00000
     68      -2.3011      1.00000
     69      -1.9213      1.00000
     70      -1.9047      1.00000
     71      -1.8913      1.00000
     72      -1.6401      1.00000
     73      -1.6287      1.00000
     74      -1.4816      1.00000
     75      -1.3914      1.00000
     76      -1.3322      1.00000
     77      -1.2469      1.00000
     78      -1.1243      1.00000
     79      -1.0707      1.00000
     80      -0.9456      1.00000
     81      -0.6633      1.00000
     82      -0.6504      1.00000
[...]
    103       3.6354      0.00000
    104       3.6500      0.00000
    105       3.6830      0.00000
    106       3.6918      0.00000
    107       3.7249      0.00000
    108       3.7785      0.00000
    109       3.8067      0.00000
    110       3.8809      0.00000
    111       3.9124      0.00000
    112       3.9491      0.00000
    113       3.9627      0.00000
    114       5.0976      0.00000
    115       5.1375      0.00000
    116       5.1961      0.00000
    117       5.2772      0.00000
    118       5.2941      0.00000
    119       5.3060      0.00000
    120       5.3455      0.00000
    121       5.3704      0.00000
    122       5.3877      0.00000
    123       5.4200      0.00000
    124       5.4979      0.00000
    125       5.5833      0.00000
    126       5.6603      0.00000
    127       5.6840      0.00000
    128       5.7234      0.00000
    129       5.7763      0.00000
    130       9.9781      0.00000
    131      10.9141      0.00000
    132      11.6015      0.00000
    133      11.8011      0.00000
    134      12.1537      0.00000
    135      12.5928      0.00000
    136      13.1154      0.00000
    137      13.2178      0.00000
    138      13.7368      0.00000
    139      14.1395      0.00000
    140      14.3797      0.00000
    141      14.4566      0.00000
    142      14.7265      0.00000
    143      15.0336      0.00000
    144      15.3274      0.00000
    145      15.4046      0.00000
    146      15.8397      0.00000
    147      16.1484      0.00000
    148      16.2761      0.00000
    149      16.4943      0.00000
    150      16.8204      0.00000


--------------------------------------------------------------------------------------------------------


 soft charge-density along one line, spin component           1
         0         1         2         3         4         5         6         7         8         9
 total charge-density along one line
 
 soft charge-density along one line, spin component           2
         0         1         2         3         4         5         6         7         8         9
 total charge-density along one line
 
 pseudopotential strength for first ion, spin component:           1
-49.626   9.581  -0.000   0.000  -0.000  -0.000   0.000   0.000
  9.581  -0.621   0.000  -0.000  -0.000   0.000  -0.000  -0.000
 -0.000   0.000  -0.517   0.000  -0.000   0.264  -0.000  -0.000
  0.000  -0.000   0.000  -0.517  -0.000  -0.000   0.264  -0.000
 -0.000  -0.000  -0.000  -0.000  -0.517  -0.000  -0.000   0.264
 -0.000   0.000   0.264  -0.000  -0.000   1.932  -0.000  -0.000
  0.000  -0.000  -0.000   0.264  -0.000  -0.000   1.932  -0.000
  0.000  -0.000  -0.000  -0.000   0.264  -0.000  -0.000   1.932
 pseudopotential strength for first ion, spin component:           2
-49.614   9.577  -0.000   0.000  -0.000  -0.000   0.000   0.000
  9.577  -0.619   0.000  -0.000  -0.000   0.000  -0.000  -0.000
 -0.000   0.000  -0.507  -0.000   0.000   0.259  -0.000   0.000
  0.000  -0.000  -0.000  -0.507  -0.000  -0.000   0.259  -0.000
 -0.000  -0.000   0.000  -0.000  -0.507   0.000  -0.000   0.259
 -0.000   0.000   0.259  -0.000   0.000   1.935  -0.000   0.000
  0.000  -0.000  -0.000   0.259  -0.000  -0.000   1.935  -0.000
  0.000  -0.000   0.000  -0.000   0.259   0.000  -0.000   1.935
 total augmentation occupancy for first ion, spin component:           1
  2.016   0.109  -0.000  -0.000   0.000  -0.000   0.000  -0.000
  0.109   0.774  -0.000  -0.000   0.000   0.000   0.000  -0.000
 -0.000  -0.000   0.088  -0.000  -0.000  -0.016   0.000  -0.000
 -0.000  -0.000  -0.000   0.089   0.000   0.000  -0.016  -0.000
  0.000   0.000  -0.000   0.000   0.088  -0.000  -0.000  -0.016
 -0.000   0.000  -0.016   0.000  -0.000   0.003  -0.000   0.000
  0.000   0.000   0.000  -0.016  -0.000  -0.000   0.003   0.000
 -0.000  -0.000  -0.000  -0.000  -0.016   0.000   0.000   0.003
 total augmentation occupancy for first ion, spin component:           2
  0.001   0.004  -0.000  -0.000   0.000   0.000   0.000  -0.000
  0.004   0.030  -0.000  -0.000   0.000   0.000   0.000  -0.000
 -0.000  -0.000   0.003  -0.000  -0.000  -0.000   0.000   0.000
 -0.000  -0.000  -0.000   0.003   0.000   0.000  -0.000  -0.000
  0.000   0.000  -0.000   0.000   0.003   0.000  -0.000  -0.000
  0.000   0.000  -0.000   0.000   0.000   0.000  -0.000  -0.000
  0.000   0.000   0.000  -0.000  -0.000  -0.000   0.000   0.000
 -0.000  -0.000   0.000  -0.000  -0.000  -0.000   0.000   0.000


------------------------ aborting loop because EDIFF is reached ----------------------------------------


 


 total charge     
 
# of ion       s       p       d       tot
------------------------------------------
    1        2.081   0.213   0.000   2.293
    2        0.343   6.444   4.888  11.675
    3        0.343   6.445   4.869  11.658
    4        0.342   6.444   4.864  11.650
    5        0.343   6.445   4.877  11.666
    6        0.343   6.445   4.863  11.651
    7        0.342   6.444   4.863  11.649
    8        0.343   6.445   4.860  11.648
    9        0.343   6.444   4.882  11.669
   10        1.581   3.396   0.000   4.978
   11        1.581   3.398   0.000   4.979
   12        1.581   3.396   0.000   4.978
   13        1.569   3.461   0.000   5.030
   14        1.569   3.461   0.000   5.030
   15        1.583   3.387   0.000   4.970
   16        1.581   3.398   0.000   4.979
   17        1.583   3.385   0.000   4.968
   18        1.582   3.393   0.000   4.975
   19        1.582   3.393   0.000   4.975
   20        1.582   3.392   0.000   4.974
   21        1.583   3.387   0.000   4.970
   22        1.583   3.389   0.000   4.972
   23        1.569   3.462   0.000   5.031
   24        1.582   3.394   0.000   4.976
   25        1.569   3.462   0.000   5.031
--------------------------------------------------
tot         30.084 106.323  38.967 175.374
 


 magnetization (x)
 
# of ion       s       p       d       tot
------------------------------------------
    1        0.003   0.007   0.000   0.010
    2        0.029   0.034   2.663   2.726
    3        0.030   0.035   2.714   2.779
    4        0.029   0.034   2.670   2.732
    5        0.030   0.035   2.712   2.777
    6        0.030   0.035   2.716   2.781
    7        0.029   0.034   2.671   2.734
    8        0.030   0.035   2.717   2.782
    9        0.029   0.034   2.666   2.729
   10        0.003   0.010   0.000   0.013
   11        0.003   0.010   0.000   0.013
   12        0.003   0.010   0.000   0.013
   13        0.001   0.018   0.000   0.019
   14        0.001   0.018   0.000   0.019
   15        0.004   0.021   0.000   0.024
   16        0.003   0.010   0.000   0.013
   17        0.004   0.021   0.000   0.025
   18        0.003   0.010   0.000   0.014
   19        0.003   0.010   0.000   0.014
   20        0.003   0.010   0.000   0.014
   21        0.004   0.021   0.000   0.024
   22        0.004   0.021   0.000   0.024
   23        0.001   0.018   0.000   0.019
   24        0.003   0.010   0.000   0.014
   25        0.001   0.018   0.000   0.019
--------------------------------------------------
tot          0.284   0.519  21.528  22.331
 
    CHARGE:  cpu time    2.1002: real time    2.1123
    FORLOC:  cpu time    0.0281: real time    0.0281
    FORNL :  cpu time   19.7032: real time   19.8068
    STRESS:  cpu time   59.9147: real time   60.2424
    FORCOR:  cpu time    0.2918: real time    0.2930
    FORHAR:  cpu time    0.0707: real time    0.0713
    MIXING:  cpu time    0.0105: real time    0.0105
    OFIELD:  cpu time    0.0000: real time    0.0000

  FORCE on cell =-STRESS in cart. coord.  units (eV):
  Direction    XX          YY          ZZ          XY          YZ          ZX
  --------------------------------------------------------------------------------------
  Alpha Z  1096.51131  1096.51131  1096.51131
  Ewald   -4524.85729 -4524.72454 -4505.96229    -0.00000    -0.00622     0.24722
  Hartree  2846.79411  2848.53252  2862.70537     0.01366    -1.83803    -1.66219
  E(xc)   -1110.72813 -1110.72758 -1110.73353     0.00019    -0.00089    -0.00067
  Local   -1204.19144 -1206.31890 -1238.49368    -0.02412     2.07092     1.63856
  n-local  -906.90524  -906.91167  -906.88250    -0.00036     0.00861     0.00770
  augment   599.57033   599.57010   599.28341     0.00731     0.01650     0.01737
  Kinetic  3210.68431  3210.67728  3209.56738     0.00950     0.05234     0.05252
  Fock        0.00000     0.00000     0.00000     0.00000     0.00000     0.00000
  -------------------------------------------------------------------------------------
  Total       6.87796     6.60852     5.99546     0.00617     0.30323     0.30051
  in kB      40.30721    38.72819    35.13543     0.03616     1.77705     1.76111
  external pressure =       38.06 kB  Pullay stress =        0.00 kB


 VOLUME and BASIS-vectors are now :
 -----------------------------------------------------------------------------
  energy-cutoff  :      520.00
  volume of cell :      273.39
      direct lattice vectors                 reciprocal lattice vectors
     5.770635000  0.000000000  0.000000000     0.173291154  0.000000000  0.000000000
     0.000000000  5.770635000  0.000000000     0.000000000  0.173291154  0.000000000
     0.000000000  0.000000000  8.209947000     0.000000000  0.000000000  0.121803466

  length of vectors
     5.770635000  5.770635000  8.209947000     0.173291154  0.173291154  0.121803466


 FORCES acting on ions
    electron-ion (+dipol)            ewald-force                    non-local-force                 convergence-correction
 -----------------------------------------------------------------------------------------------
   0.772E-01 0.356E-01 -.906E-01   -.121E+00 -.305E-02 0.326E-01   -.481E-02 0.707E-03 0.102E-03   0.415E-01 -.303E-01 0.581E-01
   0.188E+02 -.616E-01 0.264E+02   -.201E+02 0.939E-03 -.269E+02   0.411E+00 -.290E-02 0.543E+00   0.119E+00 0.635E-01 -.116E+00
   -.115E+00 -.109E+02 0.317E+02   -.860E-02 0.110E+02 -.329E+02   -.552E-02 -.279E+00 0.634E+00   0.129E+00 0.211E+00 -.121E+00
   -.188E+02 -.617E-01 0.264E+02   0.201E+02 0.940E-03 -.269E+02   -.415E+00 -.372E-02 0.542E+00   -.119E+00 0.643E-01 -.106E+00
   -.116E+00 0.109E+02 0.317E+02   -.860E-02 -.110E+02 -.329E+02   -.560E-02 0.278E+00 0.634E+00   0.130E+00 -.209E+00 -.138E+00
   -.110E+02 0.660E-01 -.314E+02   0.110E+02 -.216E-03 0.329E+02   -.287E+00 0.218E-02 -.626E+00   0.333E+00 -.681E-01 -.256E+00
   0.923E-01 0.186E+02 -.267E+02   0.373E-01 -.201E+02 0.269E+02   0.598E-02 0.406E+00 -.552E+00   -.134E+00 0.309E+00 0.455E+00
   0.110E+02 0.660E-01 -.313E+02   -.110E+02 -.216E-03 0.328E+02   0.287E+00 0.306E-02 -.623E+00   -.334E+00 -.689E-01 -.266E+00
   0.923E-01 -.186E+02 -.267E+02   0.373E-01 0.201E+02 0.269E+02   0.570E-02 -.404E+00 -.553E+00   -.133E+00 -.309E+00 0.462E+00
   0.364E+00 0.344E+03 0.258E+03   0.164E-01 -.364E+03 -.272E+03   0.263E-01 0.201E+02 0.145E+02   -.402E+00 -.231E+00 -.274E+00
   0.344E+03 -.299E+00 -.258E+03   -.364E+03 0.412E-03 0.272E+03   0.201E+02 -.224E-01 -.144E+02   -.185E+00 0.316E+00 0.483E-01
   -.344E+03 -.298E+00 -.258E+03   0.364E+03 0.411E-03 0.272E+03   -.201E+02 -.218E-01 -.145E+02   0.119E+00 0.316E+00 0.510E+00
   -.348E+00 -.315E+03 -.212E+03   -.272E-01 0.330E+03 0.222E+03   -.249E-01 -.142E+02 -.960E+01   0.398E+00 0.226E+00 0.438E+00
   -.348E+00 0.316E+03 -.212E+03   -.272E-01 -.330E+03 0.222E+03   -.247E-01 0.142E+02 -.959E+01   0.398E+00 -.239E+00 0.232E+00
   -.356E+03 0.126E+00 0.257E+03   0.376E+03 0.104E-03 -.272E+03   -.206E+02 0.893E-02 0.145E+02   0.443E+00 -.133E+00 0.416E-01
   0.365E+00 -.344E+03 0.257E+03   0.164E-01 0.364E+03 -.272E+03   0.269E-01 -.201E+02 0.144E+02   -.402E+00 0.280E+00 0.108E+00
   0.356E+03 0.125E+00 0.258E+03   -.376E+03 0.104E-03 -.272E+03   0.206E+02 0.906E-02 0.145E+02   -.377E+00 -.133E+00 -.422E+00
   0.410E-01 0.357E+03 0.234E+03   -.376E-02 -.378E+03 -.247E+03   0.329E-02 0.206E+02 0.140E+02   -.403E-01 -.106E+00 -.468E+00
   0.358E+03 -.125E+00 -.233E+03   -.378E+03 -.945E-04 0.247E+03   0.206E+02 -.917E-02 -.139E+02   -.459E+00 0.132E+00 -.938E-01
   -.358E+03 -.124E+00 -.233E+03   0.378E+03 -.946E-04 0.247E+03   -.206E+02 -.908E-02 -.139E+02   0.467E+00 0.132E+00 0.240E-01
   -.425E-01 -.356E+03 -.258E+03   0.415E-02 0.376E+03 0.272E+03   -.303E-02 -.206E+02 -.145E+02   0.409E-01 0.603E-01 0.251E+00
   -.440E-01 0.356E+03 -.257E+03   0.415E-02 -.376E+03 0.272E+03   -.324E-02 0.206E+02 -.145E+02   0.416E-01 -.108E+00 -.132E+00
   -.315E+03 0.294E+00 0.212E+03   0.330E+03 -.682E-03 -.222E+03   -.142E+02 0.225E-01 0.958E+01   0.153E+00 -.314E+00 0.472E-01
   0.424E-01 -.357E+03 0.234E+03   -.376E-02 0.378E+03 -.247E+03   0.307E-02 -.206E+02 0.140E+02   -.406E-01 0.116E+00 -.261E+00
   0.315E+03 0.293E+00 0.212E+03   -.330E+03 -.684E-03 -.222E+03   0.142E+02 0.221E-01 0.958E+01   -.158E+00 -.313E+00 -.718E-01
 -----------------------------------------------------------------------------------------------
   -.142E-01 0.327E-01 0.485E-01   -.568E-13 0.284E-13 0.426E-12   -.125E-01 0.567E-03 -.317E-02   0.275E-01 -.348E-01 -.520E-01
 
 
 POSITION                                       TOTAL-FORCE (eV/Angst)
 -----------------------------------------------------------------------------------
      0.00092      0.00002      4.10473        -0.007293      0.003056      0.000499
      4.32798      2.88532      3.07873        -0.785471      0.000037     -0.133180
      0.00000      1.44266      1.02624        -0.000163      0.059739     -0.624184
      1.44266      2.88532      3.07873         0.780142     -0.000088     -0.135841
      0.00000      4.32798      1.02624        -0.000229     -0.061110     -0.623735
      1.44266      0.00000      7.18370         0.056870     -0.000049      0.624598
      2.88532      4.32798      5.13122         0.002038     -0.782225      0.132755
      4.32798      0.00000      7.18370        -0.055871     -0.000016      0.624851
      2.88532      1.44266      5.13122         0.002460      0.785643      0.132240
      2.88532      1.61105      3.20805         0.004636      0.002842     -0.027477
      1.61105      2.88532      5.00189         0.012192     -0.004849      0.027397
      4.15959      2.88532      5.00189        -0.002244     -0.003752      0.028148
      0.00000      4.15959      2.94941        -0.001652      0.446891      0.414248
      0.00000      1.61105      2.94941        -0.002484     -0.443827      0.413604
      1.27427      2.88532      1.15557        -0.052543      0.002213      0.102006
      2.88532      4.15959      3.20805         0.005741     -0.010953     -0.026501
      4.49636      2.88532      1.15557         0.041440      0.001152      0.102359
      0.00000      4.49636      7.31303         0.000169     -0.010359      0.000876
      4.49636      0.00000      0.89692        -0.006539     -0.002001      0.005806
      1.27427      0.00000      0.89692         0.008854     -0.001007      0.006470
      2.88532      1.27427      7.05438        -0.000442     -0.047739     -0.109371
      2.88532      4.49636      7.05438        -0.001487      0.056901     -0.109385
      4.15959      0.00000      5.26054         0.444542      0.002604     -0.414130
      0.00000      1.27427      7.31303         0.001171      0.005326      0.001281
      1.61105      0.00000      5.26054        -0.443837      0.001569     -0.413335
 -----------------------------------------------------------------------------------
    total drift:                                0.000810     -0.001562     -0.006629


--------------------------------------------------------------------------------------------------------



  FREE ENERGIE OF THE ION-ELECTRON SYSTEM (eV)
  ---------------------------------------------------
  free  energy   TOTEN  =      -196.51836333 eV

  energy  without entropy=     -196.51836333  energy(sigma->0) =     -196.51836333
 


--------------------------------------------------------------------------------------------------------


    POTLOK:  cpu time    0.3620: real time    0.3639


--------------------------------------------------------------------------------------------------------


     LOOP+:  cpu time 1049.4355: real time 1055.4826
    4ORBIT:  cpu time    0.0000: real time    0.0000
 


 total charge     
 
# of ion       s       p       d       tot
------------------------------------------
    1        2.081   0.213   0.000   2.293
    2        0.343   6.444   4.888  11.675
    3        0.343   6.445   4.869  11.658
    4        0.342   6.444   4.864  11.650
    5        0.343   6.445   4.877  11.666
    6        0.343   6.445   4.863  11.651
    7        0.342   6.444   4.863  11.649
    8        0.343   6.445   4.860  11.648
    9        0.343   6.444   4.882  11.669
   10        1.581   3.396   0.000   4.978
   11        1.581   3.398   0.000   4.979
   12        1.581   3.396   0.000   4.978
   13        1.569   3.461   0.000   5.030
   14        1.569   3.461   0.000   5.030
   15        1.583   3.387   0.000   4.970
   16        1.581   3.398   0.000   4.979
   17        1.583   3.385   0.000   4.968
   18        1.582   3.393   0.000   4.975
   19        1.582   3.393   0.000   4.975
   20        1.582   3.392   0.000   4.974
   21        1.583   3.387   0.000   4.970
   22        1.583   3.389   0.000   4.972
   23        1.569   3.462   0.000   5.031
   24        1.582   3.394   0.000   4.976
   25        1.569   3.462   0.000   5.031
--------------------------------------------------
tot         30.084 106.323  38.967 175.374
 


 magnetization (x)
 
# of ion       s       p       d       tot
------------------------------------------
    1        0.003   0.007   0.000   0.010
    2        0.029   0.034   2.663   2.726
    3        0.030   0.035   2.714   2.779
    4        0.029   0.034   2.670   2.732
    5        0.030   0.035   2.712   2.777
    6        0.030   0.035   2.716   2.781
    7        0.029   0.034   2.671   2.734
    8        0.030   0.035   2.717   2.782
    9        0.029   0.034   2.666   2.729
   10        0.003   0.010   0.000   0.013
   11        0.003   0.010   0.000   0.013
   12        0.003   0.010   0.000   0.013
   13        0.001   0.018   0.000   0.019
   14        0.001   0.018   0.000   0.019
   15        0.004   0.021   0.000   0.024
   16        0.003   0.010   0.000   0.013
   17        0.004   0.021   0.000   0.025
   18        0.003   0.010   0.000   0.014
   19        0.003   0.010   0.000   0.014
   20        0.003   0.010   0.000   0.014
   21        0.004   0.021   0.000   0.024
   22        0.004   0.021   0.000   0.024
   23        0.001   0.018   0.000   0.019
   24        0.003   0.010   0.000   0.014
   25        0.001   0.018   0.000   0.019
--------------------------------------------------
tot          0.284   0.519  21.528  22.331
 
 BZINTS: Fermi energy:  2.662060;203.000000 electrons
         Band energy:***********;  BLOECHL correction: -0.034384

 total amount of memory used by VASP MPI-rank0   244218. kBytes
=======================================================================

   base      :      30000. kBytes
   nonlr-proj:      17010. kBytes
   fftplans  :       7295. kBytes
   grid      :      29392. kBytes
   one-center:        777. kBytes
   wavefun   :     159744. kBytes
 
  
  
 General timing and accounting informations for this job:
 ========================================================
  
                  Total CPU time used (sec):     1068.738
                            User time (sec):     1057.338
                          System time (sec):       11.399
                         Elapsed time (sec):     1074.930
  
                   Maximum memory used (kb):   526872576.
                   Average memory used (kb):           0.
  
                          Minor page faults:       138228
                          Major page faults:          224
                 Voluntary context switches:           34
