<?xml version="1.0" encoding="ISO-8859-1"?>
<modeling>
 <generator>
  <i name="program" type="string">vasp </i>
  <i name="version" type="string">5.3.5  </i>
  <i name="subversion" type="string">31Mar14 (build Oct 24 2014 12:38:34) complex                          parallel </i>
  <i name="platform" type="string">LinuxIFC </i>
  <i name="date" type="string">2016 10 20 </i>
  <i name="time" type="string">18:54:28 </i>
 </generator>
 <incar>
  <i type="int" name="ISTART">     1</i>
  <i type="string" name="PREC">accurate</i>
  <i type="string" name="ALGO"> Fast</i>
  <i type="int" name="ISPIN">     2</i>
  <i type="int" name="ICHARG">     1</i>
  <i type="int" name="NELM">   100</i>
  <i type="int" name="IBRION">     2</i>
  <i name="EDIFF">      0.00025000</i>
  <i type="int" name="NSW">    99</i>
  <i type="int" name="ISIF">     3</i>
  <i name="ENCUT">    520.00000000</i>
  <v name="MAGMOM">      0.60000000      0.60000000      0.60000000      0.60000000      0.60000000</v>
  <i type="string" name="LREAL"> Auto</i>
  <i type="int" name="ISMEAR">    -5</i>
  <i name="SIGMA">      0.05000000</i>
  <i type="logical" name="LWAVE"> F  </i>
  <i type="logical" name="LORBIT"> F  </i>
  <i type="int" name="NELM">   100</i>
 </incar>
 <kpoints>
  <generation param="Gamma">
   <v type="int" name="divisions">       6        6        6 </v>
   <v name="usershift">      0.00000000       0.00000000       0.00000000 </v>
   <v name="genvec1">      0.16666667       0.00000000       0.00000000 </v>
   <v name="genvec2">      0.00000000       0.16666667       0.00000000 </v>
   <v name="genvec3">      0.00000000       0.00000000       0.16666667 </v>
   <v name="shift">      0.00000000       0.00000000       0.00000000 </v>
  </generation>
  <varray name="kpointlist" >
   <v>       0.00000000       0.00000000       0.00000000 </v>
   <v>       0.16666667       0.00000000       0.00000000 </v>
   <v>       0.33333333       0.00000000       0.00000000 </v>
   <v>       0.50000000       0.00000000       0.00000000 </v>
   <v>       0.16666667       0.16666667       0.00000000 </v>
   <v>       0.33333333       0.16666667       0.00000000 </v>
   <v>       0.50000000       0.16666667       0.00000000 </v>
   <v>       0.33333333       0.33333333       0.00000000 </v>
   <v>       0.50000000       0.33333333       0.00000000 </v>
   <v>       0.50000000       0.50000000       0.00000000 </v>
   <v>       0.16666667       0.16666667       0.16666667 </v>
   <v>       0.33333333       0.16666667       0.16666667 </v>
   <v>       0.50000000       0.16666667       0.16666667 </v>
   <v>       0.33333333       0.33333333       0.16666667 </v>
   <v>       0.50000000       0.33333333       0.16666667 </v>
   <v>       0.50000000       0.50000000       0.16666667 </v>
   <v>       0.33333333       0.33333333       0.33333333 </v>
   <v>       0.50000000       0.33333333       0.33333333 </v>
   <v>       0.50000000       0.50000000       0.33333333 </v>
   <v>       0.50000000       0.50000000       0.50000000 </v>
  </varray>
  <varray name="weights" >
   <v>       0.00462963 </v>
   <v>       0.02777778 </v>
   <v>       0.02777778 </v>
   <v>       0.01388889 </v>
   <v>       0.05555556 </v>
   <v>       0.11111111 </v>
   <v>       0.05555556 </v>
   <v>       0.05555556 </v>
   <v>       0.05555556 </v>
   <v>       0.01388889 </v>
   <v>       0.03703704 </v>
   <v>       0.11111111 </v>
   <v>       0.05555556 </v>
   <v>       0.11111111 </v>
   <v>       0.11111111 </v>
   <v>       0.02777778 </v>
   <v>       0.03703704 </v>
   <v>       0.05555556 </v>
   <v>       0.02777778 </v>
   <v>       0.00462963 </v>
  </varray>
  <varray name="tetrahedronlist"  type="int" >
   <v type="int" >       12        1        2        2        5 </v>
   <v type="int" >       12        2        2        5        5 </v>
   <v type="int" >       12        2        5        5       11 </v>
   <v type="int" >       12        2        3        5        6 </v>
   <v type="int" >       12        2        5        5        6 </v>
   <v type="int" >       12        5        5        6       11 </v>
   <v type="int" >       12        3        5        6        6 </v>
   <v type="int" >       24        5        6        6       12 </v>
   <v type="int" >       24        5        6       11       12 </v>
   <v type="int" >       12        3        4        6        7 </v>
   <v type="int" >       12        3        6        6        7 </v>
   <v type="int" >       12        6        6        7       12 </v>
   <v type="int" >       12        4        6        7        7 </v>
   <v type="int" >       12        6        7        7       13 </v>
   <v type="int" >       12        6        7       12       13 </v>
   <v type="int" >       12        5        6        8       11 </v>
   <v type="int" >       12        6        8       11       12 </v>
   <v type="int" >       12        8       11       12       14 </v>
   <v type="int" >       12        6        7        9       12 </v>
   <v type="int" >       12        6        8        9       12 </v>
   <v type="int" >       12        8        9       12       14 </v>
   <v type="int" >       12        7        9       12       13 </v>
   <v type="int" >       12        9       12       13       15 </v>
   <v type="int" >       12        9       12       14       15 </v>
   <v type="int" >       12        6        7        8       13 </v>
   <v type="int" >       12        7        8        9       13 </v>
   <v type="int" >       12        8        9       13       15 </v>
   <v type="int" >       12        6        8       12       13 </v>
   <v type="int" >       12        8       12       13       14 </v>
   <v type="int" >       12        8       13       14       15 </v>
   <v type="int" >       12        6        6        8       12 </v>
   <v type="int" >       12        6        8       12       14 </v>
   <v type="int" >       12        6       11       12       12 </v>
   <v type="int" >       12        6       12       12       14 </v>
   <v type="int" >       12        2        3        5       11 </v>
   <v type="int" >       12        3        5        6       11 </v>
   <v type="int" >       12        3        6       11       12 </v>
   <v type="int" >       12        8        9       10       14 </v>
   <v type="int" >       12        9       10       14       15 </v>
   <v type="int" >       12       10       14       15       16 </v>
   <v type="int" >       12        8        9        9       15 </v>
   <v type="int" >       12        9        9       10       15 </v>
   <v type="int" >       12        9       10       15       16 </v>
   <v type="int" >       12        8        9       14       15 </v>
   <v type="int" >       12        9       14       15       15 </v>
   <v type="int" >       12        9       15       15       16 </v>
   <v type="int" >       12        6        7        8       14 </v>
   <v type="int" >       12        7        8        9       14 </v>
   <v type="int" >       12        7        9       14       15 </v>
   <v type="int" >       12        6        7       12       14 </v>
   <v type="int" >       12        7       12       13       14 </v>
   <v type="int" >       12        7       13       14       15 </v>
   <v type="int" >       12        3        4        6       12 </v>
   <v type="int" >       12        4        6        7       12 </v>
   <v type="int" >       12        4        7       12       13 </v>
   <v type="int" >       12        8        9       10       16 </v>
   <v type="int" >       12        8        9       15       16 </v>
   <v type="int" >       12        8       14       15       16 </v>
   <v type="int" >       12        6        7        9       15 </v>
   <v type="int" >       12        6        8        9       15 </v>
   <v type="int" >       12        6        8       14       15 </v>
   <v type="int" >       12        6        7       13       15 </v>
   <v type="int" >       12        6       12       13       15 </v>
   <v type="int" >       12        6       12       14       15 </v>
   <v type="int" >       12        3        4        7       13 </v>
   <v type="int" >       12        3        6        7       13 </v>
   <v type="int" >       12        3        6       12       13 </v>
   <v type="int" >       12        5        6        8       14 </v>
   <v type="int" >       12        5        6       12       14 </v>
   <v type="int" >       12        5       11       12       14 </v>
   <v type="int" >       12        2        3        6       12 </v>
   <v type="int" >       12        2        5        6       12 </v>
   <v type="int" >       12        2        5       11       12 </v>
   <v type="int" >       12        1        2        5       11 </v>
   <v type="int" >       12       11       12       12       14 </v>
   <v type="int" >       12       12       12       14       14 </v>
   <v type="int" >       12       12       14       14       17 </v>
   <v type="int" >       12       12       13       14       15 </v>
   <v type="int" >       12       12       14       14       15 </v>
   <v type="int" >       12       14       14       15       17 </v>
   <v type="int" >       12       13       14       15       15 </v>
   <v type="int" >       24       14       15       15       18 </v>
   <v type="int" >       24       14       15       17       18 </v>
   <v type="int" >       12       14       15       16       17 </v>
   <v type="int" >       12       15       16       17       18 </v>
   <v type="int" >       12       16       17       18       19 </v>
   <v type="int" >       12       15       15       16       18 </v>
   <v type="int" >       12       15       16       18       19 </v>
   <v type="int" >       12       15       17       18       18 </v>
   <v type="int" >       12       15       18       18       19 </v>
   <v type="int" >       12       12       13       14       17 </v>
   <v type="int" >       12       13       14       15       17 </v>
   <v type="int" >       12       13       15       17       18 </v>
   <v type="int" >       12       14       15       16       19 </v>
   <v type="int" >       12       14       15       18       19 </v>
   <v type="int" >       12       14       17       18       19 </v>
   <v type="int" >       12       12       13       15       18 </v>
   <v type="int" >       12       12       14       15       18 </v>
   <v type="int" >       12       12       14       17       18 </v>
   <v type="int" >       12       11       12       14       17 </v>
   <v type="int" >       12       17       18       18       19 </v>
   <v type="int" >       12       18       18       19       19 </v>
   <v type="int" >       12       18       19       19       20 </v>
   <v type="int" >       12       17       18       19       20 </v>
  </varray>
  <i name="volumeweight">      0.00077160 </i>
 </kpoints>
 <parameters>
  <separator name="general" >
   <i type="string" name="SYSTEM">unknown system</i>
   <i type="logical" name="LCOMPAT"> F  </i>
  </separator>
  <separator name="electronic" >
   <i type="string" name="PREC">accura</i>
   <i name="ENMAX">    520.00000000</i>
   <i name="ENAUG">    605.39200000</i>
   <i name="EDIFF">      0.00025000</i>
   <i type="int" name="IALGO">    68</i>
   <i type="int" name="IWAVPR">    11</i>
   <i type="int" name="NBANDS">    32</i>
   <i name="NELECT">     38.00000000</i>
   <i type="int" name="TURBO">     0</i>
   <i type="int" name="IRESTART">     0</i>
   <i type="int" name="NREBOOT">     0</i>
   <i type="int" name="NMIN">     0</i>
   <i name="EREF">      0.00000000</i>
   <separator name="electronic smearing" >
    <i type="int" name="ISMEAR">    -5</i>
    <i name="SIGMA">      0.05000000</i>
    <i name="KSPACING">      0.50000000</i>
    <i type="logical" name="KGAMMA"> T  </i>
   </separator>
   <separator name="electronic projectors" >
    <i type="logical" name="LREAL"> T  </i>
    <v name="ROPT">     -0.00025000     -0.00025000     -0.00025000</v>
    <i type="int" name="LMAXPAW">  -100</i>
    <i type="int" name="LMAXMIX">     2</i>
    <i type="logical" name="NLSPLINE"> F  </i>
   </separator>
   <separator name="electronic startup" >
    <i type="int" name="ISTART">     0</i>
    <i type="int" name="ICHARG">     1</i>
    <i type="int" name="INIWAV">     1</i>
   </separator>
   <separator name="electronic spin" >
    <i type="int" name="ISPIN">     2</i>
    <i type="logical" name="LNONCOLLINEAR"> F  </i>
    <v name="MAGMOM">      0.60000000      0.60000000      0.60000000      0.60000000      0.60000000</v>
    <i name="NUPDOWN">     -1.00000000</i>
    <i type="logical" name="LSORBIT"> F  </i>
    <v name="SAXIS">      0.00000000      0.00000000      1.00000000</v>
    <i type="logical" name="LSPIRAL"> F  </i>
    <v name="QSPIRAL">      0.00000000      0.00000000      0.00000000</v>
    <i type="logical" name="LZEROZ"> F  </i>
   </separator>
   <separator name="electronic exchange-correlation" >
    <i type="logical" name="LASPH"> F  </i>
    <i type="logical" name="LMETAGGA"> F  </i>
   </separator>
   <separator name="electronic convergence" >
    <i type="int" name="NELM">   100</i>
    <i type="int" name="NELMDL">     0</i>
    <i type="int" name="NELMIN">     2</i>
    <i name="ENINI">    520.00000000</i>
    <separator name="electronic convergence detail" >
     <i type="logical" name="LDIAG"> T  </i>
     <i type="logical" name="LSUBROT"> F  </i>
     <i name="WEIMIN">      0.00100000</i>
     <i name="EBREAK">      0.00000195</i>
     <i name="DEPER">      0.30000000</i>
     <i type="int" name="NRMM">     4</i>
     <i name="TIME">      0.40000000</i>
    </separator>
   </separator>
   <separator name="electronic mixer" >
    <i name="AMIX">      0.40000000</i>
    <i name="BMIX">      1.00000000</i>
    <i name="AMIN">      0.10000000</i>
    <i name="AMIX_MAG">      1.60000000</i>
    <i name="BMIX_MAG">      1.00000000</i>
    <separator name="electronic mixer details" >
     <i type="int" name="IMIX">     4</i>
     <i type="int" name="MAXMIX">   -45</i>
     <i name="WC">    100.00000000</i>
     <i type="int" name="INIMIX">     1</i>
     <i type="int" name="MIXPRE">     1</i>
     <i type="int" name="MREMOVE">     5</i>
    </separator>
   </separator>
   <separator name="electronic dipolcorrection" >
    <i type="logical" name="LDIPOL"> F  </i>
    <i type="logical" name="LMONO"> F  </i>
    <i type="int" name="IDIPOL">     0</i>
    <i name="EPSILON">      1.00000000</i>
    <v name="DIPOL">   -100.00000000   -100.00000000   -100.00000000</v>
    <i name="EFIELD">      0.00000000</i>
   </separator>
  </separator>
  <separator name="grids" >
   <i type="int" name="NGX">    30</i>
   <i type="int" name="NGY">    30</i>
   <i type="int" name="NGZ">    30</i>
   <i type="int" name="NGXF">    60</i>
   <i type="int" name="NGYF">    60</i>
   <i type="int" name="NGZF">    60</i>
   <i type="logical" name="ADDGRID"> F  </i>
  </separator>
  <separator name="ionic" >
   <i type="int" name="NSW">    99</i>
   <i type="int" name="IBRION">     2</i>
   <i type="int" name="ISIF">     3</i>
   <i name="PSTRESS">      0.00000000</i>
   <i name="EDIFFG">      0.00250000</i>
   <i type="int" name="NFREE">     1</i>
   <i name="POTIM">      0.50000000</i>
   <i name="SMASS">     -3.00000000</i>
   <i name="SCALEE">      1.00000000</i>
  </separator>
  <separator name="ionic md" >
   <i name="TEBEG">      0.00010000</i>
   <i name="TEEND">      0.00010000</i>
   <i type="int" name="NBLOCK">     1</i>
   <i type="int" name="KBLOCK">    99</i>
   <i type="int" name="NPACO">   256</i>
   <i name="APACO">     16.00000000</i>
  </separator>
  <separator name="symmetry" >
   <i type="int" name="ISYM">     2</i>
   <i name="SYMPREC">      0.00001000</i>
  </separator>
  <separator name="dos" >
   <i type="logical" name="LORBIT"> F  </i>
   <v name="RWIGS">     -1.00000000     -1.00000000     -1.00000000</v>
   <i type="int" name="NEDOS">   301</i>
   <i name="EMIN">     10.00000000</i>
   <i name="EMAX">    -10.00000000</i>
   <i name="EFERMI">      0.00000000</i>
  </separator>
  <separator name="writing" >
   <i type="int" name="NWRITE">     2</i>
   <i type="logical" name="LWAVE"> F  </i>
   <i type="logical" name="LCHARG"> T  </i>
   <i type="logical" name="LPARD"> F  </i>
   <i type="logical" name="LVTOT"> F  </i>
   <i type="logical" name="LVHAR"> F  </i>
   <i type="logical" name="LELF"> F  </i>
   <i type="logical" name="LOPTICS"> F  </i>
   <v name="STM">      0.00000000      0.00000000      0.00000000      0.00000000      0.00000000      0.00000000      0.00000000</v>
  </separator>
  <separator name="performance" >
   <i type="int" name="NPAR">     8</i>
   <i type="int" name="NSIM">     4</i>
   <i type="int" name="NBLK">    -1</i>
   <i type="logical" name="LPLANE"> T  </i>
   <i type="logical" name="LSCALAPACK"> T  </i>
   <i type="logical" name="LSCAAWARE"> F  </i>
   <i type="logical" name="LSCALU"> F  </i>
   <i type="logical" name="LASYNC"> F  </i>
   <i type="logical" name="LORBITALREAL"> F  </i>
  </separator>
  <separator name="miscellaneous" >
   <i type="int" name="IDIOT">     3</i>
   <i type="logical" name="LMUSIC"> F  </i>
   <v name="POMASS">    137.32700000     47.88000000     16.00000000</v>
   <v name="DARWINR">      0.00000000      0.00000000      0.00000000</v>
   <v name="DARWINV">      1.00000000      1.00000000      1.00000000</v>
   <i type="logical" name="LCORR"> T  </i>
  </separator>
  <i type="logical" name="GGA_COMPAT"> T  </i>
  <i type="logical" name="LBERRY"> F  </i>
  <i type="int" name="ICORELEVEL">     0</i>
  <i type="logical" name="LDAU"> F  </i>
  <i type="int" name="I_CONSTRAINED_M">     0</i>
  <separator name="electronic exchange-correlation" >
   <i type="string" name="GGA">--</i>
   <i type="int" name="VOSKOWN">     0</i>
   <i type="logical" name="LHFCALC"> F  </i>
   <i type="string" name="PRECFOCK"></i>
   <i type="logical" name="LSYMGRAD"> F  </i>
   <i type="logical" name="LHFONE"> F  </i>
   <i type="logical" name="LRHFCALC"> F  </i>
   <i type="logical" name="LTHOMAS"> F  </i>
   <i type="logical" name="LMODELHF"> F  </i>
   <i name="ENCUT4O">     -1.00000000</i>
   <i type="int" name="EXXOEP">     0</i>
   <i type="int" name="FOURORBIT">     0</i>
   <i name="AEXX">      0.00000000</i>
   <i name="HFALPHA">      0.00000000</i>
   <i name="MCALPHA">      0.00000000</i>
   <i name="ALDAX">      1.00000000</i>
   <i name="AGGAX">      1.00000000</i>
   <i name="ALDAC">      1.00000000</i>
   <i name="AGGAC">      1.00000000</i>
   <i type="int" name="NKREDX">     1</i>
   <i type="int" name="NKREDY">     1</i>
   <i type="int" name="NKREDZ">     1</i>
   <i type="logical" name="SHIFTRED"> F  </i>
   <i type="logical" name="ODDONLY"> F  </i>
   <i type="logical" name="EVENONLY"> F  </i>
   <i type="int" name="LMAXFOCK">     0</i>
   <i type="int" name="NMAXFOCKAE">     0</i>
   <i type="logical" name="LFOCKAEDFT"> F  </i>
   <i name="HFSCREEN">      0.00000000</i>
   <i name="HFSCREENC">      0.00000000</i>
   <i type="int" name="NBANDSGWLOW">     0</i>
  </separator>
  <separator name="vdW DFT" >
   <i type="logical" name="LUSE_VDW"> F  </i>
   <i name="Zab_VDW">     -0.84910000</i>
   <i name="PARAM1">      0.12340000</i>
   <i name="PARAM2">      1.00000000</i>
   <i name="PARAM3">      0.00000000</i>
  </separator>
  <separator name="model GW" >
   <i type="int" name="MODEL_GW">     0</i>
   <i name="MODEL_EPS0">      7.87190957</i>
   <i name="MODEL_ALPHA">      1.00000000</i>
  </separator>
  <separator name="linear response parameters" >
   <i type="logical" name="LEPSILON"> F  </i>
   <i type="logical" name="LRPA"> F  </i>
   <i type="logical" name="LNABLA"> F  </i>
   <i type="logical" name="LVEL"> F  </i>
   <i type="int" name="KINTER">     0</i>
   <i name="CSHIFT">      0.10000000</i>
   <i name="OMEGAMAX">     -1.00000000</i>
   <i name="DEG_THRESHOLD">      0.00200000</i>
  </separator>
  <separator name="orbital magnetization" >
   <i type="logical" name="NUCIND"> F  </i>
   <v name="MAGPOS">      0.00000000      0.00000000      0.00000000</v>
   <i type="logical" name="LNICSALL"> T  </i>
   <i type="logical" name="ORBITALMAG"> F  </i>
   <i type="logical" name="LMAGBLOCH"> F  </i>
   <i type="logical" name="LCHIMAG"> F  </i>
   <i type="logical" name="LGAUGE"> T  </i>
   <i type="int" name="MAGATOM">     0</i>
   <v name="MAGDIPOL">      0.00000000      0.00000000      0.00000000</v>
   <v name="AVECCONST">      0.00000000      0.00000000      0.00000000</v>
  </separator>
  <separator name="response functions" >
   <i type="logical" name="LADDER"> F  </i>
   <i type="logical" name="LFXC"> F  </i>
   <i type="logical" name="LHARTREE"> T  </i>
   <i type="int" name="IBSE">     0</i>
   <i type="logical" name="LTCTE"> F  </i>
   <i type="logical" name="LTETE"> F  </i>
   <i type="logical" name="LTRIPLET"> F  </i>
   <i type="logical" name="LFXCEPS"> F  </i>
   <i type="logical" name="LFXHEG"> F  </i>
   <i type="logical" name="L2ORDER"> F  </i>
   <i type="logical" name="LUSEW"> F  </i>
   <i name="ENCUTGW">     -2.00000000</i>
   <i name="ENCUTGWSOFT">     -2.00000000</i>
   <i name="ENCUTLF">     -1.00000000</i>
   <i type="int" name="LMAXMP2">    -1</i>
   <i name="SCISSOR">      0.00000000</i>
   <i type="int" name="NOMEGA">     0</i>
   <i type="int" name="NOMEGAR">     0</i>
   <i type="int" name="NBANDSGW">    -1</i>
   <i type="int" name="NBANDSO">    -1</i>
   <i type="int" name="NBANDSV">    -1</i>
   <i type="int" name="NELM">   100</i>
   <i type="int" name="DIM">     3</i>
   <i type="int" name="ANTIRES">     0</i>
   <i name="OMEGAMAX">    -30.00000000</i>
   <i name="OMEGAMIN">    -30.00000000</i>
   <i name="OMEGATL">   -200.00000000</i>
   <i type="int" name="OMEGAGRID">     0</i>
   <i name="CSHIFT">     -0.10000000</i>
   <i type="logical" name="SELFENERGY"> F  </i>
   <i type="logical" name="LSPECTRAL"> F  </i>
   <i type="logical" name="ODDONLYGW"> F  </i>
   <i type="logical" name="EVENONLYGW"> F  </i>
   <i type="int" name="NKREDLFX">     1</i>
   <i type="int" name="NKREDLFY">     1</i>
   <i type="int" name="NKREDLFZ">     1</i>
   <i type="int" name="MAXMEM">  1800</i>
   <i type="int" name="TELESCOPE">     0</i>
   <i type="int" name="TAUPAR">     1</i>
  </separator>
  <separator name="External order field" >
   <i name="OFIELD_KAPPA">      0.00000000</i>
   <v name="OFIELD_K">      0.00000000      0.00000000      0.00000000</v>
   <i name="OFIELD_Q6_NEAR">      0.00000000</i>
   <i name="OFIELD_Q6_FAR">      0.00000000</i>
   <i name="OFIELD_A">      0.00000000</i>
  </separator>
 </parameters>
 <atominfo>
  <atoms>       5 </atoms>
  <types>       3 </types>
  <array name="atoms" >
   <dimension dim="1">ion</dimension>
   <field type="string">element</field>
   <field type="int">atomtype</field>
   <set>
    <rc><c>Ba</c><c>   1</c></rc>
    <rc><c>Ti</c><c>   2</c></rc>
    <rc><c>O </c><c>   3</c></rc>
    <rc><c>O </c><c>   3</c></rc>
    <rc><c>O </c><c>   3</c></rc>
   </set>
  </array>
  <array name="atomtypes" >
   <dimension dim="1">type</dimension>
   <field type="int">atomspertype</field>
   <field type="string">element</field>
   <field>mass</field>
   <field>valence</field>
   <field type="string">pseudopotential</field>
   <set>
    <rc><c>   1</c><c>Ba</c><c>    137.32700000</c><c>     10.00000000</c><c>  PAW_PBE Ba_sv 06Sep2000               </c></rc>
    <rc><c>   1</c><c>Ti</c><c>     47.88000000</c><c>     10.00000000</c><c>  PAW_PBE Ti_pv 07Sep2000               </c></rc>
    <rc><c>   3</c><c>O </c><c>     16.00000000</c><c>      6.00000000</c><c>  PAW_PBE O 08Apr2002                   </c></rc>
   </set>
  </array>
 </atominfo>
 <structure name="initialpos" >
  <crystal>
   <varray name="basis" >
    <v>       4.03304391       0.00000000       0.00000000 </v>
    <v>       0.00000000       4.03304391       0.00000000 </v>
    <v>       0.00000000       0.00000000       4.03304391 </v>
   </varray>
   <i name="volume">     65.59924640 </i>
   <varray name="rec_basis" >
    <v>       0.24795168       0.00000000       0.00000000 </v>
    <v>       0.00000000       0.24795168       0.00000000 </v>
    <v>       0.00000000       0.00000000       0.24795168 </v>
   </varray>
  </crystal>
  <varray name="positions" >
   <v>       0.00000000       0.00000000       0.00280000 </v>
   <v>       0.50000000       0.50000000       0.50280000 </v>
   <v>       0.00000000       0.50000000       0.50280000 </v>
   <v>       0.50000000       0.00000000       0.50280000 </v>
   <v>       0.50000000       0.50000000       0.00280000 </v>
  </varray>
 </structure>
 <calculation>
  <scstep>
   <time name="dav">    4.08    4.09</time>
   <time name="total">    4.20    4.22</time>
   <energy>
    <i name="alphaZ">    255.43341277 </i>
    <i name="ewald">  -2507.06899291 </i>
    <i name="hartreedc">   -637.92269680 </i>
    <i name="XCdc">    146.61787806 </i>
    <i name="pawpsdc">   3591.57463769 </i>
    <i name="pawaedc">  -3600.95811672 </i>
    <i name="eentropy">      0.00000000 </i>
    <i name="bandstr">     49.69829668 </i>
    <i name="atom">   3040.52701931 </i>
    <i name="e_fr_energy">    337.90143808 </i>
    <i name="e_wo_entrp">    337.90143808 </i>
    <i name="e_0_energy">    337.90143808 </i>
   </energy>
  </scstep>
  <scstep>
   <time name="dav">    4.31    4.32</time>
   <time name="total">    4.33    4.34</time>
   <energy>
    <i name="e_fr_energy">    -14.33971361 </i>
    <i name="e_wo_entrp">    -14.33971361 </i>
    <i name="e_0_energy">    -14.33971361 </i>
   </energy>
  </scstep>
  <scstep>
   <time name="dav">    4.70    4.71</time>
   <time name="total">    4.70    4.72</time>
   <energy>
    <i name="e_fr_energy">    -39.35144772 </i>
    <i name="e_wo_entrp">    -39.35144772 </i>
    <i name="e_0_energy">    -39.35144772 </i>
   </energy>
  </scstep>
  <scstep>
   <time name="dav">    4.85    4.85</time>
   <time name="total">    4.86    4.87</time>
   <energy>
    <i name="e_fr_energy">    -39.87387796 </i>
    <i name="e_wo_entrp">    -39.87387796 </i>
    <i name="e_0_energy">    -39.87387796 </i>
   </energy>
  </scstep>
  <scstep>
   <time name="dav">    4.78    4.78</time>
   <time name="total">    5.02    5.02</time>
   <energy>
    <i name="e_fr_energy">    -39.88700813 </i>
    <i name="e_wo_entrp">    -39.88700813 </i>
    <i name="e_0_energy">    -39.88700813 </i>
   </energy>
  </scstep>
  <scstep>
   <time name="diag">    0.67    0.67</time>
   <time name="diis">    1.85    1.85</time>
   <time name="orth">    0.04    0.04</time>
   <time name="total">    2.90    2.91</time>
   <energy>
    <i name="e_fr_energy">    -39.88621456 </i>
    <i name="e_wo_entrp">    -39.88621456 </i>
    <i name="e_0_energy">    -39.88621456 </i>
   </energy>
  </scstep>
  <scstep>
   <time name="diag">    0.67    0.67</time>
   <time name="diis">    1.49    1.50</time>
   <time name="orth">    0.04    0.04</time>
   <time name="total">    2.30    2.31</time>
   <energy>
    <i name="alphaZ">    255.43341277 </i>
    <i name="ewald">  -2507.06899291 </i>
    <i name="hartreedc">   -637.92242619 </i>
    <i name="XCdc">    146.61954116 </i>
    <i name="pawpsdc">   3592.34621143 </i>
    <i name="pawaedc">  -3601.73832780 </i>
    <i name="eentropy">      0.00000000 </i>
    <i name="bandstr">   -328.08266569 </i>
    <i name="atom">   3040.52701931 </i>
    <i name="e_fr_energy">    -39.88622793 </i>
    <i name="e_wo_entrp">    -39.88622793 </i>
    <i name="e_0_energy">    -39.88622793 </i>
   </energy>
  </scstep>
  <structure>
   <crystal>
    <varray name="basis" >
     <v>       4.03304391       0.00000000       0.00000000 </v>
     <v>       0.00000000       4.03304391       0.00000000 </v>
     <v>       0.00000000       0.00000000       4.03304391 </v>
    </varray>
    <i name="volume">     65.59924640 </i>
    <varray name="rec_basis" >
     <v>       0.24795168       0.00000000       0.00000000 </v>
     <v>       0.00000000       0.24795168       0.00000000 </v>
     <v>       0.00000000       0.00000000       0.24795168 </v>
    </varray>
   </crystal>
   <varray name="positions" >
    <v>       0.00000000       0.00000000       0.00280000 </v>
    <v>       0.50000000       0.50000000       0.50280000 </v>
    <v>       0.00000000       0.50000000       0.50280000 </v>
    <v>       0.50000000       0.00000000       0.50280000 </v>
    <v>       0.50000000       0.50000000       0.00280000 </v>
   </varray>
  </structure>
  <varray name="forces" >
   <v>      -0.00000000       0.00000000      -0.00000000 </v>
   <v>      -0.00000000      -0.00000000      -0.00000000 </v>
   <v>      -0.00000000       0.00000000       0.00000000 </v>
   <v>      -0.00000000       0.00000000       0.00000000 </v>
   <v>       0.00000000      -0.00000000       0.00000000 </v>
  </varray>
  <varray name="stress" >
   <v>       1.98839637       0.00000000      -0.00000000 </v>
   <v>       0.00000000       1.98839637      -0.00000000 </v>
   <v>       0.00000000       0.00000000       1.98839637 </v>
  </varray>
  <energy>
   <i name="e_fr_energy">    -39.88622793 </i>
   <i name="e_wo_entrp">    -39.88622793 </i>
   <i name="e_0_energy">      0.00000000 </i>
  </energy>
  <time name="totalsc">   34.82   34.92</time>
  <eigenvalues>
   <array>
    <dimension dim="1">band</dimension>
    <dimension dim="2">kpoint</dimension>
    <dimension dim="3">spin</dimension>
    <field>eigene</field>
    <field>occ</field>
    <set>
     <set comment="spin 1">
      <set comment="kpoint 1">
       <r>  -29.9763    1.0000 </r>
       <r>  -29.9763    1.0000 </r>
       <r>  -29.9763    1.0000 </r>
       <r>  -21.8595    1.0000 </r>
       <r>  -13.8432    1.0000 </r>
       <r>  -13.1490    1.0000 </r>
       <r>  -13.1490    1.0000 </r>
       <r>   -7.0295    1.0000 </r>
       <r>   -7.0295    1.0000 </r>
       <r>   -7.0295    1.0000 </r>
       <r>    0.7019    1.0000 </r>
       <r>    0.7019    1.0000 </r>
       <r>    0.7019    1.0000 </r>
       <r>    1.9618    1.0000 </r>
       <r>    1.9618    1.0000 </r>
       <r>    1.9618    1.0000 </r>
       <r>    2.8579    1.0000 </r>
       <r>    2.8579    1.0000 </r>
       <r>    2.8579    1.0000 </r>
       <r>    4.6804    0.0000 </r>
       <r>    4.6804    0.0000 </r>
       <r>    4.6804    0.0000 </r>
       <r>    6.7239    0.0000 </r>
       <r>    6.7239    0.0000 </r>
       <r>    8.0369    0.0000 </r>
       <r>    8.0369    0.0000 </r>
       <r>   10.1469    0.0000 </r>
       <r>   11.4199    0.0000 </r>
       <r>   11.4199    0.0000 </r>
       <r>   11.4199    0.0000 </r>
       <r>   17.5762    0.0000 </r>
       <r>   19.7075    0.0000 </r>
      </set>
      <set comment="kpoint 2">
       <r>  -29.9878    1.0000 </r>
       <r>  -29.9758    1.0000 </r>
       <r>  -29.9758    1.0000 </r>
       <r>  -21.8335    1.0000 </r>
       <r>  -13.8551    1.0000 </r>
       <r>  -13.1406    1.0000 </r>
       <r>  -13.1264    1.0000 </r>
       <r>   -6.9921    1.0000 </r>
       <r>   -6.9921    1.0000 </r>
       <r>   -6.9343    1.0000 </r>
       <r>    0.2814    1.0000 </r>
       <r>    0.6315    1.0000 </r>
       <r>    0.6315    1.0000 </r>
       <r>    1.6760    1.0000 </r>
       <r>    1.6760    1.0000 </r>
       <r>    1.7330    1.0000 </r>
       <r>    2.2399    1.0000 </r>
       <r>    2.6787    1.0000 </r>
       <r>    2.6787    1.0000 </r>
       <r>    4.7159    0.0000 </r>
       <r>    5.1849    0.0000 </r>
       <r>    5.1849    0.0000 </r>
       <r>    6.7255    0.0000 </r>
       <r>    7.3973    0.0000 </r>
       <r>    8.5213    0.0000 </r>
       <r>    8.5556    0.0000 </r>
       <r>   10.7950    0.0000 </r>
       <r>   11.3475    0.0000 </r>
       <r>   11.7060    0.0000 </r>
       <r>   11.7060    0.0000 </r>
       <r>   17.4209    0.0000 </r>
       <r>   19.8059    0.0000 </r>
      </set>
      <set comment="kpoint 3">
       <r>  -30.0106    1.0000 </r>
       <r>  -29.9750    1.0000 </r>
       <r>  -29.9750    1.0000 </r>
       <r>  -21.7804    1.0000 </r>
       <r>  -13.9556    1.0000 </r>
       <r>  -13.1235    1.0000 </r>
       <r>  -12.9871    1.0000 </r>
       <r>   -6.9147    1.0000 </r>
       <r>   -6.9147    1.0000 </r>
       <r>   -6.7473    1.0000 </r>
       <r>   -0.5330    1.0000 </r>
       <r>    0.4197    1.0000 </r>
       <r>    0.4197    1.0000 </r>
       <r>    1.3151    1.0000 </r>
       <r>    1.3151    1.0000 </r>
       <r>    1.3382    1.0000 </r>
       <r>    1.4091    1.0000 </r>
       <r>    2.4184    1.0000 </r>
       <r>    2.4184    1.0000 </r>
       <r>    4.7893    0.0000 </r>
       <r>    5.9902    0.0000 </r>
       <r>    5.9902    0.0000 </r>
       <r>    6.7284    0.0000 </r>
       <r>    8.3240    0.0000 </r>
       <r>    9.4973    0.0000 </r>
       <r>    9.7542    0.0000 </r>
       <r>   11.1987    0.0000 </r>
       <r>   12.2515    0.0000 </r>
       <r>   12.2515    0.0000 </r>
       <r>   12.4949    0.0000 </r>
       <r>   16.8574    0.0000 </r>
       <r>   18.7452    0.0000 </r>
      </set>
      <set comment="kpoint 4">
       <r>  -30.0220    1.0000 </r>
       <r>  -29.9745    1.0000 </r>
       <r>  -29.9745    1.0000 </r>
       <r>  -21.7534    1.0000 </r>
       <r>  -14.0272    1.0000 </r>
       <r>  -13.1149    1.0000 </r>
       <r>  -12.8862    1.0000 </r>
       <r>   -6.8745    1.0000 </r>
       <r>   -6.8745    1.0000 </r>
       <r>   -6.6553    1.0000 </r>
       <r>   -0.9247    1.0000 </r>
       <r>    0.2812    1.0000 </r>
       <r>    0.2812    1.0000 </r>
       <r>    1.0878    1.0000 </r>
       <r>    1.1637    1.0000 </r>
       <r>    1.2075    1.0000 </r>
       <r>    1.2075    1.0000 </r>
       <r>    2.3090    1.0000 </r>
       <r>    2.3090    1.0000 </r>
       <r>    4.8272    0.0000 </r>
       <r>    6.3489    0.0000 </r>
       <r>    6.3489    0.0000 </r>
       <r>    6.7298    0.0000 </r>
       <r>    8.6835    0.0000 </r>
       <r>   10.0097    0.0000 </r>
       <r>   10.4839    0.0000 </r>
       <r>   11.1223    0.0000 </r>
       <r>   12.5085    0.0000 </r>
       <r>   12.5085    0.0000 </r>
       <r>   14.4329    0.0000 </r>
       <r>   15.8569    0.0000 </r>
       <r>   16.6008    0.0000 </r>
      </set>
      <set comment="kpoint 5">
       <r>  -29.9875    1.0000 </r>
       <r>  -29.9870    1.0000 </r>
       <r>  -29.9754    1.0000 </r>
       <r>  -21.8096    1.0000 </r>
       <r>  -13.8298    1.0000 </r>
       <r>  -13.1388    1.0000 </r>
       <r>  -13.1160    1.0000 </r>
       <r>   -7.0370    1.0000 </r>
       <r>   -6.9530    1.0000 </r>
       <r>   -6.8284    1.0000 </r>
       <r>    0.0545    1.0000 </r>
       <r>    0.3990    1.0000 </r>
       <r>    0.5926    1.0000 </r>
       <r>    1.1009    1.0000 </r>
       <r>    1.4213    1.0000 </r>
       <r>    1.9066    1.0000 </r>
       <r>    1.9860    1.0000 </r>
       <r>    2.4499    1.0000 </r>
       <r>    2.5305    1.0000 </r>
       <r>    5.1494    0.0000 </r>
       <r>    5.2599    0.0000 </r>
       <r>    5.4385    0.0000 </r>
       <r>    7.0495    0.0000 </r>
       <r>    7.7829    0.0000 </r>
       <r>    8.9160    0.0000 </r>
       <r>    9.0595    0.0000 </r>
       <r>   11.0511    0.0000 </r>
       <r>   11.5972    0.0000 </r>
       <r>   11.7239    0.0000 </r>
       <r>   12.1219    0.0000 </r>
       <r>   17.4470    0.0000 </r>
       <r>   19.0882    0.0000 </r>
      </set>
      <set comment="kpoint 6">
       <r>  -30.0100    1.0000 </r>
       <r>  -29.9863    1.0000 </r>
       <r>  -29.9746    1.0000 </r>
       <r>  -21.7610    1.0000 </r>
       <r>  -13.8604    1.0000 </r>
       <r>  -13.1113    1.0000 </r>
       <r>  -13.0237    1.0000 </r>
       <r>   -6.9927    1.0000 </r>
       <r>   -6.8717    1.0000 </r>
       <r>   -6.7584    1.0000 </r>
       <r>   -0.6069    1.0000 </r>
       <r>    0.1488    1.0000 </r>
       <r>    0.4323    1.0000 </r>
       <r>    0.4575    1.0000 </r>
       <r>    1.0826    1.0000 </r>
       <r>    1.4988    1.0000 </r>
       <r>    1.9521    1.0000 </r>
       <r>    2.1242    1.0000 </r>
       <r>    2.3407    1.0000 </r>
       <r>    5.2459    0.0000 </r>
       <r>    5.9981    0.0000 </r>
       <r>    6.0544    0.0000 </r>
       <r>    7.1448    0.0000 </r>
       <r>    8.6756    0.0000 </r>
       <r>    9.7643    0.0000 </r>
       <r>   10.2508    0.0000 </r>
       <r>   11.5590    0.0000 </r>
       <r>   11.6975    0.0000 </r>
       <r>   12.2693    0.0000 </r>
       <r>   13.1574    0.0000 </r>
       <r>   17.0062    0.0000 </r>
       <r>   18.6072    0.0000 </r>
      </set>
      <set comment="kpoint 7">
       <r>  -30.0213    1.0000 </r>
       <r>  -29.9858    1.0000 </r>
       <r>  -29.9741    1.0000 </r>
       <r>  -21.7363    1.0000 </r>
       <r>  -13.9065    1.0000 </r>
       <r>  -13.0964    1.0000 </r>
       <r>  -12.9394    1.0000 </r>
       <r>   -6.9316    1.0000 </r>
       <r>   -6.8295    1.0000 </r>
       <r>   -6.7662    1.0000 </r>
       <r>   -0.9694    1.0000 </r>
       <r>    0.1103    1.0000 </r>
       <r>    0.1350    1.0000 </r>
       <r>    0.3025    1.0000 </r>
       <r>    0.9938    1.0000 </r>
       <r>    1.4006    1.0000 </r>
       <r>    1.9737    1.0000 </r>
       <r>    1.9885    1.0000 </r>
       <r>    2.1509    1.0000 </r>
       <r>    5.2727    0.0000 </r>
       <r>    6.3494    0.0000 </r>
       <r>    6.3877    0.0000 </r>
       <r>    7.1527    0.0000 </r>
       <r>    9.0440    0.0000 </r>
       <r>   10.2695    0.0000 </r>
       <r>   10.9870    0.0000 </r>
       <r>   11.5164    0.0000 </r>
       <r>   11.9109    0.0000 </r>
       <r>   12.5483    0.0000 </r>
       <r>   14.9043    0.0000 </r>
       <r>   15.7379    0.0000 </r>
       <r>   16.7107    0.0000 </r>
      </set>
      <set comment="kpoint 8">
       <r>  -30.0090    1.0000 </r>
       <r>  -30.0085    1.0000 </r>
       <r>  -29.9737    1.0000 </r>
       <r>  -21.7217    1.0000 </r>
       <r>  -13.6913    1.0000 </r>
       <r>  -13.1151    1.0000 </r>
       <r>  -13.0375    1.0000 </r>
       <r>   -7.0569    1.0000 </r>
       <r>   -6.8639    1.0000 </r>
       <r>   -6.7824    1.0000 </r>
       <r>   -0.8301    1.0000 </r>
       <r>   -0.3818    1.0000 </r>
       <r>   -0.3261    1.0000 </r>
       <r>    0.4364    1.0000 </r>
       <r>    0.6855    1.0000 </r>
       <r>    1.6333    1.0000 </r>
       <r>    1.6878    1.0000 </r>
       <r>    2.0716    1.0000 </r>
       <r>    2.6752    1.0000 </r>
       <r>    5.9666    0.0000 </r>
       <r>    6.0497    0.0000 </r>
       <r>    6.3602    0.0000 </r>
       <r>    7.4359    0.0000 </r>
       <r>    9.5344    0.0000 </r>
       <r>   10.3289    0.0000 </r>
       <r>   11.3361    0.0000 </r>
       <r>   11.5376    0.0000 </r>
       <r>   12.2090    0.0000 </r>
       <r>   12.3708    0.0000 </r>
       <r>   13.9590    0.0000 </r>
       <r>   17.3535    0.0000 </r>
       <r>   17.3699    0.0000 </r>
      </set>
      <set comment="kpoint 9">
       <r>  -30.0198    1.0000 </r>
       <r>  -30.0081    1.0000 </r>
       <r>  -29.9733    1.0000 </r>
       <r>  -21.7017    1.0000 </r>
       <r>  -13.6343    1.0000 </r>
       <r>  -13.0810    1.0000 </r>
       <r>  -13.0472    1.0000 </r>
       <r>   -7.0278    1.0000 </r>
       <r>   -6.9727    1.0000 </r>
       <r>   -6.7358    1.0000 </r>
       <r>   -1.0798    1.0000 </r>
       <r>   -0.6615    1.0000 </r>
       <r>   -0.5023    1.0000 </r>
       <r>    0.3582    1.0000 </r>
       <r>    0.5902    1.0000 </r>
       <r>    1.5014    1.0000 </r>
       <r>    1.8959    1.0000 </r>
       <r>    1.9891    1.0000 </r>
       <r>    2.7542    1.0000 </r>
       <r>    6.0157    0.0000 </r>
       <r>    6.3521    0.0000 </r>
       <r>    6.5901    0.0000 </r>
       <r>    7.4864    0.0000 </r>
       <r>    9.9395    0.0000 </r>
       <r>   10.8061    0.0000 </r>
       <r>   11.0567    0.0000 </r>
       <r>   12.3073    0.0000 </r>
       <r>   12.4099    0.0000 </r>
       <r>   12.6464    0.0000 </r>
       <r>   15.6041    0.0000 </r>
       <r>   15.6137    0.0000 </r>
       <r>   16.8915    0.0000 </r>
      </set>
      <set comment="kpoint 10">
       <r>  -30.0191    1.0000 </r>
       <r>  -30.0191    1.0000 </r>
       <r>  -29.9728    1.0000 </r>
       <r>  -21.6842    1.0000 </r>
       <r>  -13.4651    1.0000 </r>
       <r>  -13.1017    1.0000 </r>
       <r>  -13.1017    1.0000 </r>
       <r>   -7.0679    1.0000 </r>
       <r>   -7.0679    1.0000 </r>
       <r>   -6.6869    1.0000 </r>
       <r>   -1.2342    1.0000 </r>
       <r>   -0.9449    1.0000 </r>
       <r>   -0.7731    1.0000 </r>
       <r>    0.3979    1.0000 </r>
       <r>    0.3979    1.0000 </r>
       <r>    1.2900    1.0000 </r>
       <r>    2.1333    1.0000 </r>
       <r>    2.1333    1.0000 </r>
       <r>    2.9241    1.0000 </r>
       <r>    6.3541    0.0000 </r>
       <r>    6.3541    0.0000 </r>
       <r>    6.7553    0.0000 </r>
       <r>    7.5462    0.0000 </r>
       <r>   10.3961    0.0000 </r>
       <r>   10.7034    0.0000 </r>
       <r>   11.1034    0.0000 </r>
       <r>   12.7095    0.0000 </r>
       <r>   12.7095    0.0000 </r>
       <r>   13.7369    0.0000 </r>
       <r>   15.9082    0.0000 </r>
       <r>   15.9085    0.0000 </r>
       <r>   16.7252    0.0000 </r>
      </set>
      <set comment="kpoint 11">
       <r>  -29.9872    1.0000 </r>
       <r>  -29.9866    1.0000 </r>
       <r>  -29.9866    1.0000 </r>
       <r>  -21.7875    1.0000 </r>
       <r>  -13.7813    1.0000 </r>
       <r>  -13.1227    1.0000 </r>
       <r>  -13.1227    1.0000 </r>
       <r>   -7.0512    1.0000 </r>
       <r>   -7.0512    1.0000 </r>
       <r>   -6.6957    1.0000 </r>
       <r>   -0.1720    1.0000 </r>
       <r>    0.3694    1.0000 </r>
       <r>    0.3694    1.0000 </r>
       <r>    1.0524    1.0000 </r>
       <r>    1.0524    1.0000 </r>
       <r>    1.4271    1.0000 </r>
       <r>    2.2035    1.0000 </r>
       <r>    2.3942    1.0000 </r>
       <r>    2.3942    1.0000 </r>
       <r>    5.4413    0.0000 </r>
       <r>    5.5010    0.0000 </r>
       <r>    5.5010    0.0000 </r>
       <r>    7.7785    0.0000 </r>
       <r>    7.7786    0.0000 </r>
       <r>    9.3500    0.0000 </r>
       <r>    9.3500    0.0000 </r>
       <r>   10.9593    0.0000 </r>
       <r>   11.8801    0.0000 </r>
       <r>   11.8801    0.0000 </r>
       <r>   12.5432    0.0000 </r>
       <r>   17.4584    0.0000 </r>
       <r>   19.3670    0.0000 </r>
      </set>
      <set comment="kpoint 12">
       <r>  -30.0094    1.0000 </r>
       <r>  -29.9860    1.0000 </r>
       <r>  -29.9856    1.0000 </r>
       <r>  -21.7426    1.0000 </r>
       <r>  -13.7602    1.0000 </r>
       <r>  -13.0899    1.0000 </r>
       <r>  -13.0479    1.0000 </r>
       <r>   -7.0818    1.0000 </r>
       <r>   -7.0202    1.0000 </r>
       <r>   -6.6702    1.0000 </r>
       <r>   -0.6767    1.0000 </r>
       <r>   -0.0239    1.0000 </r>
       <r>    0.2833    1.0000 </r>
       <r>    0.4978    1.0000 </r>
       <r>    0.7403    1.0000 </r>
       <r>    1.2751    1.0000 </r>
       <r>    2.1245    1.0000 </r>
       <r>    2.2032    1.0000 </r>
       <r>    2.2650    1.0000 </r>
       <r>    5.5537    0.0000 </r>
       <r>    6.0865    0.0000 </r>
       <r>    6.1016    0.0000 </r>
       <r>    7.7631    0.0000 </r>
       <r>    8.8202    0.0000 </r>
       <r>   10.0587    0.0000 </r>
       <r>   10.4099    0.0000 </r>
       <r>   11.3789    0.0000 </r>
       <r>   11.9717    0.0000 </r>
       <r>   11.9721    0.0000 </r>
       <r>   13.7236    0.0000 </r>
       <r>   17.1448    0.0000 </r>
       <r>   18.4336    0.0000 </r>
      </set>
      <set comment="kpoint 13">
       <r>  -30.0206    1.0000 </r>
       <r>  -29.9854    1.0000 </r>
       <r>  -29.9852    1.0000 </r>
       <r>  -21.7198    1.0000 </r>
       <r>  -13.7850    1.0000 </r>
       <r>  -13.0732    1.0000 </r>
       <r>  -12.9684    1.0000 </r>
       <r>   -7.0984    1.0000 </r>
       <r>   -6.8900    1.0000 </r>
       <r>   -6.7790    1.0000 </r>
       <r>   -0.9997    1.0000 </r>
       <r>   -0.0663    1.0000 </r>
       <r>    0.1206    1.0000 </r>
       <r>    0.2358    1.0000 </r>
       <r>    0.6570    1.0000 </r>
       <r>    1.3962    1.0000 </r>
       <r>    2.0051    1.0000 </r>
       <r>    2.1145    1.0000 </r>
       <r>    2.1207    1.0000 </r>
       <r>    5.5885    0.0000 </r>
       <r>    6.4165    0.0000 </r>
       <r>    6.4178    0.0000 </r>
       <r>    7.7484    0.0000 </r>
       <r>    9.2226    0.0000 </r>
       <r>   10.5643    0.0000 </r>
       <r>   10.9154    0.0000 </r>
       <r>   11.8140    0.0000 </r>
       <r>   11.9237    0.0000 </r>
       <r>   12.0709    0.0000 </r>
       <r>   15.4297    0.0000 </r>
       <r>   15.7007    0.0000 </r>
       <r>   16.8704    0.0000 </r>
      </set>
      <set comment="kpoint 14">
       <r>  -30.0084    1.0000 </r>
       <r>  -30.0080    1.0000 </r>
       <r>  -29.9849    1.0000 </r>
       <r>  -21.7053    1.0000 </r>
       <r>  -13.5777    1.0000 </r>
       <r>  -13.0838    1.0000 </r>
       <r>  -13.0336    1.0000 </r>
       <r>   -7.1707    1.0000 </r>
       <r>   -7.1531    1.0000 </r>
       <r>   -6.7485    1.0000 </r>
       <r>   -0.8454    1.0000 </r>
       <r>   -0.3851    1.0000 </r>
       <r>   -0.2161    1.0000 </r>
       <r>    0.3695    1.0000 </r>
       <r>    0.6348    1.0000 </r>
       <r>    0.9348    1.0000 </r>
       <r>    2.0336    1.0000 </r>
       <r>    2.2803    1.0000 </r>
       <r>    2.6462    1.0000 </r>
       <r>    6.1360    0.0000 </r>
       <r>    6.1903    0.0000 </r>
       <r>    6.4174    0.0000 </r>
       <r>    8.2175    0.0000 </r>
       <r>    9.5206    0.0000 </r>
       <r>   10.5447    0.0000 </r>
       <r>   11.1600    0.0000 </r>
       <r>   11.1958    0.0000 </r>
       <r>   11.7706    0.0000 </r>
       <r>   12.3304    0.0000 </r>
       <r>   14.6166    0.0000 </r>
       <r>   17.2391    0.0000 </r>
       <r>   18.0058    0.0000 </r>
      </set>
      <set comment="kpoint 15">
       <r>  -30.0193    1.0000 </r>
       <r>  -30.0076    1.0000 </r>
       <r>  -29.9844    1.0000 </r>
       <r>  -21.6863    1.0000 </r>
       <r>  -13.5124    1.0000 </r>
       <r>  -13.0464    1.0000 </r>
       <r>  -13.0303    1.0000 </r>
       <r>   -7.2284    1.0000 </r>
       <r>   -7.1217    1.0000 </r>
       <r>   -6.8717    1.0000 </r>
       <r>   -1.0821    1.0000 </r>
       <r>   -0.4900    1.0000 </r>
       <r>   -0.4122    1.0000 </r>
       <r>    0.3016    1.0000 </r>
       <r>    0.5721    1.0000 </r>
       <r>    0.9186    1.0000 </r>
       <r>    2.1293    1.0000 </r>
       <r>    2.1931    1.0000 </r>
       <r>    2.7506    1.0000 </r>
       <r>    6.1952    0.0000 </r>
       <r>    6.4718    0.0000 </r>
       <r>    6.6433    0.0000 </r>
       <r>    8.2568    0.0000 </r>
       <r>    9.9350    0.0000 </r>
       <r>   10.8815    0.0000 </r>
       <r>   11.0638    0.0000 </r>
       <r>   11.4866    0.0000 </r>
       <r>   11.7681    0.0000 </r>
       <r>   12.8209    0.0000 </r>
       <r>   15.7520    0.0000 </r>
       <r>   16.2234    0.0000 </r>
       <r>   17.1437    0.0000 </r>
      </set>
      <set comment="kpoint 16">
       <r>  -30.0186    1.0000 </r>
       <r>  -30.0186    1.0000 </r>
       <r>  -29.9840    1.0000 </r>
       <r>  -21.6694    1.0000 </r>
       <r>  -13.3405    1.0000 </r>
       <r>  -13.0630    1.0000 </r>
       <r>  -13.0630    1.0000 </r>
       <r>   -7.2298    1.0000 </r>
       <r>   -7.2298    1.0000 </r>
       <r>   -6.9775    1.0000 </r>
       <r>   -1.2307    1.0000 </r>
       <r>   -0.7691    1.0000 </r>
       <r>   -0.5192    1.0000 </r>
       <r>    0.4867    1.0000 </r>
       <r>    0.4867    1.0000 </r>
       <r>    0.6138    1.0000 </r>
       <r>    2.2944    1.0000 </r>
       <r>    2.2944    1.0000 </r>
       <r>    2.9455    1.0000 </r>
       <r>    6.4973    0.0000 </r>
       <r>    6.4973    0.0000 </r>
       <r>    6.8125    0.0000 </r>
       <r>    8.3098    0.0000 </r>
       <r>   10.3962    0.0000 </r>
       <r>   10.4752    0.0000 </r>
       <r>   11.4248    0.0000 </r>
       <r>   11.6930    0.0000 </r>
       <r>   11.6930    0.0000 </r>
       <r>   13.5744    0.0000 </r>
       <r>   16.2127    0.0000 </r>
       <r>   16.6404    0.0000 </r>
       <r>   16.6413    0.0000 </r>
      </set>
      <set comment="kpoint 17">
       <r>  -30.0074    1.0000 </r>
       <r>  -30.0070    1.0000 </r>
       <r>  -30.0070    1.0000 </r>
       <r>  -21.6720    1.0000 </r>
       <r>  -13.3498    1.0000 </r>
       <r>  -13.0191    1.0000 </r>
       <r>  -13.0191    1.0000 </r>
       <r>   -7.3938    1.0000 </r>
       <r>   -7.3938    1.0000 </r>
       <r>   -6.9970    1.0000 </r>
       <r>   -0.8961    1.0000 </r>
       <r>   -0.3875    1.0000 </r>
       <r>   -0.3875    1.0000 </r>
       <r>    0.0768    1.0000 </r>
       <r>    0.5831    1.0000 </r>
       <r>    0.5831    1.0000 </r>
       <r>    2.4795    1.0000 </r>
       <r>    2.4795    1.0000 </r>
       <r>    2.7263    1.0000 </r>
       <r>    6.5312    0.0000 </r>
       <r>    6.5316    0.0000 </r>
       <r>    6.5316    0.0000 </r>
       <r>    9.4647    0.0000 </r>
       <r>    9.4647    0.0000 </r>
       <r>   10.6865    0.0000 </r>
       <r>   10.7173    0.0000 </r>
       <r>   10.7173    0.0000 </r>
       <r>   12.1351    0.0000 </r>
       <r>   12.1351    0.0000 </r>
       <r>   15.2558    0.0000 </r>
       <r>   17.2734    0.0000 </r>
       <r>   18.0802    0.0000 </r>
      </set>
      <set comment="kpoint 18">
       <r>  -30.0182    1.0000 </r>
       <r>  -30.0067    1.0000 </r>
       <r>  -30.0065    1.0000 </r>
       <r>  -21.6552    1.0000 </r>
       <r>  -13.2458    1.0000 </r>
       <r>  -12.9975    1.0000 </r>
       <r>  -12.9856    1.0000 </r>
       <r>   -7.5035    1.0000 </r>
       <r>   -7.4046    1.0000 </r>
       <r>   -7.2183    1.0000 </r>
       <r>   -1.1306    1.0000 </r>
       <r>   -0.5155    1.0000 </r>
       <r>   -0.3869    1.0000 </r>
       <r>    0.0416    1.0000 </r>
       <r>    0.5703    1.0000 </r>
       <r>    0.6373    1.0000 </r>
       <r>    2.4938    1.0000 </r>
       <r>    2.6594    1.0000 </r>
       <r>    2.8186    1.0000 </r>
       <r>    6.5883    0.0000 </r>
       <r>    6.7525    0.0000 </r>
       <r>    6.7533    0.0000 </r>
       <r>    9.4081    0.0000 </r>
       <r>    9.9610    0.0000 </r>
       <r>   10.5312    0.0000 </r>
       <r>   10.5835    0.0000 </r>
       <r>   10.5958    0.0000 </r>
       <r>   12.0109    0.0000 </r>
       <r>   12.8823    0.0000 </r>
       <r>   15.5870    0.0000 </r>
       <r>   17.0277    0.0000 </r>
       <r>   17.7037    0.0000 </r>
      </set>
      <set comment="kpoint 19">
       <r>  -30.0176    1.0000 </r>
       <r>  -30.0176    1.0000 </r>
       <r>  -30.0061    1.0000 </r>
       <r>  -21.6394    1.0000 </r>
       <r>  -13.0780    1.0000 </r>
       <r>  -12.9818    1.0000 </r>
       <r>  -12.9818    1.0000 </r>
       <r>   -7.5394    1.0000 </r>
       <r>   -7.5394    1.0000 </r>
       <r>   -7.4718    1.0000 </r>
       <r>   -1.2802    1.0000 </r>
       <r>   -0.7611    1.0000 </r>
       <r>   -0.4194    1.0000 </r>
       <r>    0.2455    1.0000 </r>
       <r>    0.5803    1.0000 </r>
       <r>    0.5803    1.0000 </r>
       <r>    2.7343    1.0000 </r>
       <r>    2.7343    1.0000 </r>
       <r>    2.9890    1.0000 </r>
       <r>    6.8088    0.0000 </r>
       <r>    6.8088    0.0000 </r>
       <r>    6.9301    0.0000 </r>
       <r>    9.4679    0.0000 </r>
       <r>   10.1864    0.0000 </r>
       <r>   10.2741    0.0000 </r>
       <r>   10.2741    0.0000 </r>
       <r>   10.3966    0.0000 </r>
       <r>   12.3537    0.0000 </r>
       <r>   13.2680    0.0000 </r>
       <r>   15.5510    0.0000 </r>
       <r>   17.4465    0.0000 </r>
       <r>   17.4894    0.0000 </r>
      </set>
      <set comment="kpoint 20">
       <r>  -30.0170    1.0000 </r>
       <r>  -30.0170    1.0000 </r>
       <r>  -30.0170    1.0000 </r>
       <r>  -21.6243    1.0000 </r>
       <r>  -12.9389    1.0000 </r>
       <r>  -12.9389    1.0000 </r>
       <r>  -12.9389    1.0000 </r>
       <r>   -7.6886    1.0000 </r>
       <r>   -7.6886    1.0000 </r>
       <r>   -7.6886    1.0000 </r>
       <r>   -1.4114    1.0000 </r>
       <r>   -0.7571    1.0000 </r>
       <r>   -0.7571    1.0000 </r>
       <r>    0.5967    1.0000 </r>
       <r>    0.5967    1.0000 </r>
       <r>    0.5967    1.0000 </r>
       <r>    3.0111    1.0000 </r>
       <r>    3.0111    1.0000 </r>
       <r>    3.0111    1.0000 </r>
       <r>    6.9906    0.0000 </r>
       <r>    6.9906    0.0000 </r>
       <r>    6.9906    0.0000 </r>
       <r>    9.6420    0.0000 </r>
       <r>    9.6420    0.0000 </r>
       <r>    9.6420    0.0000 </r>
       <r>   10.3968    0.0000 </r>
       <r>   10.3968    0.0000 </r>
       <r>   13.1227    0.0000 </r>
       <r>   13.1227    0.0000 </r>
       <r>   15.3571    0.0000 </r>
       <r>   17.9052    0.0000 </r>
       <r>   17.9107    0.0000 </r>
      </set>
     </set>
     <set comment="spin 2">
      <set comment="kpoint 1">
       <r>  -29.9763    1.0000 </r>
       <r>  -29.9763    1.0000 </r>
       <r>  -29.9763    1.0000 </r>
       <r>  -21.8597    1.0000 </r>
       <r>  -13.8432    1.0000 </r>
       <r>  -13.1490    1.0000 </r>
       <r>  -13.1490    1.0000 </r>
       <r>   -7.0295    1.0000 </r>
       <r>   -7.0295    1.0000 </r>
       <r>   -7.0295    1.0000 </r>
       <r>    0.7019    1.0000 </r>
       <r>    0.7019    1.0000 </r>
       <r>    0.7019    1.0000 </r>
       <r>    1.9618    1.0000 </r>
       <r>    1.9618    1.0000 </r>
       <r>    1.9618    1.0000 </r>
       <r>    2.8579    1.0000 </r>
       <r>    2.8579    1.0000 </r>
       <r>    2.8579    1.0000 </r>
       <r>    4.6804    0.0000 </r>
       <r>    4.6804    0.0000 </r>
       <r>    4.6804    0.0000 </r>
       <r>    6.7239    0.0000 </r>
       <r>    6.7239    0.0000 </r>
       <r>    8.0369    0.0000 </r>
       <r>    8.0369    0.0000 </r>
       <r>   10.1466    0.0000 </r>
       <r>   11.4200    0.0000 </r>
       <r>   11.4200    0.0000 </r>
       <r>   11.4200    0.0000 </r>
       <r>   17.5761    0.0000 </r>
       <r>   19.7074    0.0000 </r>
      </set>
      <set comment="kpoint 2">
       <r>  -29.9878    1.0000 </r>
       <r>  -29.9758    1.0000 </r>
       <r>  -29.9758    1.0000 </r>
       <r>  -21.8336    1.0000 </r>
       <r>  -13.8551    1.0000 </r>
       <r>  -13.1406    1.0000 </r>
       <r>  -13.1264    1.0000 </r>
       <r>   -6.9921    1.0000 </r>
       <r>   -6.9921    1.0000 </r>
       <r>   -6.9343    1.0000 </r>
       <r>    0.2814    1.0000 </r>
       <r>    0.6315    1.0000 </r>
       <r>    0.6315    1.0000 </r>
       <r>    1.6760    1.0000 </r>
       <r>    1.6760    1.0000 </r>
       <r>    1.7330    1.0000 </r>
       <r>    2.2399    1.0000 </r>
       <r>    2.6787    1.0000 </r>
       <r>    2.6787    1.0000 </r>
       <r>    4.7159    0.0000 </r>
       <r>    5.1849    0.0000 </r>
       <r>    5.1849    0.0000 </r>
       <r>    6.7255    0.0000 </r>
       <r>    7.3973    0.0000 </r>
       <r>    8.5213    0.0000 </r>
       <r>    8.5556    0.0000 </r>
       <r>   10.7947    0.0000 </r>
       <r>   11.3476    0.0000 </r>
       <r>   11.7060    0.0000 </r>
       <r>   11.7060    0.0000 </r>
       <r>   17.4213    0.0000 </r>
       <r>   19.8063    0.0000 </r>
      </set>
      <set comment="kpoint 3">
       <r>  -30.0106    1.0000 </r>
       <r>  -29.9750    1.0000 </r>
       <r>  -29.9750    1.0000 </r>
       <r>  -21.7806    1.0000 </r>
       <r>  -13.9556    1.0000 </r>
       <r>  -13.1235    1.0000 </r>
       <r>  -12.9871    1.0000 </r>
       <r>   -6.9146    1.0000 </r>
       <r>   -6.9146    1.0000 </r>
       <r>   -6.7473    1.0000 </r>
       <r>   -0.5330    1.0000 </r>
       <r>    0.4197    1.0000 </r>
       <r>    0.4197    1.0000 </r>
       <r>    1.3151    1.0000 </r>
       <r>    1.3151    1.0000 </r>
       <r>    1.3382    1.0000 </r>
       <r>    1.4091    1.0000 </r>
       <r>    2.4184    1.0000 </r>
       <r>    2.4184    1.0000 </r>
       <r>    4.7893    0.0000 </r>
       <r>    5.9902    0.0000 </r>
       <r>    5.9903    0.0000 </r>
       <r>    6.7284    0.0000 </r>
       <r>    8.3240    0.0000 </r>
       <r>    9.4974    0.0000 </r>
       <r>    9.7542    0.0000 </r>
       <r>   11.1988    0.0000 </r>
       <r>   12.2516    0.0000 </r>
       <r>   12.2516    0.0000 </r>
       <r>   12.4947    0.0000 </r>
       <r>   16.8573    0.0000 </r>
       <r>   18.7498    0.0000 </r>
      </set>
      <set comment="kpoint 4">
       <r>  -30.0220    1.0000 </r>
       <r>  -29.9745    1.0000 </r>
       <r>  -29.9745    1.0000 </r>
       <r>  -21.7535    1.0000 </r>
       <r>  -14.0272    1.0000 </r>
       <r>  -13.1149    1.0000 </r>
       <r>  -12.8862    1.0000 </r>
       <r>   -6.8744    1.0000 </r>
       <r>   -6.8744    1.0000 </r>
       <r>   -6.6552    1.0000 </r>
       <r>   -0.9247    1.0000 </r>
       <r>    0.2812    1.0000 </r>
       <r>    0.2812    1.0000 </r>
       <r>    1.0878    1.0000 </r>
       <r>    1.1637    1.0000 </r>
       <r>    1.2075    1.0000 </r>
       <r>    1.2075    1.0000 </r>
       <r>    2.3090    1.0000 </r>
       <r>    2.3090    1.0000 </r>
       <r>    4.8272    0.0000 </r>
       <r>    6.3489    0.0000 </r>
       <r>    6.3489    0.0000 </r>
       <r>    6.7298    0.0000 </r>
       <r>    8.6835    0.0000 </r>
       <r>   10.0097    0.0000 </r>
       <r>   10.4839    0.0000 </r>
       <r>   11.1223    0.0000 </r>
       <r>   12.5086    0.0000 </r>
       <r>   12.5086    0.0000 </r>
       <r>   14.4328    0.0000 </r>
       <r>   15.8567    0.0000 </r>
       <r>   16.6008    0.0000 </r>
      </set>
      <set comment="kpoint 5">
       <r>  -29.9875    1.0000 </r>
       <r>  -29.9870    1.0000 </r>
       <r>  -29.9754    1.0000 </r>
       <r>  -21.8097    1.0000 </r>
       <r>  -13.8298    1.0000 </r>
       <r>  -13.1388    1.0000 </r>
       <r>  -13.1160    1.0000 </r>
       <r>   -7.0370    1.0000 </r>
       <r>   -6.9529    1.0000 </r>
       <r>   -6.8284    1.0000 </r>
       <r>    0.0545    1.0000 </r>
       <r>    0.3990    1.0000 </r>
       <r>    0.5926    1.0000 </r>
       <r>    1.1009    1.0000 </r>
       <r>    1.4213    1.0000 </r>
       <r>    1.9065    1.0000 </r>
       <r>    1.9860    1.0000 </r>
       <r>    2.4499    1.0000 </r>
       <r>    2.5305    1.0000 </r>
       <r>    5.1494    0.0000 </r>
       <r>    5.2599    0.0000 </r>
       <r>    5.4385    0.0000 </r>
       <r>    7.0495    0.0000 </r>
       <r>    7.7829    0.0000 </r>
       <r>    8.9160    0.0000 </r>
       <r>    9.0595    0.0000 </r>
       <r>   11.0509    0.0000 </r>
       <r>   11.5972    0.0000 </r>
       <r>   11.7240    0.0000 </r>
       <r>   12.1219    0.0000 </r>
       <r>   17.4468    0.0000 </r>
       <r>   19.0587    0.0000 </r>
      </set>
      <set comment="kpoint 6">
       <r>  -30.0100    1.0000 </r>
       <r>  -29.9863    1.0000 </r>
       <r>  -29.9746    1.0000 </r>
       <r>  -21.7612    1.0000 </r>
       <r>  -13.8604    1.0000 </r>
       <r>  -13.1113    1.0000 </r>
       <r>  -13.0237    1.0000 </r>
       <r>   -6.9926    1.0000 </r>
       <r>   -6.8717    1.0000 </r>
       <r>   -6.7584    1.0000 </r>
       <r>   -0.6069    1.0000 </r>
       <r>    0.1488    1.0000 </r>
       <r>    0.4323    1.0000 </r>
       <r>    0.4575    1.0000 </r>
       <r>    1.0826    1.0000 </r>
       <r>    1.4988    1.0000 </r>
       <r>    1.9521    1.0000 </r>
       <r>    2.1242    1.0000 </r>
       <r>    2.3407    1.0000 </r>
       <r>    5.2459    0.0000 </r>
       <r>    5.9981    0.0000 </r>
       <r>    6.0544    0.0000 </r>
       <r>    7.1448    0.0000 </r>
       <r>    8.6756    0.0000 </r>
       <r>    9.7643    0.0000 </r>
       <r>   10.2508    0.0000 </r>
       <r>   11.5590    0.0000 </r>
       <r>   11.6975    0.0000 </r>
       <r>   12.2693    0.0000 </r>
       <r>   13.1573    0.0000 </r>
       <r>   17.0062    0.0000 </r>
       <r>   18.6068    0.0000 </r>
      </set>
      <set comment="kpoint 7">
       <r>  -30.0212    1.0000 </r>
       <r>  -29.9857    1.0000 </r>
       <r>  -29.9741    1.0000 </r>
       <r>  -21.7365    1.0000 </r>
       <r>  -13.9065    1.0000 </r>
       <r>  -13.0964    1.0000 </r>
       <r>  -12.9394    1.0000 </r>
       <r>   -6.9315    1.0000 </r>
       <r>   -6.8295    1.0000 </r>
       <r>   -6.7662    1.0000 </r>
       <r>   -0.9694    1.0000 </r>
       <r>    0.1103    1.0000 </r>
       <r>    0.1350    1.0000 </r>
       <r>    0.3025    1.0000 </r>
       <r>    0.9938    1.0000 </r>
       <r>    1.4006    1.0000 </r>
       <r>    1.9737    1.0000 </r>
       <r>    1.9885    1.0000 </r>
       <r>    2.1509    1.0000 </r>
       <r>    5.2727    0.0000 </r>
       <r>    6.3494    0.0000 </r>
       <r>    6.3877    0.0000 </r>
       <r>    7.1527    0.0000 </r>
       <r>    9.0440    0.0000 </r>
       <r>   10.2695    0.0000 </r>
       <r>   10.9870    0.0000 </r>
       <r>   11.5164    0.0000 </r>
       <r>   11.9109    0.0000 </r>
       <r>   12.5483    0.0000 </r>
       <r>   14.9043    0.0000 </r>
       <r>   15.7378    0.0000 </r>
       <r>   16.7106    0.0000 </r>
      </set>
      <set comment="kpoint 8">
       <r>  -30.0089    1.0000 </r>
       <r>  -30.0084    1.0000 </r>
       <r>  -29.9737    1.0000 </r>
       <r>  -21.7219    1.0000 </r>
       <r>  -13.6913    1.0000 </r>
       <r>  -13.1151    1.0000 </r>
       <r>  -13.0375    1.0000 </r>
       <r>   -7.0569    1.0000 </r>
       <r>   -6.8638    1.0000 </r>
       <r>   -6.7824    1.0000 </r>
       <r>   -0.8301    1.0000 </r>
       <r>   -0.3818    1.0000 </r>
       <r>   -0.3261    1.0000 </r>
       <r>    0.4364    1.0000 </r>
       <r>    0.6855    1.0000 </r>
       <r>    1.6333    1.0000 </r>
       <r>    1.6878    1.0000 </r>
       <r>    2.0716    1.0000 </r>
       <r>    2.6752    1.0000 </r>
       <r>    5.9666    0.0000 </r>
       <r>    6.0497    0.0000 </r>
       <r>    6.3602    0.0000 </r>
       <r>    7.4359    0.0000 </r>
       <r>    9.5344    0.0000 </r>
       <r>   10.3289    0.0000 </r>
       <r>   11.3361    0.0000 </r>
       <r>   11.5376    0.0000 </r>
       <r>   12.2090    0.0000 </r>
       <r>   12.3708    0.0000 </r>
       <r>   13.9588    0.0000 </r>
       <r>   17.3580    0.0000 </r>
       <r>   17.3731    0.0000 </r>
      </set>
      <set comment="kpoint 9">
       <r>  -30.0198    1.0000 </r>
       <r>  -30.0080    1.0000 </r>
       <r>  -29.9733    1.0000 </r>
       <r>  -21.7019    1.0000 </r>
       <r>  -13.6343    1.0000 </r>
       <r>  -13.0810    1.0000 </r>
       <r>  -13.0472    1.0000 </r>
       <r>   -7.0278    1.0000 </r>
       <r>   -6.9727    1.0000 </r>
       <r>   -6.7358    1.0000 </r>
       <r>   -1.0798    1.0000 </r>
       <r>   -0.6615    1.0000 </r>
       <r>   -0.5024    1.0000 </r>
       <r>    0.3582    1.0000 </r>
       <r>    0.5902    1.0000 </r>
       <r>    1.5014    1.0000 </r>
       <r>    1.8959    1.0000 </r>
       <r>    1.9891    1.0000 </r>
       <r>    2.7542    1.0000 </r>
       <r>    6.0157    0.0000 </r>
       <r>    6.3521    0.0000 </r>
       <r>    6.5901    0.0000 </r>
       <r>    7.4864    0.0000 </r>
       <r>    9.9395    0.0000 </r>
       <r>   10.8062    0.0000 </r>
       <r>   11.0567    0.0000 </r>
       <r>   12.3073    0.0000 </r>
       <r>   12.4099    0.0000 </r>
       <r>   12.6464    0.0000 </r>
       <r>   15.6028    0.0000 </r>
       <r>   15.6146    0.0000 </r>
       <r>   16.8848    0.0000 </r>
      </set>
      <set comment="kpoint 10">
       <r>  -30.0191    1.0000 </r>
       <r>  -30.0191    1.0000 </r>
       <r>  -29.9728    1.0000 </r>
       <r>  -21.6844    1.0000 </r>
       <r>  -13.4651    1.0000 </r>
       <r>  -13.1017    1.0000 </r>
       <r>  -13.1017    1.0000 </r>
       <r>   -7.0678    1.0000 </r>
       <r>   -7.0678    1.0000 </r>
       <r>   -6.6868    1.0000 </r>
       <r>   -1.2342    1.0000 </r>
       <r>   -0.9449    1.0000 </r>
       <r>   -0.7731    1.0000 </r>
       <r>    0.3979    1.0000 </r>
       <r>    0.3979    1.0000 </r>
       <r>    1.2900    1.0000 </r>
       <r>    2.1333    1.0000 </r>
       <r>    2.1333    1.0000 </r>
       <r>    2.9241    1.0000 </r>
       <r>    6.3541    0.0000 </r>
       <r>    6.3541    0.0000 </r>
       <r>    6.7553    0.0000 </r>
       <r>    7.5462    0.0000 </r>
       <r>   10.3961    0.0000 </r>
       <r>   10.7034    0.0000 </r>
       <r>   11.1034    0.0000 </r>
       <r>   12.7095    0.0000 </r>
       <r>   12.7095    0.0000 </r>
       <r>   13.7369    0.0000 </r>
       <r>   15.9084    0.0000 </r>
       <r>   15.9095    0.0000 </r>
       <r>   16.8978    0.0000 </r>
      </set>
      <set comment="kpoint 11">
       <r>  -29.9872    1.0000 </r>
       <r>  -29.9866    1.0000 </r>
       <r>  -29.9866    1.0000 </r>
       <r>  -21.7877    1.0000 </r>
       <r>  -13.7813    1.0000 </r>
       <r>  -13.1227    1.0000 </r>
       <r>  -13.1227    1.0000 </r>
       <r>   -7.0511    1.0000 </r>
       <r>   -7.0511    1.0000 </r>
       <r>   -6.6956    1.0000 </r>
       <r>   -0.1721    1.0000 </r>
       <r>    0.3693    1.0000 </r>
       <r>    0.3694    1.0000 </r>
       <r>    1.0524    1.0000 </r>
       <r>    1.0524    1.0000 </r>
       <r>    1.4271    1.0000 </r>
       <r>    2.2035    1.0000 </r>
       <r>    2.3942    1.0000 </r>
       <r>    2.3942    1.0000 </r>
       <r>    5.4413    0.0000 </r>
       <r>    5.5010    0.0000 </r>
       <r>    5.5010    0.0000 </r>
       <r>    7.7786    0.0000 </r>
       <r>    7.7786    0.0000 </r>
       <r>    9.3500    0.0000 </r>
       <r>    9.3500    0.0000 </r>
       <r>   10.9592    0.0000 </r>
       <r>   11.8801    0.0000 </r>
       <r>   11.8801    0.0000 </r>
       <r>   12.5431    0.0000 </r>
       <r>   17.4581    0.0000 </r>
       <r>   19.3242    0.0000 </r>
      </set>
      <set comment="kpoint 12">
       <r>  -30.0094    1.0000 </r>
       <r>  -29.9859    1.0000 </r>
       <r>  -29.9856    1.0000 </r>
       <r>  -21.7428    1.0000 </r>
       <r>  -13.7602    1.0000 </r>
       <r>  -13.0899    1.0000 </r>
       <r>  -13.0479    1.0000 </r>
       <r>   -7.0818    1.0000 </r>
       <r>   -7.0202    1.0000 </r>
       <r>   -6.6702    1.0000 </r>
       <r>   -0.6767    1.0000 </r>
       <r>   -0.0239    1.0000 </r>
       <r>    0.2833    1.0000 </r>
       <r>    0.4978    1.0000 </r>
       <r>    0.7403    1.0000 </r>
       <r>    1.2751    1.0000 </r>
       <r>    2.1245    1.0000 </r>
       <r>    2.2032    1.0000 </r>
       <r>    2.2650    1.0000 </r>
       <r>    5.5537    0.0000 </r>
       <r>    6.0865    0.0000 </r>
       <r>    6.1016    0.0000 </r>
       <r>    7.7631    0.0000 </r>
       <r>    8.8202    0.0000 </r>
       <r>   10.0587    0.0000 </r>
       <r>   10.4099    0.0000 </r>
       <r>   11.3789    0.0000 </r>
       <r>   11.9718    0.0000 </r>
       <r>   11.9721    0.0000 </r>
       <r>   13.7235    0.0000 </r>
       <r>   17.1448    0.0000 </r>
       <r>   18.5885    0.0000 </r>
      </set>
      <set comment="kpoint 13">
       <r>  -30.0206    1.0000 </r>
       <r>  -29.9854    1.0000 </r>
       <r>  -29.9852    1.0000 </r>
       <r>  -21.7200    1.0000 </r>
       <r>  -13.7850    1.0000 </r>
       <r>  -13.0732    1.0000 </r>
       <r>  -12.9684    1.0000 </r>
       <r>   -7.0983    1.0000 </r>
       <r>   -6.8899    1.0000 </r>
       <r>   -6.7790    1.0000 </r>
       <r>   -0.9997    1.0000 </r>
       <r>   -0.0664    1.0000 </r>
       <r>    0.1206    1.0000 </r>
       <r>    0.2358    1.0000 </r>
       <r>    0.6570    1.0000 </r>
       <r>    1.3962    1.0000 </r>
       <r>    2.0051    1.0000 </r>
       <r>    2.1145    1.0000 </r>
       <r>    2.1207    1.0000 </r>
       <r>    5.5885    0.0000 </r>
       <r>    6.4165    0.0000 </r>
       <r>    6.4178    0.0000 </r>
       <r>    7.7484    0.0000 </r>
       <r>    9.2226    0.0000 </r>
       <r>   10.5643    0.0000 </r>
       <r>   10.9154    0.0000 </r>
       <r>   11.8140    0.0000 </r>
       <r>   11.9237    0.0000 </r>
       <r>   12.0709    0.0000 </r>
       <r>   15.4296    0.0000 </r>
       <r>   15.6988    0.0000 </r>
       <r>   16.8703    0.0000 </r>
      </set>
      <set comment="kpoint 14">
       <r>  -30.0084    1.0000 </r>
       <r>  -30.0079    1.0000 </r>
       <r>  -29.9849    1.0000 </r>
       <r>  -21.7054    1.0000 </r>
       <r>  -13.5777    1.0000 </r>
       <r>  -13.0838    1.0000 </r>
       <r>  -13.0336    1.0000 </r>
       <r>   -7.1707    1.0000 </r>
       <r>   -7.1530    1.0000 </r>
       <r>   -6.7485    1.0000 </r>
       <r>   -0.8454    1.0000 </r>
       <r>   -0.3851    1.0000 </r>
       <r>   -0.2161    1.0000 </r>
       <r>    0.3695    1.0000 </r>
       <r>    0.6348    1.0000 </r>
       <r>    0.9348    1.0000 </r>
       <r>    2.0336    1.0000 </r>
       <r>    2.2803    1.0000 </r>
       <r>    2.6462    1.0000 </r>
       <r>    6.1360    0.0000 </r>
       <r>    6.1903    0.0000 </r>
       <r>    6.4174    0.0000 </r>
       <r>    8.2175    0.0000 </r>
       <r>    9.5206    0.0000 </r>
       <r>   10.5447    0.0000 </r>
       <r>   11.1600    0.0000 </r>
       <r>   11.1958    0.0000 </r>
       <r>   11.7706    0.0000 </r>
       <r>   12.3304    0.0000 </r>
       <r>   14.6164    0.0000 </r>
       <r>   17.2452    0.0000 </r>
       <r>   17.9780    0.0000 </r>
      </set>
      <set comment="kpoint 15">
       <r>  -30.0193    1.0000 </r>
       <r>  -30.0075    1.0000 </r>
       <r>  -29.9844    1.0000 </r>
       <r>  -21.6865    1.0000 </r>
       <r>  -13.5124    1.0000 </r>
       <r>  -13.0464    1.0000 </r>
       <r>  -13.0303    1.0000 </r>
       <r>   -7.2284    1.0000 </r>
       <r>   -7.1217    1.0000 </r>
       <r>   -6.8716    1.0000 </r>
       <r>   -1.0821    1.0000 </r>
       <r>   -0.4900    1.0000 </r>
       <r>   -0.4122    1.0000 </r>
       <r>    0.3016    1.0000 </r>
       <r>    0.5721    1.0000 </r>
       <r>    0.9186    1.0000 </r>
       <r>    2.1293    1.0000 </r>
       <r>    2.1931    1.0000 </r>
       <r>    2.7506    1.0000 </r>
       <r>    6.1952    0.0000 </r>
       <r>    6.4718    0.0000 </r>
       <r>    6.6433    0.0000 </r>
       <r>    8.2568    0.0000 </r>
       <r>    9.9350    0.0000 </r>
       <r>   10.8815    0.0000 </r>
       <r>   11.0638    0.0000 </r>
       <r>   11.4866    0.0000 </r>
       <r>   11.7681    0.0000 </r>
       <r>   12.8209    0.0000 </r>
       <r>   15.7517    0.0000 </r>
       <r>   16.2233    0.0000 </r>
       <r>   17.1443    0.0000 </r>
      </set>
      <set comment="kpoint 16">
       <r>  -30.0186    1.0000 </r>
       <r>  -30.0186    1.0000 </r>
       <r>  -29.9840    1.0000 </r>
       <r>  -21.6695    1.0000 </r>
       <r>  -13.3405    1.0000 </r>
       <r>  -13.0630    1.0000 </r>
       <r>  -13.0630    1.0000 </r>
       <r>   -7.2298    1.0000 </r>
       <r>   -7.2298    1.0000 </r>
       <r>   -6.9774    1.0000 </r>
       <r>   -1.2307    1.0000 </r>
       <r>   -0.7691    1.0000 </r>
       <r>   -0.5192    1.0000 </r>
       <r>    0.4868    1.0000 </r>
       <r>    0.4868    1.0000 </r>
       <r>    0.6138    1.0000 </r>
       <r>    2.2944    1.0000 </r>
       <r>    2.2944    1.0000 </r>
       <r>    2.9455    1.0000 </r>
       <r>    6.4973    0.0000 </r>
       <r>    6.4973    0.0000 </r>
       <r>    6.8125    0.0000 </r>
       <r>    8.3098    0.0000 </r>
       <r>   10.3962    0.0000 </r>
       <r>   10.4752    0.0000 </r>
       <r>   11.4248    0.0000 </r>
       <r>   11.6930    0.0000 </r>
       <r>   11.6930    0.0000 </r>
       <r>   13.5745    0.0000 </r>
       <r>   16.2858    0.0000 </r>
       <r>   16.6411    0.0000 </r>
       <r>   16.6753    0.0000 </r>
      </set>
      <set comment="kpoint 17">
       <r>  -30.0074    1.0000 </r>
       <r>  -30.0069    1.0000 </r>
       <r>  -30.0069    1.0000 </r>
       <r>  -21.6722    1.0000 </r>
       <r>  -13.3498    1.0000 </r>
       <r>  -13.0191    1.0000 </r>
       <r>  -13.0191    1.0000 </r>
       <r>   -7.3938    1.0000 </r>
       <r>   -7.3938    1.0000 </r>
       <r>   -6.9969    1.0000 </r>
       <r>   -0.8961    1.0000 </r>
       <r>   -0.3875    1.0000 </r>
       <r>   -0.3875    1.0000 </r>
       <r>    0.0768    1.0000 </r>
       <r>    0.5831    1.0000 </r>
       <r>    0.5831    1.0000 </r>
       <r>    2.4795    1.0000 </r>
       <r>    2.4795    1.0000 </r>
       <r>    2.7263    1.0000 </r>
       <r>    6.5312    0.0000 </r>
       <r>    6.5316    0.0000 </r>
       <r>    6.5316    0.0000 </r>
       <r>    9.4647    0.0000 </r>
       <r>    9.4647    0.0000 </r>
       <r>   10.6865    0.0000 </r>
       <r>   10.7173    0.0000 </r>
       <r>   10.7173    0.0000 </r>
       <r>   12.1351    0.0000 </r>
       <r>   12.1351    0.0000 </r>
       <r>   15.2550    0.0000 </r>
       <r>   17.2726    0.0000 </r>
       <r>   18.0802    0.0000 </r>
      </set>
      <set comment="kpoint 18">
       <r>  -30.0181    1.0000 </r>
       <r>  -30.0067    1.0000 </r>
       <r>  -30.0065    1.0000 </r>
       <r>  -21.6554    1.0000 </r>
       <r>  -13.2458    1.0000 </r>
       <r>  -12.9976    1.0000 </r>
       <r>  -12.9856    1.0000 </r>
       <r>   -7.5035    1.0000 </r>
       <r>   -7.4046    1.0000 </r>
       <r>   -7.2183    1.0000 </r>
       <r>   -1.1306    1.0000 </r>
       <r>   -0.5155    1.0000 </r>
       <r>   -0.3869    1.0000 </r>
       <r>    0.0416    1.0000 </r>
       <r>    0.5703    1.0000 </r>
       <r>    0.6373    1.0000 </r>
       <r>    2.4938    1.0000 </r>
       <r>    2.6594    1.0000 </r>
       <r>    2.8186    1.0000 </r>
       <r>    6.5883    0.0000 </r>
       <r>    6.7525    0.0000 </r>
       <r>    6.7533    0.0000 </r>
       <r>    9.4081    0.0000 </r>
       <r>    9.9610    0.0000 </r>
       <r>   10.5313    0.0000 </r>
       <r>   10.5835    0.0000 </r>
       <r>   10.5958    0.0000 </r>
       <r>   12.0110    0.0000 </r>
       <r>   12.8823    0.0000 </r>
       <r>   15.5850    0.0000 </r>
       <r>   17.0273    0.0000 </r>
       <r>   17.7070    0.0000 </r>
      </set>
      <set comment="kpoint 19">
       <r>  -30.0176    1.0000 </r>
       <r>  -30.0176    1.0000 </r>
       <r>  -30.0061    1.0000 </r>
       <r>  -21.6396    1.0000 </r>
       <r>  -13.0780    1.0000 </r>
       <r>  -12.9818    1.0000 </r>
       <r>  -12.9818    1.0000 </r>
       <r>   -7.5394    1.0000 </r>
       <r>   -7.5394    1.0000 </r>
       <r>   -7.4718    1.0000 </r>
       <r>   -1.2802    1.0000 </r>
       <r>   -0.7612    1.0000 </r>
       <r>   -0.4194    1.0000 </r>
       <r>    0.2455    1.0000 </r>
       <r>    0.5803    1.0000 </r>
       <r>    0.5803    1.0000 </r>
       <r>    2.7343    1.0000 </r>
       <r>    2.7343    1.0000 </r>
       <r>    2.9890    1.0000 </r>
       <r>    6.8088    0.0000 </r>
       <r>    6.8088    0.0000 </r>
       <r>    6.9301    0.0000 </r>
       <r>    9.4679    0.0000 </r>
       <r>   10.1864    0.0000 </r>
       <r>   10.2741    0.0000 </r>
       <r>   10.2741    0.0000 </r>
       <r>   10.3966    0.0000 </r>
       <r>   12.3538    0.0000 </r>
       <r>   13.2681    0.0000 </r>
       <r>   15.5516    0.0000 </r>
       <r>   17.4464    0.0000 </r>
       <r>   17.4541    0.0000 </r>
      </set>
      <set comment="kpoint 20">
       <r>  -30.0170    1.0000 </r>
       <r>  -30.0170    1.0000 </r>
       <r>  -30.0170    1.0000 </r>
       <r>  -21.6245    1.0000 </r>
       <r>  -12.9389    1.0000 </r>
       <r>  -12.9389    1.0000 </r>
       <r>  -12.9389    1.0000 </r>
       <r>   -7.6886    1.0000 </r>
       <r>   -7.6886    1.0000 </r>
       <r>   -7.6886    1.0000 </r>
       <r>   -1.4114    1.0000 </r>
       <r>   -0.7571    1.0000 </r>
       <r>   -0.7571    1.0000 </r>
       <r>    0.5967    1.0000 </r>
       <r>    0.5967    1.0000 </r>
       <r>    0.5967    1.0000 </r>
       <r>    3.0111    1.0000 </r>
       <r>    3.0111    1.0000 </r>
       <r>    3.0111    1.0000 </r>
       <r>    6.9906    0.0000 </r>
       <r>    6.9906    0.0000 </r>
       <r>    6.9906    0.0000 </r>
       <r>    9.6420    0.0000 </r>
       <r>    9.6420    0.0000 </r>
       <r>    9.6420    0.0000 </r>
       <r>   10.3968    0.0000 </r>
       <r>   10.3968    0.0000 </r>
       <r>   13.1228    0.0000 </r>
       <r>   13.1228    0.0000 </r>
       <r>   15.3563    0.0000 </r>
       <r>   17.9051    0.0000 </r>
       <r>   17.9146    0.0000 </r>
      </set>
     </set>
    </set>
   </array>
  </eigenvalues>
  <separator name="orbital magnetization" >
   <v name="MAGDIPOLOUT">      0.00000000      0.00000000      0.00000000</v>
  </separator>
  <dos>
   <i name="efermi">      3.02246253 </i>
   <total>
    <array>
     <dimension dim="1">gridpoints</dimension>
     <dimension dim="2">spin</dimension>
     <field>energy</field>
     <field>total</field>
     <field>integrated</field>
     <set>
      <set comment="spin 1">
       <r>   -32.5134     0.0000     0.0000 </r>
       <r>   -32.3307     0.0000     0.0000 </r>
       <r>   -32.1480     0.0000     0.0000 </r>
       <r>   -31.9653     0.0000     0.0000 </r>
       <r>   -31.7826     0.0000     0.0000 </r>
       <r>   -31.5999     0.0000     0.0000 </r>
       <r>   -31.4172     0.0000     0.0000 </r>
       <r>   -31.2344     0.0000     0.0000 </r>
       <r>   -31.0517     0.0000     0.0000 </r>
       <r>   -30.8690     0.0000     0.0000 </r>
       <r>   -30.6863     0.0000     0.0000 </r>
       <r>   -30.5036     0.0000     0.0000 </r>
       <r>   -30.3209     0.0000     0.0000 </r>
       <r>   -30.1382     0.0000     0.0000 </r>
       <r>   -29.9555     0.0000     3.0000 </r>
       <r>   -29.7728     0.0000     3.0000 </r>
       <r>   -29.5901     0.0000     3.0000 </r>
       <r>   -29.4074     0.0000     3.0000 </r>
       <r>   -29.2247     0.0000     3.0000 </r>
       <r>   -29.0420     0.0000     3.0000 </r>
       <r>   -28.8593     0.0000     3.0000 </r>
       <r>   -28.6766     0.0000     3.0000 </r>
       <r>   -28.4939     0.0000     3.0000 </r>
       <r>   -28.3112     0.0000     3.0000 </r>
       <r>   -28.1285     0.0000     3.0000 </r>
       <r>   -27.9458     0.0000     3.0000 </r>
       <r>   -27.7631     0.0000     3.0000 </r>
       <r>   -27.5804     0.0000     3.0000 </r>
       <r>   -27.3977     0.0000     3.0000 </r>
       <r>   -27.2150     0.0000     3.0000 </r>
       <r>   -27.0323     0.0000     3.0000 </r>
       <r>   -26.8496     0.0000     3.0000 </r>
       <r>   -26.6669     0.0000     3.0000 </r>
       <r>   -26.4842     0.0000     3.0000 </r>
       <r>   -26.3015     0.0000     3.0000 </r>
       <r>   -26.1187     0.0000     3.0000 </r>
       <r>   -25.9360     0.0000     3.0000 </r>
       <r>   -25.7533     0.0000     3.0000 </r>
       <r>   -25.5706     0.0000     3.0000 </r>
       <r>   -25.3879     0.0000     3.0000 </r>
[...]
        <r>  0.0393  0.0000  0.0186  0.0000  0.0000  0.0000  0.0000  0.0000  0.0000 </r>
        <r>  0.0229  0.0000  0.0109  0.0000  0.0000  0.0000  0.0000  0.0000  0.0000 </r>
        <r>  0.0000  0.0029  0.0000  0.0049  0.0000  0.0000  0.0000  0.0000  0.0000 </r>
       </set>
       <set comment="band 27">
        <r>  0.0000  0.0000  0.0000  0.0000  0.0000  0.0000  0.0000  0.0000  0.0000 </r>
        <r>  0.0000  0.0000  0.0000  0.0000  0.0000  0.0000  0.0000  0.0000  0.6733 </r>
        <r>  0.0000  0.0000  0.0000  0.1527  0.0000  0.0000  0.0000  0.0000  0.0000 </r>
        <r>  0.0000  0.1527  0.0000  0.0000  0.0000  0.0000  0.0000  0.0000  0.0000 </r>
        <r>  0.0000  0.0000  0.0000  0.0000  0.0000  0.0000  0.0000  0.0000  0.0000 </r>
       </set>
       <set comment="band 28">
        <r>  0.0016  0.0000  0.0022  0.0000  0.0000  0.0000  0.6876  0.0000  0.0000 </r>
        <r>  0.0000  0.0000  0.0000  0.0000  0.0018  0.0000  0.0000  0.0000  0.0000 </r>
        <r>  0.0000  0.0345  0.0000  0.0000  0.0000  0.0000  0.0000  0.0000  0.0000 </r>
        <r>  0.0000  0.0000  0.0000  0.0345  0.0000  0.0000  0.0000  0.0000  0.0000 </r>
        <r>  0.0000  0.0000  0.0000  0.0000  0.0000  0.0000  0.0000  0.0000  0.0000 </r>
       </set>
       <set comment="band 29">
        <r>  0.0000  0.0000  0.0000  0.0000  0.0000  0.0000  0.0000  0.0000  0.8204 </r>
        <r>  0.0000  0.0000  0.0000  0.0000  0.0000  0.0000  0.0000  0.0000  0.0000 </r>
        <r>  0.0000  0.0045  0.0000  0.0000  0.0000  0.0000  0.0000  0.0000  0.0000 </r>
        <r>  0.0000  0.0000  0.0000  0.0045  0.0000  0.0000  0.0000  0.0000  0.0000 </r>
        <r>  0.0000  0.0000  0.0000  0.0000  0.0000  0.0000  0.0000  0.0000  0.0000 </r>
       </set>
       <set comment="band 30">
        <r>  0.4557  0.0000  0.0001  0.0000  0.0000  0.0000  0.0211  0.0000  0.0000 </r>
        <r>  0.0001  0.0000  0.0000  0.0000  0.0053  0.0000  0.0000  0.0000  0.0000 </r>
        <r>  0.0000  0.0231  0.0000  0.0000  0.0000  0.0000  0.0000  0.0000  0.0000 </r>
        <r>  0.0000  0.0000  0.0000  0.0230  0.0000  0.0000  0.0000  0.0000  0.0000 </r>
        <r>  0.0000  0.0000  0.0000  0.0000  0.0000  0.0000  0.0000  0.0000  0.0000 </r>
       </set>
       <set comment="band 31">
        <r>  0.0000  0.0466  0.0001  0.0647  0.0000  0.0047  0.0000  0.0063  0.0000 </r>
        <r>  0.0000  0.0016  0.0000  0.0013  0.0000  0.0022  0.0000  0.0016  0.0000 </r>
        <r>  0.0021  0.0000  0.0306  0.0000  0.0000  0.0000  0.0000  0.0000  0.0000 </r>
        <r>  0.0029  0.0000  0.0424  0.0000  0.0000  0.0000  0.0000  0.0000  0.0000 </r>
        <r>  0.0000  0.0603  0.0000  0.0434  0.0000  0.0000  0.0000  0.0000  0.0000 </r>
       </set>
       <set comment="band 32">
        <r>  0.0000  0.0641  0.0000  0.0463  0.0001  0.0069  0.0000  0.0053  0.0000 </r>
        <r>  0.0021  0.0017  0.0008  0.0020  0.0000  0.0017  0.0000  0.0023  0.0000 </r>
        <r>  0.0030  0.0000  0.0423  0.0017  0.0000  0.0000  0.0000  0.0000  0.0000 </r>
        <r>  0.0022  0.0017  0.0306  0.0000  0.0000  0.0000  0.0000  0.0000  0.0000 </r>
        <r>  0.0000  0.0430  0.0023  0.0596  0.0000  0.0000  0.0000  0.0000  0.0000 </r>
       </set>
      </set>
      <set comment="kpoint 20">
       <set comment="band 1">
        <r>  0.0000  0.0000  0.0000  0.0000  0.0001  0.0000  0.0000  0.0000  0.0000 </r>
        <r>  0.0000  0.0004  0.9789  0.0003  0.0000  0.0000  0.0000  0.0000  0.0000 </r>
        <r>  0.0000  0.0000  0.0000  0.0000  0.0000  0.0000  0.0000  0.0000  0.0000 </r>
        <r>  0.0000  0.0000  0.0000  0.0000  0.0000  0.0000  0.0000  0.0000  0.0000 </r>
        <r>  0.0071  0.0000  0.0000  0.0000  0.0000  0.0000  0.0000  0.0000  0.0000 </r>
       </set>
       <set comment="band 2">
        <r>  0.0000  0.0000  0.0000  0.0000  0.0000  0.0000  0.0000  0.0000  0.0000 </r>
        <r>  0.0000  0.6585  0.0005  0.3205  0.0000  0.0000  0.0000  0.0000  0.0000 </r>
        <r>  0.0023  0.0000  0.0000  0.0000  0.0000  0.0000  0.0000  0.0000  0.0000 </r>
        <r>  0.0048  0.0000  0.0000  0.0000  0.0000  0.0000  0.0000  0.0000  0.0000 </r>
        <r>  0.0000  0.0000  0.0000  0.0000  0.0000  0.0000  0.0000  0.0000  0.0000 </r>
       </set>
       <set comment="band 3">
        <r>  0.0000  0.0000  0.0000  0.0000  0.0000  0.0000  0.0000  0.0000  0.0000 </r>
        <r>  0.0000  0.3206  0.0002  0.6588  0.0000  0.0000  0.0000  0.0000  0.0000 </r>
        <r>  0.0048  0.0000  0.0000  0.0000  0.0000  0.0000  0.0000  0.0000  0.0000 </r>
        <r>  0.0023  0.0000  0.0000  0.0000  0.0000  0.0000  0.0000  0.0000  0.0000 </r>
        <r>  0.0000  0.0000  0.0000  0.0000  0.0000  0.0000  0.0000  0.0000  0.0000 </r>
       </set>
       <set comment="band 4">
        <r>  0.9816  0.0000  0.0000  0.0000  0.0000  0.0000  0.0000  0.0000  0.0000 </r>
        <r>  0.0000  0.0000  0.0000  0.0000  0.0000  0.0000  0.0000  0.0000  0.0000 </r>
        <r>  0.0000  0.0000  0.0000  0.0000  0.0000  0.0000  0.0000  0.0000  0.0000 </r>
        <r>  0.0000  0.0000  0.0000  0.0000  0.0000  0.0000  0.0000  0.0000  0.0000 </r>
        <r>  0.0000  0.0000  0.0000  0.0000  0.0000  0.0000  0.0000  0.0000  0.0000 </r>
       </set>
       <set comment="band 5">
        <r>  0.0000  0.0000  0.0000  0.0000  0.0000  0.0021  0.0000  0.0043  0.0000 </r>
        <r>  0.0000  0.0273  0.0000  0.0131  0.0000  0.0000  0.0000  0.0000  0.0000 </r>
        <r>  0.2509  0.0000  0.0000  0.0000  0.0000  0.0000  0.0000  0.0000  0.0000 </r>
        <r>  0.5216  0.0000  0.0000  0.0000  0.0000  0.0000  0.0000  0.0000  0.0000 </r>
        <r>  0.0001  0.0000  0.0000  0.0000  0.0000  0.0000  0.0000  0.0000  0.0000 </r>
       </set>
       <set comment="band 6">
        <r>  0.0000  0.0000  0.0000  0.0000  0.0000  0.0043  0.0000  0.0021  0.0000 </r>
        <r>  0.0000  0.0131  0.0001  0.0272  0.0000  0.0000  0.0000  0.0000  0.0000 </r>
        <r>  0.5202  0.0000  0.0000  0.0000  0.0000  0.0000  0.0000  0.0000  0.0000 </r>
        <r>  0.2500  0.0000  0.0000  0.0000  0.0000  0.0000  0.0000  0.0000  0.0000 </r>
        <r>  0.0024  0.0000  0.0000  0.0000  0.0000  0.0000  0.0000  0.0000  0.0000 </r>
       </set>
       <set comment="band 7">
        <r>  0.0000  0.0000  0.0000  0.0000  0.0064  0.0000  0.0000  0.0000  0.0000 </r>
        <r>  0.0000  0.0001  0.0402  0.0001  0.0000  0.0000  0.0000  0.0000  0.0000 </r>
        <r>  0.0014  0.0000  0.0000  0.0000  0.0000  0.0000  0.0000  0.0000  0.0000 </r>
        <r>  0.0010  0.0000  0.0000  0.0000  0.0000  0.0000  0.0000  0.0000  0.0000 </r>
        <r>  0.7701  0.0000  0.0000  0.0000  0.0000  0.0000  0.0000  0.0000  0.0000 </r>
       </set>
       <set comment="band 8">
        <r>  0.0000  0.5794  0.0012  0.2186  0.0000  0.0000  0.0000  0.0000  0.0000 </r>
        <r>  0.0000  0.0000  0.0000  0.0000  0.0000  0.0023  0.0000  0.0060  0.0000 </r>
        <r>  0.0000  0.0000  0.0126  0.0000  0.0000  0.0000  0.0000  0.0000  0.0000 </r>
        <r>  0.0000  0.0000  0.0048  0.0000  0.0000  0.0000  0.0000  0.0000  0.0000 </r>
        <r>  0.0000  0.0048  0.0000  0.0126  0.0000  0.0000  0.0000  0.0000  0.0000 </r>
       </set>
       <set comment="band 9">
        <r>  0.0000  0.2134  0.0154  0.5704  0.0000  0.0000  0.0000  0.0000  0.0000 </r>
        <r>  0.0000  0.0000  0.0000  0.0000  0.0002  0.0059  0.0000  0.0022  0.0000 </r>
        <r>  0.0000  0.0003  0.0046  0.0000  0.0000  0.0000  0.0000  0.0000  0.0000 </r>
        <r>  0.0000  0.0000  0.0124  0.0003  0.0000  0.0000  0.0000  0.0000  0.0000 </r>
        <r>  0.0000  0.0124  0.0000  0.0046  0.0000  0.0000  0.0000  0.0000  0.0000 </r>
       </set>
       <set comment="band 10">
        <r>  0.0000  0.0064  0.7825  0.0102  0.0000  0.0000  0.0000  0.0000  0.0000 </r>
        <r>  0.0000  0.0000  0.0000  0.0000  0.0081  0.0001  0.0000  0.0001  0.0000 </r>
        <r>  0.0000  0.0170  0.0001  0.0000  0.0000  0.0000  0.0000  0.0000  0.0000 </r>
        <r>  0.0000  0.0000  0.0002  0.0170  0.0000  0.0000  0.0000  0.0000  0.0000 </r>
        <r>  0.0000  0.0002  0.0000  0.0001  0.0000  0.0000  0.0000  0.0000  0.0000 </r>
       </set>
       <set comment="band 11">
        <r>  0.0000  0.0000  0.0000  0.0000  0.0000  0.0000  0.0000  0.0000  0.0000 </r>
        <r>  0.2283  0.0000  0.0000  0.0000  0.0000  0.0000  0.0000  0.0000  0.0000 </r>
        <r>  0.0000  0.0000  0.0000  0.1740  0.0000  0.0000  0.0000  0.0000  0.0000 </r>
        <r>  0.0000  0.1740  0.0000  0.0000  0.0000  0.0000  0.0000  0.0000  0.0000 </r>
        <r>  0.0000  0.0000  0.1740  0.0000  0.0000  0.0000  0.0000  0.0000  0.0000 </r>
       </set>
       <set comment="band 12">
        <r>  0.0000  0.0000  0.0000  0.0000  0.0000  0.0000  0.0000  0.0000  0.0000 </r>
        <r>  0.0000  0.0000  0.0000  0.0000  0.0000  0.0000  0.0000  0.0000  0.3969 </r>
        <r>  0.0000  0.0000  0.0000  0.2461  0.0000  0.0000  0.0000  0.0000  0.0000 </r>
        <r>  0.0000  0.2504  0.0000  0.0000  0.0000  0.0000  0.0000  0.0000  0.0000 </r>
        <r>  0.0000  0.0000  0.0000  0.0000  0.0000  0.0000  0.0000  0.0000  0.0000 </r>
       </set>
       <set comment="band 13">
        <r>  0.0000  0.0000  0.0000  0.0000  0.0000  0.0000  0.0000  0.0000  0.0000 </r>
        <r>  0.0000  0.0000  0.0000  0.0000  0.0000  0.0000  0.3969  0.0000  0.0000 </r>
        <r>  0.0000  0.0000  0.0000  0.0849  0.0000  0.0000  0.0000  0.0000  0.0000 </r>
        <r>  0.0000  0.0806  0.0000  0.0000  0.0000  0.0000  0.0000  0.0000  0.0000 </r>
        <r>  0.0000  0.0000  0.3310  0.0000  0.0000  0.0000  0.0000  0.0000  0.0000 </r>
       </set>
       <set comment="band 14">
        <r>  0.0000  0.0001  0.1483  0.0000  0.0000  0.0000  0.0000  0.0000  0.0000 </r>
        <r>  0.0000  0.0000  0.0000  0.0000  0.1746  0.0000  0.0000  0.0001  0.0000 </r>
        <r>  0.0000  0.2174  0.0001  0.0000  0.0000  0.0000  0.0000  0.0000  0.0000 </r>
        <r>  0.0000  0.0000  0.0000  0.2174  0.0000  0.0000  0.0000  0.0000  0.0000 </r>
        <r>  0.0000  0.0000  0.0000  0.0001  0.0000  0.0000  0.0000  0.0000  0.0000 </r>
       </set>
       <set comment="band 15">
        <r>  0.0000  0.0936  0.0001  0.0547  0.0000  0.0000  0.0000  0.0000  0.0000 </r>
        <r>  0.0000  0.0000  0.0000  0.0000  0.0001  0.0644  0.0000  0.1102  0.0000 </r>
        <r>  0.0000  0.0001  0.1372  0.0000  0.0000  0.0000  0.0000  0.0000  0.0000 </r>
        <r>  0.0000  0.0000  0.0802  0.0001  0.0000  0.0000  0.0000  0.0000  0.0000 </r>
        <r>  0.0000  0.0802  0.0000  0.1372  0.0000  0.0000  0.0000  0.0000  0.0000 </r>
       </set>
       <set comment="band 16">
        <r>  0.0000  0.0547  0.0000  0.0937  0.0000  0.0000  0.0000  0.0000  0.0000 </r>
        <r>  0.0000  0.0000  0.0000  0.0000  0.0000  0.1103  0.0000  0.0644  0.0000 </r>
        <r>  0.0000  0.0000  0.0802  0.0000  0.0000  0.0000  0.0000  0.0000  0.0000 </r>
        <r>  0.0000  0.0000  0.1373  0.0000  0.0000  0.0000  0.0000  0.0000  0.0000 </r>
        <r>  0.0000  0.1373  0.0000  0.0802  0.0000  0.0000  0.0000  0.0000  0.0000 </r>
       </set>
       <set comment="band 17">
        <r>  0.0000  0.0000  0.0000  0.0000  0.0000  0.0000  0.0000  0.0000  0.0000 </r>
        <r>  0.0000  0.0000  0.0000  0.0000  0.0000  0.0000  0.0000  0.0000  0.0000 </r>
        <r>  0.0000  0.3598  0.0024  0.0000  0.0000  0.0000  0.0000  0.0000  0.0000 </r>
        <r>  0.0000  0.0000  0.0171  0.3598  0.0000  0.0000  0.0000  0.0000  0.0000 </r>
        <r>  0.0000  0.0171  0.0000  0.0024  0.0000  0.0000  0.0000  0.0000  0.0000 </r>
       </set>
       <set comment="band 18">
        <r>  0.0000  0.0000  0.0000  0.0000  0.0000  0.0000  0.0000  0.0000  0.0000 </r>
        <r>  0.0000  0.0000  0.0000  0.0000  0.0000  0.0000  0.0000  0.0000  0.0000 </r>
        <r>  0.0000  0.0008  0.2785  0.0000  0.0000  0.0000  0.0000  0.0000  0.0000 </r>
        <r>  0.0000  0.0000  0.0999  0.0008  0.0000  0.0000  0.0000  0.0000  0.0000 </r>
        <r>  0.0000  0.0999  0.0000  0.2785  0.0000  0.0000  0.0000  0.0000  0.0000 </r>
       </set>
       <set comment="band 19">
        <r>  0.0000  0.0000  0.0000  0.0000  0.0000  0.0000  0.0000  0.0000  0.0000 </r>
        <r>  0.0000  0.0000  0.0000  0.0000  0.0000  0.0000  0.0000  0.0000  0.0000 </r>
        <r>  0.0000  0.0186  0.0983  0.0000  0.0000  0.0000  0.0000  0.0000  0.0000 </r>
        <r>  0.0000  0.0000  0.2623  0.0186  0.0000  0.0000  0.0000  0.0000  0.0000 </r>
        <r>  0.0000  0.2623  0.0000  0.0983  0.0000  0.0000  0.0000  0.0000  0.0000 </r>
       </set>
       <set comment="band 20">
        <r>  0.0000  0.0042  0.0001  0.0016  0.0000  0.0000  0.0000  0.0000  0.0000 </r>
        <r>  0.0000  0.0000  0.0000  0.0000  0.0126  0.2119  0.0000  0.5473  0.0000 </r>
        <r>  0.0000  0.0013  0.0574  0.0000  0.0000  0.0000  0.0000  0.0000  0.0000 </r>
        <r>  0.0000  0.0000  0.0222  0.0013  0.0000  0.0000  0.0000  0.0000  0.0000 </r>
        <r>  0.0000  0.0222  0.0000  0.0574  0.0000  0.0000  0.0000  0.0000  0.0000 </r>
       </set>
       <set comment="band 21">
        <r>  0.0000  0.0017  0.0004  0.0038  0.0000  0.0000  0.0000  0.0000  0.0000 </r>
        <r>  0.0000  0.0000  0.0000  0.0000  0.0541  0.4945  0.0000  0.2232  0.0000 </r>
        <r>  0.0000  0.0057  0.0234  0.0000  0.0000  0.0000  0.0000  0.0000  0.0000 </r>
        <r>  0.0000  0.0000  0.0518  0.0057  0.0000  0.0000  0.0000  0.0000  0.0000 </r>
        <r>  0.0000  0.0518  0.0000  0.0234  0.0000  0.0000  0.0000  0.0000  0.0000 </r>
       </set>
       <set comment="band 22">
        <r>  0.0000  0.0000  0.0054  0.0005  0.0000  0.0000  0.0000  0.0000  0.0000 </r>
        <r>  0.0000  0.0000  0.0000  0.0000  0.7051  0.0654  0.0000  0.0013  0.0000 </r>
        <r>  0.0000  0.0739  0.0001  0.0000  0.0000  0.0000  0.0000  0.0000  0.0000 </r>
        <r>  0.0000  0.0000  0.0069  0.0739  0.0000  0.0000  0.0000  0.0000  0.0000 </r>
        <r>  0.0000  0.0069  0.0000  0.0001  0.0000  0.0000  0.0000  0.0000  0.0000 </r>
       </set>
       <set comment="band 23">
        <r>  0.0000  0.0000  0.0000  0.0000  0.0058  0.1931  0.0000  0.3175  0.0000 </r>
        <r>  0.0000  0.0176  0.0003  0.0107  0.0000  0.0000  0.0000  0.0000  0.0000 </r>
        <r>  0.0278  0.0000  0.0000  0.0000  0.0000  0.0000  0.0000  0.0000  0.0000 </r>
        <r>  0.0457  0.0000  0.0000  0.0000  0.0000  0.0000  0.0000  0.0000  0.0000 </r>
        <r>  0.0008  0.0000  0.0000  0.0000  0.0000  0.0000  0.0000  0.0000  0.0000 </r>
       </set>
       <set comment="band 24">
        <r>  0.0000  0.0000  0.0000  0.0000  0.3704  0.0860  0.0000  0.0599  0.0000 </r>
        <r>  0.0000  0.0033  0.0206  0.0048  0.0000  0.0000  0.0000  0.0000  0.0000 </r>
        <r>  0.0124  0.0000  0.0000  0.0000  0.0000  0.0000  0.0000  0.0000  0.0000 </r>
        <r>  0.0086  0.0000  0.0000  0.0000  0.0000  0.0000  0.0000  0.0000  0.0000 </r>
        <r>  0.0533  0.0000  0.0000  0.0000  0.0000  0.0000  0.0000  0.0000  0.0000 </r>
       </set>
       <set comment="band 25">
        <r>  0.0000  0.0000  0.0000  0.0000  0.1401  0.2372  0.0000  0.1389  0.0000 </r>
        <r>  0.0000  0.0077  0.0078  0.0132  0.0000  0.0000  0.0000  0.0000  0.0000 </r>
        <r>  0.0342  0.0000  0.0000  0.0000  0.0000  0.0000  0.0000  0.0000  0.0000 </r>
        <r>  0.0200  0.0000  0.0000  0.0000  0.0000  0.0000  0.0000  0.0000  0.0000 </r>
        <r>  0.0202  0.0000  0.0000  0.0000  0.0000  0.0000  0.0000  0.0000  0.0000 </r>
       </set>
       <set comment="band 26">
        <r>  0.0000  0.0000  0.0000  0.0000  0.0000  0.0000  0.0000  0.0000  0.0000 </r>
        <r>  0.0000  0.0000  0.0000  0.0000  0.0000  0.0000  0.6732  0.0000  0.0000 </r>
        <r>  0.0000  0.0000  0.0000  0.0512  0.0000  0.0000  0.0000  0.0000  0.0000 </r>
        <r>  0.0000  0.0506  0.0000  0.0000  0.0000  0.0000  0.0000  0.0000  0.0000 </r>
        <r>  0.0000  0.0000  0.2036  0.0000  0.0000  0.0000  0.0000  0.0000  0.0000 </r>
       </set>
       <set comment="band 27">
        <r>  0.0000  0.0000  0.0000  0.0000  0.0000  0.0000  0.0000  0.0000  0.0000 </r>
        <r>  0.0000  0.0000  0.0000  0.0000  0.0000  0.0000  0.0000  0.0000  0.6732 </r>
        <r>  0.0000  0.0000  0.0000  0.1525  0.0000  0.0000  0.0000  0.0000  0.0000 </r>
        <r>  0.0000  0.1530  0.0000  0.0000  0.0000  0.0000  0.0000  0.0000  0.0000 </r>
        <r>  0.0000  0.0000  0.0000  0.0000  0.0000  0.0000  0.0000  0.0000  0.0000 </r>
       </set>
       <set comment="band 28">
        <r>  0.0000  0.0000  0.0000  0.0000  0.0000  0.0000  0.7062  0.0000  0.1138 </r>
        <r>  0.0000  0.0000  0.0000  0.0000  0.0000  0.0000  0.0000  0.0000  0.0000 </r>
        <r>  0.0000  0.0000  0.0000  0.0000  0.0000  0.0000  0.0000  0.0000  0.0000 </r>
        <r>  0.0000  0.0000  0.0000  0.0000  0.0000  0.0000  0.0000  0.0000  0.0000 </r>
        <r>  0.0000  0.0000  0.0000  0.0000  0.0000  0.0000  0.0000  0.0000  0.0000 </r>
       </set>
       <set comment="band 29">
        <r>  0.0000  0.0000  0.0000  0.0000  0.0000  0.0000  0.1138  0.0000  0.7062 </r>
        <r>  0.0000  0.0000  0.0000  0.0000  0.0000  0.0000  0.0000  0.0000  0.0000 </r>
        <r>  0.0000  0.0000  0.0000  0.0000  0.0000  0.0000  0.0000  0.0000  0.0000 </r>
        <r>  0.0000  0.0000  0.0000  0.0000  0.0000  0.0000  0.0000  0.0000  0.0000 </r>
        <r>  0.0000  0.0000  0.0000  0.0000  0.0000  0.0000  0.0000  0.0000  0.0000 </r>
       </set>
       <set comment="band 30">
        <r>  0.4901  0.0000  0.0000  0.0000  0.0000  0.0000  0.0000  0.0000  0.0000 </r>
        <r>  0.0000  0.0000  0.0000  0.0000  0.0000  0.0000  0.0000  0.0000  0.0000 </r>
        <r>  0.0000  0.0000  0.0000  0.0000  0.0000  0.0000  0.0000  0.0000  0.0000 </r>
        <r>  0.0000  0.0000  0.0000  0.0000  0.0000  0.0000  0.0000  0.0000  0.0000 </r>
        <r>  0.0000  0.0000  0.0000  0.0000  0.0000  0.0000  0.0000  0.0000  0.0000 </r>
       </set>
       <set comment="band 31">
        <r>  0.0000  0.0027  0.0837  0.0325  0.0000  0.0000  0.0000  0.0000  0.0000 </r>
        <r>  0.0000  0.0000  0.0000  0.0000  0.0055  0.0021  0.0000  0.0002  0.0000 </r>
        <r>  0.0000  0.0708  0.0023  0.0000  0.0000  0.0000  0.0000  0.0000  0.0000 </r>
        <r>  0.0000  0.0000  0.0275  0.0708  0.0000  0.0000  0.0000  0.0000  0.0000 </r>
        <r>  0.0000  0.0275  0.0000  0.0023  0.0000  0.0000  0.0000  0.0000  0.0000 </r>
       </set>
       <set comment="band 32">
        <r>  0.0000  0.0389  0.0277  0.0482  0.0000  0.0000  0.0000  0.0000  0.0000 </r>
        <r>  0.0054  0.0000  0.0000  0.0000  0.0018  0.0031  0.0000  0.0024  0.0000 </r>
        <r>  0.0000  0.0235  0.0330  0.0038  0.0000  0.0000  0.0000  0.0000  0.0000 </r>
        <r>  0.0000  0.0038  0.0407  0.0234  0.0000  0.0000  0.0000  0.0000  0.0000 </r>
        <r>  0.0000  0.0409  0.0038  0.0330  0.0000  0.0000  0.0000  0.0000  0.0000 </r>
       </set>
      </set>
     </set>
    </set>
   </array>
  </projected>
 </calculation>
 <structure name="finalpos" >
  <crystal>
   <varray name="basis" >
    <v>       4.03304391       0.00000000       0.00000000 </v>
    <v>       0.00000000       4.03304391       0.00000000 </v>
    <v>       0.00000000       0.00000000       4.03304391 </v>
   </varray>
   <i name="volume">     65.59924640 </i>
   <varray name="rec_basis" >
    <v>       0.24795168       0.00000000       0.00000000 </v>
    <v>       0.00000000       0.24795168       0.00000000 </v>
    <v>       0.00000000       0.00000000       0.24795168 </v>
   </varray>
  </crystal>
  <varray name="positions" >
   <v>       0.00000000       0.00000000       0.00280000 </v>
   <v>       0.50000000       0.50000000       0.50280000 </v>
   <v>       0.00000000       0.50000000       0.50280000 </v>
   <v>       0.50000000       0.00000000       0.50280000 </v>
   <v>       0.50000000       0.50000000       0.00280000 </v>
  </varray>
 </structure>
</modeling>
