       N       E                     dE             d eps       ncg     rms          rms(c)
DAV:   1    -0.684959237578E+01   -0.68496E+01   -0.37730E+03 42640   0.439E+02
DAV:   2    -0.193704090669E+02   -0.12521E+02   -0.12487E+02 62176   0.443E+01
DAV:   3    -0.194749831625E+02   -0.10457E+00   -0.10457E+00 49248   0.485E+00
DAV:   4    -0.194753076716E+02   -0.32451E-03   -0.32451E-03 78880   0.301E-01
DAV:   5    -0.194753077005E+02   -0.28851E-07   -0.28851E-07 48832   0.237E-03    0.233E+01
DAV:   6    -0.134217611715E+02    0.60535E+01   -0.16504E+00 57376   0.372E+00    0.139E+01
DAV:   7    -0.108183971914E+02    0.26034E+01   -0.43734E+00 64640   0.586E+00    0.978E-01
DAV:   8    -0.108306474122E+02   -0.12250E-01   -0.74284E-02 44304   0.164E+00    0.622E-01
DAV:   9    -0.108506948329E+02   -0.20047E-01   -0.39691E-02 62144   0.910E-01    0.239E-01
DAV:  10    -0.108496995827E+02    0.99525E-03   -0.21646E-03 56048   0.177E-01    0.674E-02
DAV:  11    -0.108492343140E+02    0.46527E-03   -0.12123E-03 49632   0.194E-01    0.342E-02
DAV:  12    -0.108495430621E+02   -0.30875E-03   -0.44075E-04 45424   0.169E-01    0.595E-03
DAV:  13    -0.108495440657E+02   -0.10037E-05   -0.37438E-06 80688   0.107E-02    0.340E-03
DAV:  14    -0.108495439479E+02    0.11781E-06   -0.78419E-07 44992   0.670E-03
   1 F= -.10849544E+02 E0= -.10849544E+02  d E =0.000000E+00  mag=     0.0000
 Linear response reoptimize wavefunctions
DAV:   1    -0.108495447310E+02   -0.78304E-06   -0.91976E-07 50176   0.748E-03
DAV:   2    -0.108495447313E+02   -0.32128E-09   -0.32130E-09 77472   0.298E-04
DAV:   3    -0.108495447313E+02   -0.56843E-13   -0.40067E-13 44160   0.269E-06
 Linear response G [H, r] |phi>, progress :
  Direction:   1
       N       E                     dE             d eps       ncg     rms
RMM:   1    -0.367251024908E+02   -0.36725E+02    0.78000E+00114921   0.247E+01
RMM:   2    -0.288628933363E+02    0.78622E+01   -0.21442E+00 70735   0.528E+00
RMM:   3    -0.288319594396E+02    0.30934E-01   -0.36281E-02 71498   0.616E-01
RMM:   4    -0.288308613194E+02    0.10981E-02   -0.34480E-04 75118   0.658E-02
RMM:   5    -0.288308546572E+02    0.66621E-05   -0.26937E-06 74012   0.805E-03
RMM:   6    -0.288308548141E+02   -0.15690E-06   -0.41438E-08 70683   0.114E-03
 Linear response G [H, r] |phi>, progress :
  Direction:   2
       N       E                     dE             d eps       ncg     rms
RMM:   1    -0.370215197354E+02   -0.37022E+02    0.67558E+00116220   0.249E+01
RMM:   2    -0.288635632484E+02    0.81580E+01   -0.21786E+00 70872   0.538E+00
RMM:   3    -0.288338456458E+02    0.29718E-01   -0.35828E-02 71713   0.628E-01
RMM:   4    -0.288327868614E+02    0.10588E-02   -0.31107E-04 75293   0.669E-02
RMM:   5    -0.288327830150E+02    0.38464E-05    0.44212E-06 74384   0.817E-03
RMM:   6    -0.288327838740E+02   -0.85901E-06    0.90226E-08 71474   0.114E-03
 Linear response G [H, r] |phi>, progress :
  Direction:   3
       N       E                     dE             d eps       ncg     rms
RMM:   1    -0.374724396570E+02   -0.37472E+02    0.30708E+00115504   0.248E+01
RMM:   2    -0.288580157616E+02    0.86144E+01   -0.21092E+00 70877   0.531E+00
RMM:   3    -0.288344505840E+02    0.23565E-01   -0.33313E-02 71618   0.619E-01
RMM:   4    -0.288336176112E+02    0.83297E-03   -0.30003E-04 74912   0.655E-02
RMM:   5    -0.288336145220E+02    0.30891E-05    0.40017E-06 74240   0.794E-03
RMM:   6    -0.288336152724E+02   -0.75035E-06    0.60047E-07 70611   0.111E-03
 Linear response to external field (no local field effect), progress :
  Direction:   1
       N       E                     dE             d eps       ncg     rms          rms(c)
RMM:   1    -0.139563818715E+01   -0.13956E+01   -0.67262E+00108118   0.228E+00
RMM:   2    -0.144307240972E+01   -0.47434E-01   -0.83011E-03 69640   0.349E-01
RMM:   3    -0.144317358484E+01   -0.10118E-03   -0.48054E-05 71106   0.235E-02
RMM:   4    -0.144317398132E+01   -0.39648E-06   -0.29783E-07 71072   0.214E-03
 Linear response to external field (no local field effect), progress :
  Direction:   2
       N       E                     dE             d eps       ncg     rms          rms(c)
RMM:   1    -0.140844744376E+01   -0.14084E+01   -0.68355E+00108986   0.227E+00
RMM:   2    -0.145294613625E+01   -0.44499E-01   -0.83606E-03 69740   0.350E-01
RMM:   3    -0.145304813815E+01   -0.10200E-03   -0.47912E-05 71527   0.237E-02
RMM:   4    -0.145304853517E+01   -0.39702E-06   -0.29773E-07 71995   0.215E-03
 Linear response to external field (no local field effect), progress :
  Direction:   3
       N       E                     dE             d eps       ncg     rms          rms(c)
RMM:   1    -0.141245210321E+01   -0.14125E+01   -0.68686E+00108374   0.221E+00
RMM:   2    -0.145666564464E+01   -0.44214E-01   -0.81890E-03 69687   0.340E-01
RMM:   3    -0.145676391323E+01   -0.98269E-04   -0.47861E-05 71269   0.230E-02
RMM:   4    -0.145676431004E+01   -0.39680E-06   -0.29926E-07 71863   0.211E-03
 Linear response to external field, progress :
  Direction:   1
       N       E                     dE             d eps       ncg     rms          rms(c)
RMM:   1    -0.139563818715E+01   -0.13956E+01   -0.67262E+00108118   0.228E+00
RMM:   2    -0.144307240972E+01   -0.47434E-01   -0.83011E-03 69640   0.349E-01    0.147E+00
RMM:   3    -0.140799217915E+01    0.35080E-01   -0.11206E-02 71020   0.373E-01    0.836E-01
RMM:   4    -0.146396967279E+01   -0.55977E-01   -0.13126E-02 70607   0.426E-01    0.175E-01
RMM:   5    -0.148684393672E+01   -0.22874E-01   -0.67752E-04 70807   0.115E-01    0.200E-02
RMM:   6    -0.148775156646E+01   -0.90763E-03   -0.14008E-05 73958   0.161E-02    0.981E-03
RMM:   7    -0.148855606411E+01   -0.80450E-03   -0.95883E-06 70090   0.134E-02    0.641E-04
RMM:   8    -0.148856874580E+01   -0.12682E-04   -0.63085E-08 72708   0.101E-03    0.279E-04
RMM:   9    -0.148856950425E+01   -0.75845E-06   -0.10938E-08 58578   0.502E-04    0.910E-05
 Linear response to external field, progress :
  Direction:   2
       N       E                     dE             d eps       ncg     rms          rms(c)
RMM:   1    -0.140844744376E+01   -0.14084E+01   -0.68355E+00108986   0.227E+00
RMM:   2    -0.145294613625E+01   -0.44499E-01   -0.83606E-03 69740   0.350E-01    0.148E+00
RMM:   3    -0.141823144994E+01    0.34715E-01   -0.11185E-02 71485   0.373E-01    0.841E-01
RMM:   4    -0.147513132104E+01   -0.56900E-01   -0.13133E-02 70844   0.426E-01    0.176E-01
RMM:   5    -0.149822627644E+01   -0.23095E-01   -0.67846E-04 71144   0.115E-01    0.203E-02
RMM:   6    -0.149919370200E+01   -0.96743E-03   -0.14948E-05 74353   0.165E-02    0.985E-03
RMM:   7    -0.149997003801E+01   -0.77634E-03   -0.87910E-06 70601   0.127E-02    0.844E-04
RMM:   8    -0.150001837245E+01   -0.48334E-04   -0.12799E-07 74628   0.144E-03    0.286E-04
RMM:   9    -0.150001872437E+01   -0.35192E-06   -0.10384E-08 59398   0.476E-04    0.118E-04
 Linear response to external field, progress :
  Direction:   3
       N       E                     dE             d eps       ncg     rms          rms(c)
RMM:   1    -0.141245210321E+01   -0.14125E+01   -0.68686E+00108374   0.221E+00
RMM:   2    -0.145666564464E+01   -0.44214E-01   -0.81890E-03 69687   0.340E-01    0.148E+00
RMM:   3    -0.142211417202E+01    0.34551E-01   -0.11144E-02 71104   0.373E-01    0.843E-01
RMM:   4    -0.147939585549E+01   -0.57282E-01   -0.13114E-02 70630   0.427E-01    0.176E-01
RMM:   5    -0.150259303988E+01   -0.23197E-01   -0.67681E-04 70844   0.115E-01    0.203E-02
RMM:   6    -0.150354760670E+01   -0.95457E-03   -0.14713E-05 74149   0.165E-02    0.983E-03
RMM:   7    -0.150433519137E+01   -0.78758E-03   -0.90435E-06 70470   0.129E-02    0.755E-04
RMM:   8    -0.150437374962E+01   -0.38558E-04   -0.10328E-07 74568   0.131E-03    0.286E-04
RMM:   9    -0.150437427539E+01   -0.52577E-06   -0.10105E-08 58751   0.473E-04    0.119E-04
 Linear response DOF=           3
 Linear response progress:
  Degree of freedom:   1/  3
       N       E                     dE             d eps       ncg     rms          rms(c)
RMM:   1    -0.195968629864E-01   -0.19597E-01    0.11964E-02101152   0.531E-01
RMM:   2    -0.173020411317E-01    0.22948E-02   -0.49283E-04 67384   0.909E-02    0.789E-02
RMM:   3    -0.173030756173E-01   -0.10345E-05   -0.14545E-05 70875   0.168E-02    0.471E-02
RMM:   4    -0.174474616915E-01   -0.14439E-03   -0.18829E-05 69939   0.194E-02    0.528E-03
RMM:   5    -0.174208131187E-01    0.26649E-04   -0.11625E-06 73076   0.401E-03    0.736E-04
RMM:   6    -0.174193958551E-01    0.14173E-05   -0.47659E-08 74541   0.446E-04    0.427E-04
RMM:   7    -0.174180050514E-01    0.13908E-05   -0.66041E-09 71279   0.444E-04    0.422E-05
RMM:   8    -0.174180580954E-01   -0.53044E-07    0.83425E-09 74592   0.495E-05    0.201E-05
 Linear response progress:
  Degree of freedom:   2/  3
       N       E                     dE             d eps       ncg     rms          rms(c)
RMM:   1    -0.194911484439E-01   -0.19491E-01    0.11535E-02101948   0.528E-01
RMM:   2    -0.172552989949E-01    0.22358E-02   -0.46213E-04 67261   0.902E-02    0.785E-02
RMM:   3    -0.172572578410E-01   -0.19588E-05   -0.13800E-05 71043   0.167E-02    0.469E-02
RMM:   4    -0.173983427003E-01   -0.14108E-03   -0.19767E-05 69985   0.193E-02    0.529E-03
RMM:   5    -0.173716583545E-01    0.26684E-04   -0.57282E-07 73367   0.400E-03    0.737E-04
RMM:   6    -0.173702478864E-01    0.14105E-05   -0.53978E-08 74825   0.448E-04    0.424E-04
RMM:   7    -0.173688407043E-01    0.14072E-05   -0.55334E-08 71511   0.443E-04    0.424E-05
RMM:   8    -0.173688934596E-01   -0.52755E-07    0.64260E-09 74951   0.502E-05    0.195E-05
 Linear response progress:
  Degree of freedom:   3/  3
       N       E                     dE             d eps       ncg     rms          rms(c)
RMM:   1    -0.193984378645E-01   -0.19398E-01    0.12076E-02101684   0.525E-01
RMM:   2    -0.172529688866E-01    0.21455E-02   -0.60908E-04 67491   0.901E-02    0.784E-02
RMM:   3    -0.172414614987E-01    0.11507E-04   -0.26374E-05 71019   0.166E-02    0.468E-02
RMM:   4    -0.173794560593E-01   -0.13799E-03   -0.15458E-05 69844   0.192E-02    0.530E-03
RMM:   5    -0.173535363640E-01    0.25920E-04   -0.21900E-06 73089   0.399E-03    0.739E-04
RMM:   6    -0.173518464664E-01    0.16899E-05    0.12711E-07 74641   0.449E-04    0.424E-04
RMM:   7    -0.173504439023E-01    0.14026E-05    0.96107E-08 71308   0.442E-04    0.424E-05
RMM:   8    -0.173505174696E-01   -0.73567E-07   -0.32504E-08 74722   0.506E-05    0.193E-05
 Linear response finished
