 vasp.5.4.1 24Jun15 (build Feb 01 2016 23:38:11) complex                        
  
 executed on           IFC91_impi date 2016.08.25  08:37:58
 running on   16 total cores
 distrk:  each k-point on   16 cores,    1 groups
 distr:  one band on NCORES_PER_BAND=   1 cores,   16 groups


--------------------------------------------------------------------------------------------------------


 INCAR:
 POTCAR:   PAW_PBE Si 05Jan2001                   

 ----------------------------------------------------------------------------- 
|                                                                             |
|           W    W    AA    RRRRR   N    N  II  N    N   GGGG   !!!           |
|           W    W   A  A   R    R  NN   N  II  NN   N  G    G  !!!           |
|           W    W  A    A  R    R  N N  N  II  N N  N  G       !!!           |
|           W WW W  AAAAAA  RRRRR   N  N N  II  N  N N  G  GGG   !            |
|           WW  WW  A    A  R   R   N   NN  II  N   NN  G    G                |
|           W    W  A    A  R    R  N    N  II  N    N   GGGG   !!!           |
|                                                                             |
|      For optimal performance we recommend to set                            |
|        NCORE= 4 - approx SQRT( number of cores)                             |
|      NCORE specifies how many cores store one orbital (NPAR=cpu/NCORE).     |
|      This setting can  greatly improve the performance of VASP for DFT.     |
|      The default, NPAR=number of cores might be grossly inefficient         |
|      on modern multi-core architectures or massively parallel machines.     |
|      Do your own testing !!!!                                               |
|      Unfortunately you need to use the default for GW and RPA calculations. |
|      (for HF NCORE is supported but not extensively tested yet)             |
|                                                                             |
 ----------------------------------------------------------------------------- 

 POTCAR:   PAW_PBE Si 05Jan2001                   
   VRHFIN =Si: s2p2                                                             
   LEXCH  = PE                                                                  
   EATOM  =   103.0669 eV,    7.5752 Ry                                         
                                                                                
   TITEL  = PAW_PBE Si 05Jan2001                                                
   LULTRA =        F    use ultrasoft PP ?                                      
   IUNSCR =        1    unscreen: 0-lin 1-nonlin 2-no                           
   RPACOR =    1.500    partial core radius                                     
   POMASS =   28.085; ZVAL   =    4.000    mass and valenz                      
   RCORE  =    1.900    outmost cutoff radius                                   
   RWIGS  =    2.480; RWIGS  =    1.312    wigner-seitz radius (au A)           
   ENMAX  =  245.345; ENMIN  =  184.009 eV                                      
   ICORE  =        2    local potential                                         
   LCOR   =        T    correct aug charges                                     
   LPAW   =        T    paw PP                                                  
   EAUG   =  322.069                                                            
   DEXC   =    -.007                                                            
   RMAX   =    2.944    core radius for proj-oper                               
   RAUG   =    1.300    factor for augmentation sphere                          
   RDEP   =    1.993    radius for radial grids                                 
   QCUT   =   -4.246; QGAM   =    8.493    optimization parameters              
                                                                                
   Description                                                                  
     l     E      TYP  RCUT    TYP  RCUT                                        
     0   .000     23  1.900                                                     
     0   .000     23  1.900                                                     
     1   .000     23  1.900                                                     
     1   .000     23  1.900                                                     
     2   .000      7  1.900                                                     
  local pseudopotential read in
  partial core-charges read in
  atomic valenz-charges read in
  non local Contribution for L=           0  read in
    real space projection operators read in
  non local Contribution for L=           0  read in
    real space projection operators read in
  non local Contribution for L=           1  read in
    real space projection operators read in
  non local Contribution for L=           1  read in
    real space projection operators read in
    PAW grid and wavefunctions read in
 
   number of l-projection  operators is LMAX  =           4
   number of lm-projection operators is LMMAX =           8
 

 ----------------------------------------------------------------------------- 
|                                                                             |
|  ADVICE TO THIS USER RUNNING 'VASP/VAMP'   (HEAR YOUR MASTER'S VOICE ...):  |
|                                                                             |
|      You have a (more or less) 'small supercell' and for smaller cells      |
|      it is recommended  to use the reciprocal-space projection scheme!      |
|      The real space optimization is not  efficient for small cells and it   |
|      is also less accurate ...                                              |
|      Therefore set LREAL=.FALSE. in the  INCAR file                         |
|                                                                             |
 ----------------------------------------------------------------------------- 

 Optimization of the real space projectors (new method)

 maximal supplied QI-value         = 19.84
 optimisation between [QCUT,QGAM] = [ 12.50, 25.00] = [ 43.76,175.03] Ry 
 Optimized for a Real-space Cutoff    1.16 Angstroem

   l    n(q)    QCUT    max X(q) W(low)/X(q) W(high)/X(q)  e(spline) 
   0      9    12.501     8.708    0.14E-04    0.64E-05    0.48E-08
   0      9    12.501   106.241    0.99E-04    0.81E-04    0.70E-07
   1      8    12.501     5.901    0.24E-04    0.20E-04    0.18E-07
   1      8    12.501    73.241    0.20E-03    0.24E-03    0.75E-07
 PAW_PBE Si 05Jan2001                   :
 energy of atom  1       EATOM= -103.0669
 kinetic energy error for atom=    0.0003 (will be added to EATOM!!)
 
 
 POSCAR: Si2                                     
  positions in direct lattice
  No initial velocities read in
 exchange correlation table for  LEXCH =        8
   RHO(1)=    0.500       N(1)  =     2000
   RHO(2)=  100.500       N(2)  =     4000
 


--------------------------------------------------------------------------------------------------------


 ion  position               nearest neighbor table
   1  0.001  0.998  0.999-   2 2.36   2 2.36   2 2.37   2 2.37
   2  0.749  0.502  0.751-   1 2.36   1 2.36   1 2.37   1 2.37
 
  LATTYP: Found a face centered cubic cell.
 ALAT       =     5.4694110002
  
  Lattice vectors:
  
 A1 = (   1.9337280000,   3.3493170000,   0.0000000000)
 A2 = (   0.0000000000,   2.2328760000,  -3.1577660000)
 A3 = (  -1.9337290000,   3.3493170000,   0.0000000000)


Analysis of symmetry for initial positions (statically):
=====================================================================
 Subroutine PRICEL returns:
 Original cell was already a primitive cell.
 

 Routine SETGRP: Setting up the symmetry group for a 
 face centered cubic supercell.


 Subroutine GETGRP returns: Found  2 space group operations
 (whereof  1 operations were pure point group operations)
 out of a pool of 48 trial point group operations.


The static configuration has the point symmetry C_1 .
 The point group associated with its full space group is S_2 .


Analysis of symmetry for dynamics (positions and initial velocities):
=====================================================================
 Subroutine PRICEL returns:
 Original cell was already a primitive cell.
 

 Routine SETGRP: Setting up the symmetry group for a 
 face centered cubic supercell.


 Subroutine GETGRP returns: Found  2 space group operations
 (whereof  1 operations were pure point group operations)
 out of a pool of 48 trial point group operations.


The dynamic configuration has the point symmetry C_1 .
 The point group associated with its full space group is S_2 .


Analysis of structural, dynamic, and magnetic symmetry:
=====================================================================
 Subroutine PRICEL returns:
 Original cell was already a primitive cell.
 

 Routine SETGRP: Setting up the symmetry group for a 
 face centered cubic supercell.


 Subroutine GETGRP returns: Found  2 space group operations
 (whereof  1 operations were pure point group operations)
 out of a pool of 48 trial point group operations.


The magnetic configuration has the point symmetry C_1 .
 The point group associated with its full space group is S_2 .


 Subroutine INISYM returns: Found  2 space group operations
 (whereof  1 operations are pure point group operations),
 and found     1 'primitive' translations

 
 
 KPOINTS: pymatgen generated KPOINTS with grid den

Automatic generation of k-mesh.
Space group operators:
 irot       det(A)        alpha          n_x          n_y          n_z        tau_x        tau_y        tau_z
    1     1.000000     0.000000     1.000000     0.000000     0.000000     0.000000     0.000000     0.000000
    2    -1.000000     0.000000     1.000000     0.000000     0.000000    -0.250000     0.500000    -0.250000
 
 Subroutine IBZKPT returns following result:
 ===========================================
 
 Found    666 irreducible k-points:
 
 Following reciprocal coordinates:
            Coordinates               Weight
  0.000000  0.000000  0.000000      1.000000
  0.090909  0.000000 -0.000000      2.000000
  0.181818  0.000000 -0.000000      2.000000
  0.272727  0.000000  0.000000      2.000000
  0.363636  0.000000 -0.000000      2.000000
  0.454545  0.000000  0.000000      2.000000
  0.000000  0.090909 -0.000000      2.000000
  0.090909  0.090909 -0.000000      2.000000
  0.181818  0.090909 -0.000000      2.000000
  0.272727  0.090909 -0.000000      2.000000
  0.363636  0.090909 -0.000000      2.000000
  0.454545  0.090909  0.000000      2.000000
 -0.454545  0.090909  0.000000      2.000000
 -0.363636  0.090909  0.000000      2.000000
 -0.272727  0.090909  0.000000      2.000000
 -0.181818  0.090909 -0.000000      2.000000
 -0.090909  0.090909 -0.000000      2.000000
  0.000000  0.181818 -0.000000      2.000000
  0.090909  0.181818 -0.000000      2.000000
  0.181818  0.181818 -0.000000      2.000000
  0.272727  0.181818 -0.000000      2.000000
  0.363636  0.181818 -0.000000      2.000000
  0.454545  0.181818  0.000000      2.000000
 -0.454545  0.181818 -0.000000      2.000000
 -0.363636  0.181818 -0.000000      2.000000
 -0.272727  0.181818 -0.000000      2.000000
 -0.181818  0.181818 -0.000000      2.000000
 -0.090909  0.181818  0.000000      2.000000
  0.000000  0.272727 -0.000000      2.000000
  0.090909  0.272727 -0.000000      2.000000
  0.181818  0.272727 -0.000000      2.000000
  0.272727  0.272727 -0.000000      2.000000
  0.363636  0.272727 -0.000000      2.000000
  0.454545  0.272727  0.000000      2.000000
 -0.454545  0.272727 -0.000000      2.000000
 -0.363636  0.272727 -0.000000      2.000000
 -0.272727  0.272727 -0.000000      2.000000
 -0.181818  0.272727 -0.000000      2.000000
 -0.090909  0.272727 -0.000000      2.000000
  0.000000  0.363636 -0.000000      2.000000
  0.090909  0.363636 -0.000000      2.000000
  0.181818  0.363636 -0.000000      2.000000
  0.272727  0.363636 -0.000000      2.000000
  0.363636  0.363636 -0.000000      2.000000
  0.454545  0.363636  0.000000      2.000000
 -0.454545  0.363636 -0.000000      2.000000
 -0.363636  0.363636 -0.000000      2.000000
 -0.272727  0.363636  0.000000      2.000000
 -0.181818  0.363636  0.000000      2.000000
 -0.090909  0.363636 -0.000000      2.000000
  0.000000  0.454545 -0.000000      2.000000
  0.090909  0.454545 -0.000000      2.000000
  0.181818  0.454545 -0.000000      2.000000
  0.272727  0.454545 -0.000000      2.000000
  0.363636  0.454545 -0.000000      2.000000
  0.454545  0.454545 -0.000000      2.000000
 -0.454545  0.454545 -0.000000      2.000000
 -0.363636  0.454545 -0.000000      2.000000
 -0.272727  0.454545  0.000000      2.000000
 -0.181818  0.454545 -0.000000      2.000000
 -0.090909  0.454545 -0.000000      2.000000
  0.000000  0.000000  0.090909      2.000000
  0.090909  0.000000  0.090909      2.000000
  0.181818  0.000000  0.090909      2.000000
  0.272727  0.000000  0.090909      2.000000
  0.363636  0.000000  0.090909      2.000000
  0.454545  0.000000  0.090909      2.000000
 -0.454545 -0.000000  0.090909      2.000000
 -0.363636  0.000000  0.090909      2.000000
 -0.272727 -0.000000  0.090909      2.000000
 -0.181818  0.000000  0.090909      2.000000
 -0.090909  0.000000  0.090909      2.000000
  0.000000  0.090909  0.090909      2.000000
  0.090909  0.090909  0.090909      2.000000
  0.181818  0.090909  0.090909      2.000000
  0.272727  0.090909  0.090909      2.000000
  0.363636  0.090909  0.090909      2.000000
  0.454545  0.090909  0.090909      2.000000
 -0.454545  0.090909  0.090909      2.000000
 -0.363636  0.090909  0.090909      2.000000
 -0.272727  0.090909  0.090909      2.000000
 -0.181818  0.090909  0.090909      2.000000
 -0.090909  0.090909  0.090909      2.000000
  0.000000  0.181818  0.090909      2.000000
  0.090909  0.181818  0.090909      2.000000
  0.181818  0.181818  0.090909      2.000000
  0.272727  0.181818  0.090909      2.000000
  0.363636  0.181818  0.090909      2.000000
  0.454545  0.181818  0.090909      2.000000
 -0.454545  0.181818  0.090909      2.000000
 -0.363636  0.181818  0.090909      2.000000
 -0.272727  0.181818  0.090909      2.000000
 -0.181818  0.181818  0.090909      2.000000
 -0.090909  0.181818  0.090909      2.000000
  0.000000  0.272727  0.090909      2.000000
  0.090909  0.272727  0.090909      2.000000
  0.181818  0.272727  0.090909      2.000000
  0.272727  0.272727  0.090909      2.000000
  0.363636  0.272727  0.090909      2.000000
  0.454545  0.272727  0.090909      2.000000
 -0.454545  0.272727  0.090909      2.000000
 -0.363636  0.272727  0.090909      2.000000
 -0.272727  0.272727  0.090909      2.000000
 -0.181818  0.272727  0.090909      2.000000
 -0.090909  0.272727  0.090909      2.000000
  0.000000  0.363636  0.090909      2.000000
  0.090909  0.363636  0.090909      2.000000
  0.181818  0.363636  0.090909      2.000000
  0.272727  0.363636  0.090909      2.000000
  0.363636  0.363636  0.090909      2.000000
  0.454545  0.363636  0.090909      2.000000
 -0.454545  0.363636  0.090909      2.000000
 -0.363636  0.363636  0.090909      2.000000
 -0.272727  0.363636  0.090909      2.000000
 -0.181818  0.363636  0.090909      2.000000
 -0.090909  0.363636  0.090909      2.000000
  0.000000  0.454545  0.090909      2.000000
  0.090909  0.454545  0.090909      2.000000
  0.181818  0.454545  0.090909      2.000000
  0.272727  0.454545  0.090909      2.000000
  0.363636  0.454545  0.090909      2.000000
  0.454545  0.454545  0.090909      2.000000
 -0.454545  0.454545  0.090909      2.000000
 -0.363636  0.454545  0.090909      2.000000
 -0.272727  0.454545  0.090909      2.000000
 -0.181818  0.454545  0.090909      2.000000
 -0.090909  0.454545  0.090909      2.000000
  0.000000 -0.454545  0.090909      2.000000
  0.090909 -0.454545  0.090909      2.000000
  0.181818 -0.454545  0.090909      2.000000
  0.272727 -0.454545  0.090909      2.000000
  0.363636 -0.454545  0.090909      2.000000
  0.454545 -0.454545  0.090909      2.000000
 -0.454545 -0.454545  0.090909      2.000000
 -0.363636 -0.454545  0.090909      2.000000
 -0.272727 -0.454545  0.090909      2.000000
 -0.181818 -0.454545  0.090909      2.000000
 -0.090909 -0.454545  0.090909      2.000000
  0.000000 -0.363636  0.090909      2.000000
  0.090909 -0.363636  0.090909      2.000000
  0.181818 -0.363636  0.090909      2.000000
  0.272727 -0.363636  0.090909      2.000000
  0.363636 -0.363636  0.090909      2.000000
  0.454545 -0.363636  0.090909      2.000000
 -0.454545 -0.363636  0.090909      2.000000
 -0.363636 -0.363636  0.090909      2.000000
 -0.272727 -0.363636  0.090909      2.000000
 -0.181818 -0.363636  0.090909      2.000000
 -0.090909 -0.363636  0.090909      2.000000
  0.000000 -0.272727  0.090909      2.000000
  0.090909 -0.272727  0.090909      2.000000
  0.181818 -0.272727  0.090909      2.000000
  0.272727 -0.272727  0.090909      2.000000
  0.363636 -0.272727  0.090909      2.000000
  0.454545 -0.272727  0.090909      2.000000
 -0.454545 -0.272727  0.090909      2.000000
 -0.363636 -0.272727  0.090909      2.000000
 -0.272727 -0.272727  0.090909      2.000000
 -0.181818 -0.272727  0.090909      2.000000
 -0.090909 -0.272727  0.090909      2.000000
  0.000000 -0.181818  0.090909      2.000000
  0.090909 -0.181818  0.090909      2.000000
  0.181818 -0.181818  0.090909      2.000000
  0.272727 -0.181818  0.090909      2.000000
  0.363636 -0.181818  0.090909      2.000000
  0.454545 -0.181818  0.090909      2.000000
 -0.454545 -0.181818  0.090909      2.000000
 -0.363636 -0.181818  0.090909      2.000000
 -0.272727 -0.181818  0.090909      2.000000
 -0.181818 -0.181818  0.090909      2.000000
 -0.090909 -0.181818  0.090909      2.000000
  0.000000 -0.090909  0.090909      2.000000
  0.090909 -0.090909  0.090909      2.000000
  0.181818 -0.090909  0.090909      2.000000
  0.272727 -0.090909  0.090909      2.000000
  0.363636 -0.090909  0.090909      2.000000
  0.454545 -0.090909  0.090909      2.000000
 -0.454545 -0.090909  0.090909      2.000000
 -0.363636 -0.090909  0.090909      2.000000
 -0.272727 -0.090909  0.090909      2.000000
 -0.181818 -0.090909  0.090909      2.000000
 -0.090909 -0.090909  0.090909      2.000000
  0.000000  0.000000  0.181818      2.000000
  0.090909  0.000000  0.181818      2.000000
  0.181818  0.000000  0.181818      2.000000
  0.272727  0.000000  0.181818      2.000000
  0.363636  0.000000  0.181818      2.000000
  0.454545  0.000000  0.181818      2.000000
 -0.454545 -0.000000  0.181818      2.000000
 -0.363636  0.000000  0.181818      2.000000
 -0.272727 -0.000000  0.181818      2.000000
 -0.181818  0.000000  0.181818      2.000000
 -0.090909  0.000000  0.181818      2.000000
  0.000000  0.090909  0.181818      2.000000
  0.090909  0.090909  0.181818      2.000000
  0.181818  0.090909  0.181818      2.000000
  0.272727  0.090909  0.181818      2.000000
  0.363636  0.090909  0.181818      2.000000
  0.454545  0.090909  0.181818      2.000000
 -0.454545  0.090909  0.181818      2.000000
 -0.363636  0.090909  0.181818      2.000000
 -0.272727  0.090909  0.181818      2.000000
 -0.181818  0.090909  0.181818      2.000000
 -0.090909  0.090909  0.181818      2.000000
  0.000000  0.181818  0.181818      2.000000
  0.090909  0.181818  0.181818      2.000000
  0.181818  0.181818  0.181818      2.000000
  0.272727  0.181818  0.181818      2.000000
  0.363636  0.181818  0.181818      2.000000
  0.454545  0.181818  0.181818      2.000000
 -0.454545  0.181818  0.181818      2.000000
 -0.363636  0.181818  0.181818      2.000000
 -0.272727  0.181818  0.181818      2.000000
 -0.181818  0.181818  0.181818      2.000000
 -0.090909  0.181818  0.181818      2.000000
  0.000000  0.272727  0.181818      2.000000
  0.090909  0.272727  0.181818      2.000000
  0.181818  0.272727  0.181818      2.000000
  0.272727  0.272727  0.181818      2.000000
  0.363636  0.272727  0.181818      2.000000
  0.454545  0.272727  0.181818      2.000000
 -0.454545  0.272727  0.181818      2.000000
 -0.363636  0.272727  0.181818      2.000000
 -0.272727  0.272727  0.181818      2.000000
 -0.181818  0.272727  0.181818      2.000000
 -0.090909  0.272727  0.181818      2.000000
  0.000000  0.363636  0.181818      2.000000
  0.090909  0.363636  0.181818      2.000000
  0.181818  0.363636  0.181818      2.000000
  0.272727  0.363636  0.181818      2.000000
  0.363636  0.363636  0.181818      2.000000
  0.454545  0.363636  0.181818      2.000000
 -0.454545  0.363636  0.181818      2.000000
 -0.363636  0.363636  0.181818      2.000000
 -0.272727  0.363636  0.181818      2.000000
 -0.181818  0.363636  0.181818      2.000000
 -0.090909  0.363636  0.181818      2.000000
  0.000000  0.454545  0.181818      2.000000
  0.090909  0.454545  0.181818      2.000000
  0.181818  0.454545  0.181818      2.000000
  0.272727  0.454545  0.181818      2.000000
  0.363636  0.454545  0.181818      2.000000
  0.454545  0.454545  0.181818      2.000000
 -0.454545  0.454545  0.181818      2.000000
 -0.363636  0.454545  0.181818      2.000000
 -0.272727  0.454545  0.181818      2.000000
 -0.181818  0.454545  0.181818      2.000000
 -0.090909  0.454545  0.181818      2.000000
  0.000000 -0.454545  0.181818      2.000000
  0.090909 -0.454545  0.181818      2.000000
  0.181818 -0.454545  0.181818      2.000000
  0.272727 -0.454545  0.181818      2.000000
  0.363636 -0.454545  0.181818      2.000000
  0.454545 -0.454545  0.181818      2.000000
 -0.454545 -0.454545  0.181818      2.000000
 -0.363636 -0.454545  0.181818      2.000000
 -0.272727 -0.454545  0.181818      2.000000
 -0.181818 -0.454545  0.181818      2.000000
 -0.090909 -0.454545  0.181818      2.000000
  0.000000 -0.363636  0.181818      2.000000
  0.090909 -0.363636  0.181818      2.000000
  0.181818 -0.363636  0.181818      2.000000
  0.272727 -0.363636  0.181818      2.000000
  0.363636 -0.363636  0.181818      2.000000
  0.454545 -0.363636  0.181818      2.000000
 -0.454545 -0.363636  0.181818      2.000000
 -0.363636 -0.363636  0.181818      2.000000
 -0.272727 -0.363636  0.181818      2.000000
 -0.181818 -0.363636  0.181818      2.000000
 -0.090909 -0.363636  0.181818      2.000000
  0.000000 -0.272727  0.181818      2.000000
  0.090909 -0.272727  0.181818      2.000000
  0.181818 -0.272727  0.181818      2.000000
  0.272727 -0.272727  0.181818      2.000000
  0.363636 -0.272727  0.181818      2.000000
  0.454545 -0.272727  0.181818      2.000000
 -0.454545 -0.272727  0.181818      2.000000
 -0.363636 -0.272727  0.181818      2.000000
 -0.272727 -0.272727  0.181818      2.000000
 -0.181818 -0.272727  0.181818      2.000000
 -0.090909 -0.272727  0.181818      2.000000
  0.000000 -0.181818  0.181818      2.000000
  0.090909 -0.181818  0.181818      2.000000
  0.181818 -0.181818  0.181818      2.000000
  0.272727 -0.181818  0.181818      2.000000
  0.363636 -0.181818  0.181818      2.000000
  0.454545 -0.181818  0.181818      2.000000
 -0.454545 -0.181818  0.181818      2.000000
 -0.363636 -0.181818  0.181818      2.000000
 -0.272727 -0.181818  0.181818      2.000000
 -0.181818 -0.181818  0.181818      2.000000
 -0.090909 -0.181818  0.181818      2.000000
  0.000000 -0.090909  0.181818      2.000000
  0.090909 -0.090909  0.181818      2.000000
  0.181818 -0.090909  0.181818      2.000000
  0.272727 -0.090909  0.181818      2.000000
  0.363636 -0.090909  0.181818      2.000000
  0.454545 -0.090909  0.181818      2.000000
 -0.454545 -0.090909  0.181818      2.000000
 -0.363636 -0.090909  0.181818      2.000000
 -0.272727 -0.090909  0.181818      2.000000
 -0.181818 -0.090909  0.181818      2.000000
 -0.090909 -0.090909  0.181818      2.000000
  0.000000  0.000000  0.272727      2.000000
  0.090909  0.000000  0.272727      2.000000
  0.181818  0.000000  0.272727      2.000000
  0.272727  0.000000  0.272727      2.000000
  0.363636  0.000000  0.272727      2.000000
  0.454545  0.000000  0.272727      2.000000
 -0.454545 -0.000000  0.272727      2.000000
 -0.363636  0.000000  0.272727      2.000000
 -0.272727 -0.000000  0.272727      2.000000
 -0.181818  0.000000  0.272727      2.000000
 -0.090909  0.000000  0.272727      2.000000
  0.000000  0.090909  0.272727      2.000000
  0.090909  0.090909  0.272727      2.000000
  0.181818  0.090909  0.272727      2.000000
  0.272727  0.090909  0.272727      2.000000
  0.363636  0.090909  0.272727      2.000000
  0.454545  0.090909  0.272727      2.000000
 -0.454545  0.090909  0.272727      2.000000
 -0.363636  0.090909  0.272727      2.000000
 -0.272727  0.090909  0.272727      2.000000
 -0.181818  0.090909  0.272727      2.000000
 -0.090909  0.090909  0.272727      2.000000
  0.000000  0.181818  0.272727      2.000000
  0.090909  0.181818  0.272727      2.000000
  0.181818  0.181818  0.272727      2.000000
  0.272727  0.181818  0.272727      2.000000
  0.363636  0.181818  0.272727      2.000000
  0.454545  0.181818  0.272727      2.000000
 -0.454545  0.181818  0.272727      2.000000
 -0.363636  0.181818  0.272727      2.000000
 -0.272727  0.181818  0.272727      2.000000
 -0.181818  0.181818  0.272727      2.000000
 -0.090909  0.181818  0.272727      2.000000
  0.000000  0.272727  0.272727      2.000000
  0.090909  0.272727  0.272727      2.000000
  0.181818  0.272727  0.272727      2.000000
  0.272727  0.272727  0.272727      2.000000
  0.363636  0.272727  0.272727      2.000000
  0.454545  0.272727  0.272727      2.000000
 -0.454545  0.272727  0.272727      2.000000
 -0.363636  0.272727  0.272727      2.000000
 -0.272727  0.272727  0.272727      2.000000
 -0.181818  0.272727  0.272727      2.000000
 -0.090909  0.272727  0.272727      2.000000
  0.000000  0.363636  0.272727      2.000000
  0.090909  0.363636  0.272727      2.000000
  0.181818  0.363636  0.272727      2.000000
  0.272727  0.363636  0.272727      2.000000
  0.363636  0.363636  0.272727      2.000000
  0.454545  0.363636  0.272727      2.000000
 -0.454545  0.363636  0.272727      2.000000
 -0.363636  0.363636  0.272727      2.000000
 -0.272727  0.363636  0.272727      2.000000
 -0.181818  0.363636  0.272727      2.000000
 -0.090909  0.363636  0.272727      2.000000
  0.000000  0.454545  0.272727      2.000000
  0.090909  0.454545  0.272727      2.000000
  0.181818  0.454545  0.272727      2.000000
  0.272727  0.454545  0.272727      2.000000
  0.363636  0.454545  0.272727      2.000000
  0.454545  0.454545  0.272727      2.000000
 -0.454545  0.454545  0.272727      2.000000
 -0.363636  0.454545  0.272727      2.000000
 -0.272727  0.454545  0.272727      2.000000
 -0.181818  0.454545  0.272727      2.000000
 -0.090909  0.454545  0.272727      2.000000
  0.000000 -0.454545  0.272727      2.000000
  0.090909 -0.454545  0.272727      2.000000
  0.181818 -0.454545  0.272727      2.000000
  0.272727 -0.454545  0.272727      2.000000
  0.363636 -0.454545  0.272727      2.000000
  0.454545 -0.454545  0.272727      2.000000
 -0.454545 -0.454545  0.272727      2.000000
 -0.363636 -0.454545  0.272727      2.000000
 -0.272727 -0.454545  0.272727      2.000000
 -0.181818 -0.454545  0.272727      2.000000
 -0.090909 -0.454545  0.272727      2.000000
  0.000000 -0.363636  0.272727      2.000000
  0.090909 -0.363636  0.272727      2.000000
  0.181818 -0.363636  0.272727      2.000000
  0.272727 -0.363636  0.272727      2.000000
  0.363636 -0.363636  0.272727      2.000000
  0.454545 -0.363636  0.272727      2.000000
 -0.454545 -0.363636  0.272727      2.000000
 -0.363636 -0.363636  0.272727      2.000000
 -0.272727 -0.363636  0.272727      2.000000
 -0.181818 -0.363636  0.272727      2.000000
 -0.090909 -0.363636  0.272727      2.000000
  0.000000 -0.272727  0.272727      2.000000
  0.090909 -0.272727  0.272727      2.000000
  0.181818 -0.272727  0.272727      2.000000
  0.272727 -0.272727  0.272727      2.000000
  0.363636 -0.272727  0.272727      2.000000
  0.454545 -0.272727  0.272727      2.000000
 -0.454545 -0.272727  0.272727      2.000000
 -0.363636 -0.272727  0.272727      2.000000
 -0.272727 -0.272727  0.272727      2.000000
 -0.181818 -0.272727  0.272727      2.000000
 -0.090909 -0.272727  0.272727      2.000000
  0.000000 -0.181818  0.272727      2.000000
  0.090909 -0.181818  0.272727      2.000000
  0.181818 -0.181818  0.272727      2.000000
  0.272727 -0.181818  0.272727      2.000000
  0.363636 -0.181818  0.272727      2.000000
  0.454545 -0.181818  0.272727      2.000000
 -0.454545 -0.181818  0.272727      2.000000
 -0.363636 -0.181818  0.272727      2.000000
 -0.272727 -0.181818  0.272727      2.000000
 -0.181818 -0.181818  0.272727      2.000000
 -0.090909 -0.181818  0.272727      2.000000
  0.000000 -0.090909  0.272727      2.000000
  0.090909 -0.090909  0.272727      2.000000
  0.181818 -0.090909  0.272727      2.000000
  0.272727 -0.090909  0.272727      2.000000
  0.363636 -0.090909  0.272727      2.000000
  0.454545 -0.090909  0.272727      2.000000
 -0.454545 -0.090909  0.272727      2.000000
 -0.363636 -0.090909  0.272727      2.000000
 -0.272727 -0.090909  0.272727      2.000000
 -0.181818 -0.090909  0.272727      2.000000
 -0.090909 -0.090909  0.272727      2.000000
  0.000000  0.000000  0.363636      2.000000
  0.090909  0.000000  0.363636      2.000000
  0.181818  0.000000  0.363636      2.000000
  0.272727  0.000000  0.363636      2.000000
  0.363636  0.000000  0.363636      2.000000
  0.454545  0.000000  0.363636      2.000000
 -0.454545 -0.000000  0.363636      2.000000
 -0.363636  0.000000  0.363636      2.000000
 -0.272727 -0.000000  0.363636      2.000000
 -0.181818  0.000000  0.363636      2.000000
 -0.090909  0.000000  0.363636      2.000000
  0.000000  0.090909  0.363636      2.000000
  0.090909  0.090909  0.363636      2.000000
  0.181818  0.090909  0.363636      2.000000
  0.272727  0.090909  0.363636      2.000000
  0.363636  0.090909  0.363636      2.000000
  0.454545  0.090909  0.363636      2.000000
 -0.454545  0.090909  0.363636      2.000000
 -0.363636  0.090909  0.363636      2.000000
 -0.272727  0.090909  0.363636      2.000000
 -0.181818  0.090909  0.363636      2.000000
 -0.090909  0.090909  0.363636      2.000000
  0.000000  0.181818  0.363636      2.000000
  0.090909  0.181818  0.363636      2.000000
  0.181818  0.181818  0.363636      2.000000
  0.272727  0.181818  0.363636      2.000000
  0.363636  0.181818  0.363636      2.000000
  0.454545  0.181818  0.363636      2.000000
 -0.454545  0.181818  0.363636      2.000000
 -0.363636  0.181818  0.363636      2.000000
 -0.272727  0.181818  0.363636      2.000000
 -0.181818  0.181818  0.363636      2.000000
 -0.090909  0.181818  0.363636      2.000000
  0.000000  0.272727  0.363636      2.000000
  0.090909  0.272727  0.363636      2.000000
  0.181818  0.272727  0.363636      2.000000
  0.272727  0.272727  0.363636      2.000000
  0.363636  0.272727  0.363636      2.000000
  0.454545  0.272727  0.363636      2.000000
 -0.454545  0.272727  0.363636      2.000000
 -0.363636  0.272727  0.363636      2.000000
 -0.272727  0.272727  0.363636      2.000000
 -0.181818  0.272727  0.363636      2.000000
 -0.090909  0.272727  0.363636      2.000000
  0.000000  0.363636  0.363636      2.000000
  0.090909  0.363636  0.363636      2.000000
  0.181818  0.363636  0.363636      2.000000
  0.272727  0.363636  0.363636      2.000000
  0.363636  0.363636  0.363636      2.000000
  0.454545  0.363636  0.363636      2.000000
 -0.454545  0.363636  0.363636      2.000000
 -0.363636  0.363636  0.363636      2.000000
 -0.272727  0.363636  0.363636      2.000000
 -0.181818  0.363636  0.363636      2.000000
 -0.090909  0.363636  0.363636      2.000000
  0.000000  0.454545  0.363636      2.000000
  0.090909  0.454545  0.363636      2.000000
  0.181818  0.454545  0.363636      2.000000
  0.272727  0.454545  0.363636      2.000000
  0.363636  0.454545  0.363636      2.000000
  0.454545  0.454545  0.363636      2.000000
 -0.454545  0.454545  0.363636      2.000000
 -0.363636  0.454545  0.363636      2.000000
 -0.272727  0.454545  0.363636      2.000000
 -0.181818  0.454545  0.363636      2.000000
 -0.090909  0.454545  0.363636      2.000000
  0.000000 -0.454545  0.363636      2.000000
  0.090909 -0.454545  0.363636      2.000000
  0.181818 -0.454545  0.363636      2.000000
  0.272727 -0.454545  0.363636      2.000000
  0.363636 -0.454545  0.363636      2.000000
  0.454545 -0.454545  0.363636      2.000000
 -0.454545 -0.454545  0.363636      2.000000
 -0.363636 -0.454545  0.363636      2.000000
 -0.272727 -0.454545  0.363636      2.000000
 -0.181818 -0.454545  0.363636      2.000000
 -0.090909 -0.454545  0.363636      2.000000
  0.000000 -0.363636  0.363636      2.000000
  0.090909 -0.363636  0.363636      2.000000
  0.181818 -0.363636  0.363636      2.000000
  0.272727 -0.363636  0.363636      2.000000
  0.363636 -0.363636  0.363636      2.000000
  0.454545 -0.363636  0.363636      2.000000
 -0.454545 -0.363636  0.363636      2.000000
 -0.363636 -0.363636  0.363636      2.000000
 -0.272727 -0.363636  0.363636      2.000000
 -0.181818 -0.363636  0.363636      2.000000
 -0.090909 -0.363636  0.363636      2.000000
  0.000000 -0.272727  0.363636      2.000000
  0.090909 -0.272727  0.363636      2.000000
  0.181818 -0.272727  0.363636      2.000000
  0.272727 -0.272727  0.363636      2.000000
  0.363636 -0.272727  0.363636      2.000000
  0.454545 -0.272727  0.363636      2.000000
 -0.454545 -0.272727  0.363636      2.000000
 -0.363636 -0.272727  0.363636      2.000000
 -0.272727 -0.272727  0.363636      2.000000
 -0.181818 -0.272727  0.363636      2.000000
 -0.090909 -0.272727  0.363636      2.000000
  0.000000 -0.181818  0.363636      2.000000
  0.090909 -0.181818  0.363636      2.000000
  0.181818 -0.181818  0.363636      2.000000
  0.272727 -0.181818  0.363636      2.000000
  0.363636 -0.181818  0.363636      2.000000
  0.454545 -0.181818  0.363636      2.000000
 -0.454545 -0.181818  0.363636      2.000000
 -0.363636 -0.181818  0.363636      2.000000
 -0.272727 -0.181818  0.363636      2.000000
 -0.181818 -0.181818  0.363636      2.000000
 -0.090909 -0.181818  0.363636      2.000000
  0.000000 -0.090909  0.363636      2.000000
  0.090909 -0.090909  0.363636      2.000000
  0.181818 -0.090909  0.363636      2.000000
  0.272727 -0.090909  0.363636      2.000000
  0.363636 -0.090909  0.363636      2.000000
  0.454545 -0.090909  0.363636      2.000000
 -0.454545 -0.090909  0.363636      2.000000
 -0.363636 -0.090909  0.363636      2.000000
 -0.272727 -0.090909  0.363636      2.000000
 -0.181818 -0.090909  0.363636      2.000000
 -0.090909 -0.090909  0.363636      2.000000
  0.000000  0.000000  0.454545      2.000000
  0.090909  0.000000  0.454545      2.000000
  0.181818  0.000000  0.454545      2.000000
  0.272727  0.000000  0.454545      2.000000
  0.363636  0.000000  0.454545      2.000000
  0.454545  0.000000  0.454545      2.000000
 -0.454545 -0.000000  0.454545      2.000000
 -0.363636  0.000000  0.454545      2.000000
 -0.272727 -0.000000  0.454545      2.000000
 -0.181818  0.000000  0.454545      2.000000
 -0.090909  0.000000  0.454545      2.000000
  0.000000  0.090909  0.454545      2.000000
  0.090909  0.090909  0.454545      2.000000
  0.181818  0.090909  0.454545      2.000000
  0.272727  0.090909  0.454545      2.000000
  0.363636  0.090909  0.454545      2.000000
  0.454545  0.090909  0.454545      2.000000
 -0.454545  0.090909  0.454545      2.000000
 -0.363636  0.090909  0.454545      2.000000
 -0.272727  0.090909  0.454545      2.000000
 -0.181818  0.090909  0.454545      2.000000
 -0.090909  0.090909  0.454545      2.000000
  0.000000  0.181818  0.454545      2.000000
  0.090909  0.181818  0.454545      2.000000
  0.181818  0.181818  0.454545      2.000000
  0.272727  0.181818  0.454545      2.000000
  0.363636  0.181818  0.454545      2.000000
  0.454545  0.181818  0.454545      2.000000
 -0.454545  0.181818  0.454545      2.000000
 -0.363636  0.181818  0.454545      2.000000
 -0.272727  0.181818  0.454545      2.000000
 -0.181818  0.181818  0.454545      2.000000
 -0.090909  0.181818  0.454545      2.000000
  0.000000  0.272727  0.454545      2.000000
  0.090909  0.272727  0.454545      2.000000
  0.181818  0.272727  0.454545      2.000000
  0.272727  0.272727  0.454545      2.000000
  0.363636  0.272727  0.454545      2.000000
  0.454545  0.272727  0.454545      2.000000
 -0.454545  0.272727  0.454545      2.000000
 -0.363636  0.272727  0.454545      2.000000
 -0.272727  0.272727  0.454545      2.000000
 -0.181818  0.272727  0.454545      2.000000
 -0.090909  0.272727  0.454545      2.000000
  0.000000  0.363636  0.454545      2.000000
  0.090909  0.363636  0.454545      2.000000
  0.181818  0.363636  0.454545      2.000000
  0.272727  0.363636  0.454545      2.000000
  0.363636  0.363636  0.454545      2.000000
  0.454545  0.363636  0.454545      2.000000
 -0.454545  0.363636  0.454545      2.000000
 -0.363636  0.363636  0.454545      2.000000
 -0.272727  0.363636  0.454545      2.000000
 -0.181818  0.363636  0.454545      2.000000
 -0.090909  0.363636  0.454545      2.000000
  0.000000  0.454545  0.454545      2.000000
  0.090909  0.454545  0.454545      2.000000
  0.181818  0.454545  0.454545      2.000000
  0.272727  0.454545  0.454545      2.000000
  0.363636  0.454545  0.454545      2.000000
  0.454545  0.454545  0.454545      2.000000
 -0.454545  0.454545  0.454545      2.000000
 -0.363636  0.454545  0.454545      2.000000
 -0.272727  0.454545  0.454545      2.000000
 -0.181818  0.454545  0.454545      2.000000
 -0.090909  0.454545  0.454545      2.000000
  0.000000 -0.454545  0.454545      2.000000
  0.090909 -0.454545  0.454545      2.000000
  0.181818 -0.454545  0.454545      2.000000
  0.272727 -0.454545  0.454545      2.000000
  0.363636 -0.454545  0.454545      2.000000
  0.454545 -0.454545  0.454545      2.000000
 -0.454545 -0.454545  0.454545      2.000000
 -0.363636 -0.454545  0.454545      2.000000
 -0.272727 -0.454545  0.454545      2.000000
 -0.181818 -0.454545  0.454545      2.000000
 -0.090909 -0.454545  0.454545      2.000000
  0.000000 -0.363636  0.454545      2.000000
  0.090909 -0.363636  0.454545      2.000000
  0.181818 -0.363636  0.454545      2.000000
  0.272727 -0.363636  0.454545      2.000000
  0.363636 -0.363636  0.454545      2.000000
  0.454545 -0.363636  0.454545      2.000000
 -0.454545 -0.363636  0.454545      2.000000
 -0.363636 -0.363636  0.454545      2.000000
 -0.272727 -0.363636  0.454545      2.000000
 -0.181818 -0.363636  0.454545      2.000000
 -0.090909 -0.363636  0.454545      2.000000
  0.000000 -0.272727  0.454545      2.000000
  0.090909 -0.272727  0.454545      2.000000
  0.181818 -0.272727  0.454545      2.000000
  0.272727 -0.272727  0.454545      2.000000
  0.363636 -0.272727  0.454545      2.000000
  0.454545 -0.272727  0.454545      2.000000
 -0.454545 -0.272727  0.454545      2.000000
 -0.363636 -0.272727  0.454545      2.000000
 -0.272727 -0.272727  0.454545      2.000000
 -0.181818 -0.272727  0.454545      2.000000
 -0.090909 -0.272727  0.454545      2.000000
  0.000000 -0.181818  0.454545      2.000000
  0.090909 -0.181818  0.454545      2.000000
  0.181818 -0.181818  0.454545      2.000000
  0.272727 -0.181818  0.454545      2.000000
  0.363636 -0.181818  0.454545      2.000000
  0.454545 -0.181818  0.454545      2.000000
 -0.454545 -0.181818  0.454545      2.000000
 -0.363636 -0.181818  0.454545      2.000000
 -0.272727 -0.181818  0.454545      2.000000
 -0.181818 -0.181818  0.454545      2.000000
 -0.090909 -0.181818  0.454545      2.000000
  0.000000 -0.090909  0.454545      2.000000
  0.090909 -0.090909  0.454545      2.000000
  0.181818 -0.090909  0.454545      2.000000
  0.272727 -0.090909  0.454545      2.000000
  0.363636 -0.090909  0.454545      2.000000
  0.454545 -0.090909  0.454545      2.000000
 -0.454545 -0.090909  0.454545      2.000000
 -0.363636 -0.090909  0.454545      2.000000
 -0.272727 -0.090909  0.454545      2.000000
 -0.181818 -0.090909  0.454545      2.000000
 -0.090909 -0.090909  0.454545      2.000000
 
 Following cartesian coordinates:
            Coordinates               Weight
  0.000000  0.000000  0.000000      1.000000
  0.023506 -0.013571 -0.009596      2.000000
  0.047012 -0.027143 -0.019193      2.000000
  0.070519 -0.040714 -0.028789      2.000000
  0.094025 -0.054285 -0.038385      2.000000
  0.117531 -0.067856 -0.047982      2.000000
  0.000000  0.027143  0.019193      2.000000
  0.023506  0.013571  0.009596      2.000000
  0.047012  0.000000  0.000000      2.000000
  0.070519 -0.013571 -0.009596      2.000000
  0.094025 -0.027143 -0.019193      2.000000
  0.117531 -0.040714 -0.028789      2.000000
 -0.117531  0.094999  0.067174      2.000000
 -0.094025  0.081428  0.057578      2.000000
 -0.070519  0.067856  0.047982      2.000000
 -0.047012  0.054285  0.038385      2.000000
 -0.023506  0.040714  0.028789      2.000000
  0.000000  0.054285  0.038385      2.000000
  0.023506  0.040714  0.028789      2.000000
  0.047012  0.027143  0.019193      2.000000
  0.070519  0.013571  0.009596      2.000000
  0.094025  0.000000  0.000000      2.000000
  0.117531 -0.013571 -0.009596      2.000000
 -0.117531  0.122142  0.086367      2.000000
 -0.094025  0.108570  0.076771      2.000000
 -0.070519  0.094999  0.067174      2.000000
 -0.047012  0.081428  0.057578      2.000000
 -0.023506  0.067856  0.047982      2.000000
  0.000000  0.081428  0.057578      2.000000
  0.023506  0.067856  0.047982      2.000000
  0.047012  0.054285  0.038385      2.000000
  0.070519  0.040714  0.028789      2.000000
  0.094025  0.027143  0.019193      2.000000
  0.117531  0.013571  0.009596      2.000000
 -0.117531  0.149284  0.105560      2.000000
 -0.094025  0.135713  0.095963      2.000000
 -0.070519  0.122142  0.086367      2.000000
 -0.047012  0.108570  0.076771      2.000000
 -0.023506  0.094999  0.067174      2.000000
  0.000000  0.108570  0.076771      2.000000
  0.023506  0.094999  0.067174      2.000000
  0.047012  0.081428  0.057578      2.000000
  0.070519  0.067856  0.047982      2.000000
  0.094025  0.054285  0.038385      2.000000
  0.117531  0.040714  0.028789      2.000000
 -0.117531  0.176427  0.124752      2.000000
 -0.094025  0.162855  0.115156      2.000000
 -0.070519  0.149284  0.105560      2.000000
 -0.047012  0.135713  0.095963      2.000000
 -0.023506  0.122142  0.086367      2.000000
  0.000000  0.135713  0.095963      2.000000
  0.023506  0.122142  0.086367      2.000000
  0.047012  0.108570  0.076771      2.000000
  0.070519  0.094999  0.067174      2.000000
  0.094025  0.081428  0.057578      2.000000
  0.117531  0.067856  0.047982      2.000000
 -0.117531  0.203569  0.143945      2.000000
 -0.094025  0.189998  0.134349      2.000000
 -0.070519  0.176427  0.124752      2.000000
 -0.047012  0.162855  0.115156      2.000000
 -0.023506  0.149284  0.105560      2.000000
  0.000000  0.000000  0.028789      2.000000
  0.023506 -0.013571  0.019193      2.000000
  0.047012 -0.027143  0.009596      2.000000
  0.070519 -0.040714  0.000000      2.000000
  0.094025 -0.054285 -0.009596      2.000000
  0.117531 -0.067856 -0.019193      2.000000
 -0.117531  0.067856  0.076771      2.000000
 -0.094025  0.054285  0.067174      2.000000
 -0.070519  0.040714  0.057578      2.000000
 -0.047012  0.027143  0.047982      2.000000
 -0.023506  0.013571  0.038385      2.000000
  0.000000  0.027143  0.047982      2.000000
  0.023506  0.013571  0.038385      2.000000
  0.047012  0.000000  0.028789      2.000000
  0.070519 -0.013571  0.019193      2.000000
  0.094025 -0.027143  0.009596      2.000000
  0.117531 -0.040714  0.000000      2.000000
 -0.117531  0.094999  0.095963      2.000000
 -0.094025  0.081428  0.086367      2.000000
 -0.070519  0.067856  0.076771      2.000000
 -0.047012  0.054285  0.067174      2.000000
 -0.023506  0.040714  0.057578      2.000000
  0.000000  0.054285  0.067174      2.000000
  0.023506  0.040714  0.057578      2.000000
  0.047012  0.027143  0.047982      2.000000
  0.070519  0.013571  0.038385      2.000000
  0.094025  0.000000  0.028789      2.000000
  0.117531 -0.013571  0.019193      2.000000
 -0.117531  0.122142  0.115156      2.000000
 -0.094025  0.108570  0.105560      2.000000
 -0.070519  0.094999  0.095963      2.000000
 -0.047012  0.081428  0.086367      2.000000
 -0.023506  0.067856  0.076771      2.000000
  0.000000  0.081428  0.086367      2.000000
  0.023506  0.067856  0.076771      2.000000
  0.047012  0.054285  0.067174      2.000000
  0.070519  0.040714  0.057578      2.000000
  0.094025  0.027143  0.047982      2.000000
  0.117531  0.013571  0.038385      2.000000
 -0.117531  0.149284  0.134349      2.000000
 -0.094025  0.135713  0.124752      2.000000
 -0.070519  0.122142  0.115156      2.000000
 -0.047012  0.108570  0.105560      2.000000
 -0.023506  0.094999  0.095963      2.000000
  0.000000  0.108570  0.105560      2.000000
  0.023506  0.094999  0.095963      2.000000
  0.047012  0.081428  0.086367      2.000000
  0.070519  0.067856  0.076771      2.000000
  0.094025  0.054285  0.067174      2.000000
  0.117531  0.040714  0.057578      2.000000
 -0.117531  0.176427  0.153541      2.000000
 -0.094025  0.162855  0.143945      2.000000
 -0.070519  0.149284  0.134349      2.000000
 -0.047012  0.135713  0.124752      2.000000
 -0.023506  0.122142  0.115156      2.000000
  0.000000  0.135713  0.124752      2.000000
  0.023506  0.122142  0.115156      2.000000
  0.047012  0.108570  0.105560      2.000000
  0.070519  0.094999  0.095963      2.000000
  0.094025  0.081428  0.086367      2.000000
  0.117531  0.067856  0.076771      2.000000
 -0.117531  0.203569  0.172734      2.000000
 -0.094025  0.189998  0.163138      2.000000
 -0.070519  0.176427  0.153541      2.000000
 -0.047012  0.162855  0.143945      2.000000
 -0.023506  0.149284  0.134349      2.000000
  0.000000 -0.135713 -0.067174      2.000000
  0.023506 -0.149284 -0.076771      2.000000
  0.047012 -0.162855 -0.086367      2.000000
  0.070519 -0.176427 -0.095963      2.000000
  0.094025 -0.189998 -0.105560      2.000000
  0.117531 -0.203569 -0.115156      2.000000
 -0.117531 -0.067856 -0.019193      2.000000
 -0.094025 -0.081428 -0.028789      2.000000
 -0.070519 -0.094999 -0.038385      2.000000
 -0.047012 -0.108570 -0.047982      2.000000
 -0.023506 -0.122142 -0.057578      2.000000
  0.000000 -0.108570 -0.047982      2.000000
  0.023506 -0.122142 -0.057578      2.000000
  0.047012 -0.135713 -0.067174      2.000000
  0.070519 -0.149284 -0.076771      2.000000
  0.094025 -0.162855 -0.086367      2.000000
  0.117531 -0.176427 -0.095963      2.000000
 -0.117531 -0.040714  0.000000      2.000000
 -0.094025 -0.054285 -0.009596      2.000000
 -0.070519 -0.067856 -0.019193      2.000000
 -0.047012 -0.081428 -0.028789      2.000000
 -0.023506 -0.094999 -0.038385      2.000000
  0.000000 -0.081428 -0.028789      2.000000
  0.023506 -0.094999 -0.038385      2.000000
  0.047012 -0.108570 -0.047982      2.000000
  0.070519 -0.122142 -0.057578      2.000000
  0.094025 -0.135713 -0.067174      2.000000
  0.117531 -0.149284 -0.076771      2.000000
 -0.117531 -0.013571  0.019193      2.000000
 -0.094025 -0.027143  0.009596      2.000000
 -0.070519 -0.040714  0.000000      2.000000
 -0.047012 -0.054285 -0.009596      2.000000
 -0.023506 -0.067856 -0.019193      2.000000
  0.000000 -0.054285 -0.009596      2.000000
  0.023506 -0.067856 -0.019193      2.000000
  0.047012 -0.081428 -0.028789      2.000000
  0.070519 -0.094999 -0.038385      2.000000
  0.094025 -0.108570 -0.047982      2.000000
  0.117531 -0.122142 -0.057578      2.000000
 -0.117531  0.013571  0.038385      2.000000
 -0.094025 -0.000000  0.028789      2.000000
 -0.070519 -0.013571  0.019193      2.000000
 -0.047012 -0.027143  0.009596      2.000000
 -0.023506 -0.040714  0.000000      2.000000
  0.000000 -0.027143  0.009596      2.000000
  0.023506 -0.040714  0.000000      2.000000
  0.047012 -0.054285 -0.009596      2.000000
  0.070519 -0.067856 -0.019193      2.000000
  0.094025 -0.081428 -0.028789      2.000000
  0.117531 -0.094999 -0.038385      2.000000
 -0.117531  0.040714  0.057578      2.000000
 -0.094025  0.027143  0.047982      2.000000
 -0.070519  0.013571  0.038385      2.000000
 -0.047012 -0.000000  0.028789      2.000000
 -0.023506 -0.013571  0.019193      2.000000
  0.000000  0.000000  0.057578      2.000000
  0.023506 -0.013571  0.047982      2.000000
  0.047012 -0.027143  0.038385      2.000000
  0.070519 -0.040714  0.028789      2.000000
  0.094025 -0.054285  0.019193      2.000000
  0.117531 -0.067856  0.009596      2.000000
 -0.117531  0.067856  0.105560      2.000000
 -0.094025  0.054285  0.095963      2.000000
 -0.070519  0.040714  0.086367      2.000000
 -0.047012  0.027143  0.076771      2.000000
 -0.023506  0.013571  0.067174      2.000000
  0.000000  0.027143  0.076771      2.000000
  0.023506  0.013571  0.067174      2.000000
  0.047012  0.000000  0.057578      2.000000
  0.070519 -0.013571  0.047982      2.000000
  0.094025 -0.027143  0.038385      2.000000
  0.117531 -0.040714  0.028789      2.000000
 -0.117531  0.094999  0.124752      2.000000
 -0.094025  0.081428  0.115156      2.000000
 -0.070519  0.067856  0.105560      2.000000
 -0.047012  0.054285  0.095963      2.000000
 -0.023506  0.040714  0.086367      2.000000
  0.000000  0.054285  0.095963      2.000000
  0.023506  0.040714  0.086367      2.000000
  0.047012  0.027143  0.076771      2.000000
  0.070519  0.013571  0.067174      2.000000
  0.094025  0.000000  0.057578      2.000000
  0.117531 -0.013571  0.047982      2.000000
 -0.117531  0.122142  0.143945      2.000000
 -0.094025  0.108570  0.134349      2.000000
 -0.070519  0.094999  0.124752      2.000000
 -0.047012  0.081428  0.115156      2.000000
 -0.023506  0.067856  0.105560      2.000000
  0.000000  0.081428  0.115156      2.000000
  0.023506  0.067856  0.105560      2.000000
  0.047012  0.054285  0.095963      2.000000
  0.070519  0.040714  0.086367      2.000000
  0.094025  0.027143  0.076771      2.000000
  0.117531  0.013571  0.067174      2.000000
 -0.117531  0.149284  0.163138      2.000000
 -0.094025  0.135713  0.153542      2.000000
 -0.070519  0.122142  0.143945      2.000000
 -0.047012  0.108570  0.134349      2.000000
 -0.023506  0.094999  0.124752      2.000000
  0.000000  0.108570  0.134349      2.000000
  0.023506  0.094999  0.124753      2.000000
  0.047012  0.081428  0.115156      2.000000
  0.070519  0.067856  0.105560      2.000000
  0.094025  0.054285  0.095963      2.000000
  0.117531  0.040714  0.086367      2.000000
 -0.117531  0.176427  0.182331      2.000000
 -0.094025  0.162855  0.172734      2.000000
 -0.070519  0.149284  0.163138      2.000000
 -0.047012  0.135713  0.153542      2.000000
 -0.023506  0.122142  0.143945      2.000000
  0.000000  0.135713  0.153542      2.000000
  0.023506  0.122142  0.143945      2.000000
  0.047012  0.108570  0.134349      2.000000
  0.070519  0.094999  0.124753      2.000000
  0.094025  0.081428  0.115156      2.000000
  0.117531  0.067856  0.105560      2.000000
 -0.117531  0.203569  0.201523      2.000000
 -0.094025  0.189998  0.191927      2.000000
 -0.070519  0.176427  0.182331      2.000000
 -0.047012  0.162855  0.172734      2.000000
 -0.023506  0.149284  0.163138      2.000000
  0.000000 -0.135713 -0.038385      2.000000
  0.023506 -0.149284 -0.047982      2.000000
  0.047012 -0.162855 -0.057578      2.000000
  0.070519 -0.176427 -0.067174      2.000000
  0.094025 -0.189998 -0.076771      2.000000
  0.117531 -0.203569 -0.086367      2.000000
 -0.117531 -0.067856  0.009596      2.000000
 -0.094025 -0.081428  0.000000      2.000000
 -0.070519 -0.094999 -0.009596      2.000000
 -0.047012 -0.108570 -0.019193      2.000000
 -0.023506 -0.122142 -0.028789      2.000000
  0.000000 -0.108570 -0.019193      2.000000
  0.023506 -0.122142 -0.028789      2.000000
  0.047012 -0.135713 -0.038385      2.000000
  0.070519 -0.149284 -0.047982      2.000000
  0.094025 -0.162855 -0.057578      2.000000
  0.117531 -0.176427 -0.067174      2.000000
 -0.117531 -0.040714  0.028789      2.000000
 -0.094025 -0.054285  0.019193      2.000000
 -0.070519 -0.067856  0.009596      2.000000
 -0.047012 -0.081428  0.000000      2.000000
 -0.023506 -0.094999 -0.009596      2.000000
  0.000000 -0.081428  0.000000      2.000000
  0.023506 -0.094999 -0.009596      2.000000
  0.047012 -0.108570 -0.019193      2.000000
  0.070519 -0.122142 -0.028789      2.000000
  0.094025 -0.135713 -0.038385      2.000000
  0.117531 -0.149284 -0.047982      2.000000
 -0.117531 -0.013571  0.047982      2.000000
 -0.094025 -0.027143  0.038385      2.000000
 -0.070519 -0.040714  0.028789      2.000000
 -0.047012 -0.054285  0.019193      2.000000
 -0.023506 -0.067856  0.009596      2.000000
  0.000000 -0.054285  0.019193      2.000000
  0.023506 -0.067856  0.009596      2.000000
  0.047012 -0.081428  0.000000      2.000000
  0.070519 -0.094999 -0.009596      2.000000
  0.094025 -0.108570 -0.019193      2.000000
  0.117531 -0.122142 -0.028789      2.000000
 -0.117531  0.013571  0.067174      2.000000
 -0.094025 -0.000000  0.057578      2.000000
 -0.070519 -0.013571  0.047982      2.000000
 -0.047012 -0.027143  0.038385      2.000000
 -0.023506 -0.040714  0.028789      2.000000
  0.000000 -0.027143  0.038385      2.000000
  0.023506 -0.040714  0.028789      2.000000
  0.047012 -0.054285  0.019193      2.000000
  0.070519 -0.067856  0.009596      2.000000
  0.094025 -0.081428  0.000000      2.000000
  0.117531 -0.094999 -0.009596      2.000000
 -0.117531  0.040714  0.086367      2.000000
 -0.094025  0.027143  0.076771      2.000000
 -0.070519  0.013571  0.067174      2.000000
 -0.047012 -0.000000  0.057578      2.000000
 -0.023506 -0.013571  0.047982      2.000000
  0.000000  0.000000  0.086367      2.000000
  0.023506 -0.013571  0.076771      2.000000
  0.047012 -0.027143  0.067174      2.000000
  0.070519 -0.040714  0.057578      2.000000
  0.094025 -0.054285  0.047982      2.000000
  0.117531 -0.067856  0.038385      2.000000
 -0.117531  0.067856  0.134349      2.000000
 -0.094025  0.054285  0.124753      2.000000
 -0.070519  0.040714  0.115156      2.000000
 -0.047012  0.027143  0.105560      2.000000
 -0.023506  0.013571  0.095963      2.000000
  0.000000  0.027143  0.105560      2.000000
  0.023506  0.013571  0.095964      2.000000
  0.047012  0.000000  0.086367      2.000000
  0.070519 -0.013571  0.076771      2.000000
  0.094025 -0.027143  0.067174      2.000000
  0.117531 -0.040714  0.057578      2.000000
 -0.117531  0.094999  0.153542      2.000000
 -0.094025  0.081428  0.143945      2.000000
 -0.070519  0.067856  0.134349      2.000000
 -0.047012  0.054285  0.124753      2.000000
 -0.023506  0.040714  0.115156      2.000000
  0.000000  0.054285  0.124753      2.000000
  0.023506  0.040714  0.115156      2.000000
  0.047012  0.027143  0.105560      2.000000
  0.070519  0.013571  0.095964      2.000000
  0.094025  0.000000  0.086367      2.000000
  0.117531 -0.013571  0.076771      2.000000
 -0.117531  0.122142  0.172734      2.000000
 -0.094025  0.108570  0.163138      2.000000
 -0.070519  0.094999  0.153542      2.000000
 -0.047012  0.081428  0.143945      2.000000
 -0.023506  0.067856  0.134349      2.000000
  0.000000  0.081428  0.143945      2.000000
  0.023506  0.067856  0.134349      2.000000
  0.047012  0.054285  0.124753      2.000000
  0.070519  0.040714  0.115156      2.000000
  0.094025  0.027143  0.105560      2.000000
  0.117531  0.013571  0.095964      2.000000
 -0.117531  0.149284  0.191927      2.000000
 -0.094025  0.135713  0.182331      2.000000
 -0.070519  0.122142  0.172734      2.000000
 -0.047012  0.108570  0.163138      2.000000
 -0.023506  0.094999  0.153542      2.000000
  0.000000  0.108570  0.163138      2.000000
  0.023506  0.094999  0.153542      2.000000
  0.047012  0.081428  0.143945      2.000000
  0.070519  0.067856  0.134349      2.000000
  0.094025  0.054285  0.124753      2.000000
  0.117531  0.040714  0.115156      2.000000
 -0.117531  0.176427  0.211120      2.000000
 -0.094025  0.162855  0.201523      2.000000
 -0.070519  0.149284  0.191927      2.000000
 -0.047012  0.135713  0.182331      2.000000
 -0.023506  0.122142  0.172734      2.000000
  0.000000  0.135713  0.182331      2.000000
  0.023506  0.122142  0.172734      2.000000
  0.047012  0.108570  0.163138      2.000000
  0.070519  0.094999  0.153542      2.000000
  0.094025  0.081428  0.143945      2.000000
  0.117531  0.067856  0.134349      2.000000
 -0.117531  0.203569  0.230312      2.000000
 -0.094025  0.189998  0.220716      2.000000
 -0.070519  0.176427  0.211120      2.000000
 -0.047012  0.162855  0.201523      2.000000
 -0.023506  0.149284  0.191927      2.000000
  0.000000 -0.135713 -0.009596      2.000000
  0.023506 -0.149284 -0.019193      2.000000
  0.047012 -0.162855 -0.028789      2.000000
  0.070519 -0.176427 -0.038385      2.000000
  0.094025 -0.189998 -0.047982      2.000000
  0.117531 -0.203569 -0.057578      2.000000
 -0.117531 -0.067856  0.038385      2.000000
 -0.094025 -0.081428  0.028789      2.000000
 -0.070519 -0.094999  0.019193      2.000000
 -0.047012 -0.108570  0.009596      2.000000
 -0.023506 -0.122142  0.000000      2.000000
  0.000000 -0.108570  0.009596      2.000000
  0.023506 -0.122142  0.000000      2.000000
  0.047012 -0.135713 -0.009596      2.000000
  0.070519 -0.149284 -0.019193      2.000000
  0.094025 -0.162855 -0.028789      2.000000
  0.117531 -0.176427 -0.038385      2.000000
 -0.117531 -0.040714  0.057578      2.000000
 -0.094025 -0.054285  0.047982      2.000000
 -0.070519 -0.067856  0.038385      2.000000
 -0.047012 -0.081428  0.028789      2.000000
 -0.023506 -0.094999  0.019193      2.000000
  0.000000 -0.081428  0.028789      2.000000
  0.023506 -0.094999  0.019193      2.000000
  0.047012 -0.108570  0.009596      2.000000
  0.070519 -0.122142  0.000000      2.000000
  0.094025 -0.135713 -0.009596      2.000000
  0.117531 -0.149284 -0.019193      2.000000
 -0.117531 -0.013571  0.076771      2.000000
 -0.094025 -0.027143  0.067174      2.000000
 -0.070519 -0.040714  0.057578      2.000000
 -0.047012 -0.054285  0.047982      2.000000
 -0.023506 -0.067856  0.038385      2.000000
  0.000000 -0.054285  0.047982      2.000000
  0.023506 -0.067856  0.038385      2.000000
  0.047012 -0.081428  0.028789      2.000000
  0.070519 -0.094999  0.019193      2.000000
  0.094025 -0.108570  0.009596      2.000000
  0.117531 -0.122142  0.000000      2.000000
 -0.117531  0.013571  0.095963      2.000000
 -0.094025 -0.000000  0.086367      2.000000
 -0.070519 -0.013571  0.076771      2.000000
 -0.047012 -0.027143  0.067174      2.000000
 -0.023506 -0.040714  0.057578      2.000000
  0.000000 -0.027143  0.067174      2.000000
  0.023506 -0.040714  0.057578      2.000000
  0.047012 -0.054285  0.047982      2.000000
  0.070519 -0.067856  0.038385      2.000000
  0.094025 -0.081428  0.028789      2.000000
  0.117531 -0.094999  0.019193      2.000000
 -0.117531  0.040714  0.115156      2.000000
 -0.094025  0.027143  0.105560      2.000000
 -0.070519  0.013571  0.095963      2.000000
 -0.047012 -0.000000  0.086367      2.000000
 -0.023506 -0.013571  0.076771      2.000000
  0.000000  0.000000  0.115156      2.000000
  0.023506 -0.013571  0.105560      2.000000
  0.047012 -0.027143  0.095964      2.000000
  0.070519 -0.040714  0.086367      2.000000
  0.094025 -0.054285  0.076771      2.000000
  0.117531 -0.067856  0.067175      2.000000
 -0.117531  0.067856  0.163138      2.000000
 -0.094025  0.054285  0.153542      2.000000
 -0.070519  0.040714  0.143945      2.000000
 -0.047012  0.027143  0.134349      2.000000
 -0.023506  0.013571  0.124753      2.000000
  0.000000  0.027143  0.134349      2.000000
  0.023506  0.013571  0.124753      2.000000
  0.047012  0.000000  0.115156      2.000000
  0.070519 -0.013571  0.105560      2.000000
  0.094025 -0.027143  0.095964      2.000000
  0.117531 -0.040714  0.086367      2.000000
 -0.117531  0.094999  0.182331      2.000000
 -0.094025  0.081428  0.172734      2.000000
 -0.070519  0.067856  0.163138      2.000000
 -0.047012  0.054285  0.153542      2.000000
 -0.023506  0.040714  0.143945      2.000000
  0.000000  0.054285  0.153542      2.000000
  0.023506  0.040714  0.143945      2.000000
  0.047012  0.027143  0.134349      2.000000
  0.070519  0.013571  0.124753      2.000000
  0.094025  0.000000  0.115156      2.000000
  0.117531 -0.013571  0.105560      2.000000
 -0.117531  0.122142  0.201523      2.000000
 -0.094025  0.108570  0.191927      2.000000
 -0.070519  0.094999  0.182331      2.000000
 -0.047012  0.081428  0.172734      2.000000
 -0.023506  0.067856  0.163138      2.000000
  0.000000  0.081428  0.172734      2.000000
  0.023506  0.067856  0.163138      2.000000
  0.047012  0.054285  0.153542      2.000000
  0.070519  0.040714  0.143945      2.000000
  0.094025  0.027143  0.134349      2.000000
  0.117531  0.013571  0.124753      2.000000
 -0.117531  0.149284  0.220716      2.000000
 -0.094025  0.135713  0.211120      2.000000
 -0.070519  0.122142  0.201523      2.000000
 -0.047012  0.108570  0.191927      2.000000
 -0.023506  0.094999  0.182331      2.000000
  0.000000  0.108570  0.191927      2.000000
  0.023506  0.094999  0.182331      2.000000
  0.047012  0.081428  0.172734      2.000000
  0.070519  0.067856  0.163138      2.000000
  0.094025  0.054285  0.153542      2.000000
  0.117531  0.040714  0.143945      2.000000
 -0.117531  0.176427  0.239909      2.000000
 -0.094025  0.162855  0.230312      2.000000
 -0.070519  0.149284  0.220716      2.000000
 -0.047012  0.135713  0.211120      2.000000
 -0.023506  0.122142  0.201523      2.000000
  0.000000  0.135713  0.211120      2.000000
  0.023506  0.122142  0.201523      2.000000
  0.047012  0.108570  0.191927      2.000000
  0.070519  0.094999  0.182331      2.000000
  0.094025  0.081428  0.172734      2.000000
  0.117531  0.067856  0.163138      2.000000
 -0.117531  0.203569  0.259101      2.000000
 -0.094025  0.189998  0.249505      2.000000
 -0.070519  0.176427  0.239909      2.000000
 -0.047012  0.162855  0.230312      2.000000
 -0.023506  0.149284  0.220716      2.000000
  0.000000 -0.135713  0.019193      2.000000
  0.023506 -0.149284  0.009596      2.000000
  0.047012 -0.162855  0.000000      2.000000
  0.070519 -0.176427 -0.009596      2.000000
  0.094025 -0.189998 -0.019193      2.000000
  0.117531 -0.203569 -0.028789      2.000000
 -0.117531 -0.067856  0.067174      2.000000
 -0.094025 -0.081428  0.057578      2.000000
 -0.070519 -0.094999  0.047982      2.000000
 -0.047012 -0.108570  0.038385      2.000000
 -0.023506 -0.122142  0.028789      2.000000
  0.000000 -0.108570  0.038385      2.000000
  0.023506 -0.122142  0.028789      2.000000
  0.047012 -0.135713  0.019193      2.000000
  0.070519 -0.149284  0.009596      2.000000
  0.094025 -0.162855  0.000000      2.000000
  0.117531 -0.176427 -0.009596      2.000000
 -0.117531 -0.040714  0.086367      2.000000
 -0.094025 -0.054285  0.076771      2.000000
 -0.070519 -0.067856  0.067174      2.000000
 -0.047012 -0.081428  0.057578      2.000000
 -0.023506 -0.094999  0.047982      2.000000
  0.000000 -0.081428  0.057578      2.000000
  0.023506 -0.094999  0.047982      2.000000
  0.047012 -0.108570  0.038385      2.000000
  0.070519 -0.122142  0.028789      2.000000
  0.094025 -0.135713  0.019193      2.000000
  0.117531 -0.149284  0.009596      2.000000
 -0.117531 -0.013571  0.105560      2.000000
 -0.094025 -0.027143  0.095964      2.000000
 -0.070519 -0.040714  0.086367      2.000000
 -0.047012 -0.054285  0.076771      2.000000
 -0.023506 -0.067856  0.067174      2.000000
  0.000000 -0.054285  0.076771      2.000000
  0.023506 -0.067856  0.067175      2.000000
  0.047012 -0.081428  0.057578      2.000000
  0.070519 -0.094999  0.047982      2.000000
  0.094025 -0.108570  0.038385      2.000000
  0.117531 -0.122142  0.028789      2.000000
 -0.117531  0.013571  0.124753      2.000000
 -0.094025 -0.000000  0.115156      2.000000
 -0.070519 -0.013571  0.105560      2.000000
 -0.047012 -0.027143  0.095964      2.000000
 -0.023506 -0.040714  0.086367      2.000000
  0.000000 -0.027143  0.095964      2.000000
  0.023506 -0.040714  0.086367      2.000000
  0.047012 -0.054285  0.076771      2.000000
  0.070519 -0.067856  0.067175      2.000000
  0.094025 -0.081428  0.057578      2.000000
  0.117531 -0.094999  0.047982      2.000000
 -0.117531  0.040714  0.143945      2.000000
 -0.094025  0.027143  0.134349      2.000000
 -0.070519  0.013571  0.124753      2.000000
 -0.047012 -0.000000  0.115156      2.000000
 -0.023506 -0.013571  0.105560      2.000000
  0.000000  0.000000  0.143945      2.000000
  0.023506 -0.013571  0.134349      2.000000
  0.047012 -0.027143  0.124753      2.000000
  0.070519 -0.040714  0.115156      2.000000
  0.094025 -0.054285  0.105560      2.000000
  0.117531 -0.067856  0.095964      2.000000
 -0.117531  0.067856  0.191927      2.000000
 -0.094025  0.054285  0.182331      2.000000
 -0.070519  0.040714  0.172734      2.000000
 -0.047012  0.027143  0.163138      2.000000
 -0.023506  0.013571  0.153542      2.000000
  0.000000  0.027143  0.163138      2.000000
  0.023506  0.013571  0.153542      2.000000
  0.047012  0.000000  0.143945      2.000000
  0.070519 -0.013571  0.134349      2.000000
  0.094025 -0.027143  0.124753      2.000000
  0.117531 -0.040714  0.115156      2.000000
 -0.117531  0.094999  0.211120      2.000000
 -0.094025  0.081428  0.201523      2.000000
 -0.070519  0.067856  0.191927      2.000000
 -0.047012  0.054285  0.182331      2.000000
 -0.023506  0.040714  0.172734      2.000000
  0.000000  0.054285  0.182331      2.000000
  0.023506  0.040714  0.172734      2.000000
  0.047012  0.027143  0.163138      2.000000
  0.070519  0.013571  0.153542      2.000000
  0.094025  0.000000  0.143945      2.000000
  0.117531 -0.013571  0.134349      2.000000
 -0.117531  0.122142  0.230312      2.000000
 -0.094025  0.108570  0.220716      2.000000
 -0.070519  0.094999  0.211120      2.000000
 -0.047012  0.081428  0.201523      2.000000
 -0.023506  0.067856  0.191927      2.000000
  0.000000  0.081428  0.201523      2.000000
  0.023506  0.067856  0.191927      2.000000
  0.047012  0.054285  0.182331      2.000000
  0.070519  0.040714  0.172734      2.000000
  0.094025  0.027143  0.163138      2.000000
  0.117531  0.013571  0.153542      2.000000
 -0.117531  0.149284  0.249505      2.000000
 -0.094025  0.135713  0.239909      2.000000
 -0.070519  0.122142  0.230312      2.000000
 -0.047012  0.108570  0.220716      2.000000
 -0.023506  0.094999  0.211120      2.000000
  0.000000  0.108570  0.220716      2.000000
  0.023506  0.094999  0.211120      2.000000
  0.047012  0.081428  0.201523      2.000000
  0.070519  0.067856  0.191927      2.000000
  0.094025  0.054285  0.182331      2.000000
  0.117531  0.040714  0.172734      2.000000
 -0.117531  0.176427  0.268698      2.000000
 -0.094025  0.162855  0.259101      2.000000
 -0.070519  0.149284  0.249505      2.000000
 -0.047012  0.135713  0.239909      2.000000
 -0.023506  0.122142  0.230312      2.000000
  0.000000  0.135713  0.239909      2.000000
  0.023506  0.122142  0.230312      2.000000
  0.047012  0.108570  0.220716      2.000000
  0.070519  0.094999  0.211120      2.000000
  0.094025  0.081428  0.201523      2.000000
  0.117531  0.067856  0.191927      2.000000
 -0.117531  0.203569  0.287890      2.000000
 -0.094025  0.189998  0.278294      2.000000
 -0.070519  0.176427  0.268698      2.000000
 -0.047012  0.162855  0.259101      2.000000
 -0.023506  0.149284  0.249505      2.000000
  0.000000 -0.135713  0.047982      2.000000
  0.023506 -0.149284  0.038386      2.000000
  0.047012 -0.162855  0.028789      2.000000
  0.070519 -0.176427  0.019193      2.000000
  0.094025 -0.189998  0.009596      2.000000
  0.117531 -0.203569  0.000000      2.000000
 -0.117531 -0.067856  0.095964      2.000000
 -0.094025 -0.081428  0.086367      2.000000
 -0.070519 -0.094999  0.076771      2.000000
 -0.047012 -0.108570  0.067175      2.000000
 -0.023506 -0.122142  0.057578      2.000000
  0.000000 -0.108570  0.067175      2.000000
  0.023506 -0.122142  0.057578      2.000000
  0.047012 -0.135713  0.047982      2.000000
  0.070519 -0.149284  0.038386      2.000000
  0.094025 -0.162855  0.028789      2.000000
  0.117531 -0.176427  0.019193      2.000000
 -0.117531 -0.040714  0.115156      2.000000
 -0.094025 -0.054285  0.105560      2.000000
 -0.070519 -0.067856  0.095964      2.000000
 -0.047012 -0.081428  0.086367      2.000000
 -0.023506 -0.094999  0.076771      2.000000
  0.000000 -0.081428  0.086367      2.000000
  0.023506 -0.094999  0.076771      2.000000
  0.047012 -0.108570  0.067175      2.000000
  0.070519 -0.122142  0.057578      2.000000
  0.094025 -0.135713  0.047982      2.000000
  0.117531 -0.149284  0.038386      2.000000
 -0.117531 -0.013571  0.134349      2.000000
 -0.094025 -0.027143  0.124753      2.000000
 -0.070519 -0.040714  0.115156      2.000000
 -0.047012 -0.054285  0.105560      2.000000
 -0.023506 -0.067856  0.095964      2.000000
  0.000000 -0.054285  0.105560      2.000000
  0.023506 -0.067856  0.095964      2.000000
  0.047012 -0.081428  0.086367      2.000000
  0.070519 -0.094999  0.076771      2.000000
  0.094025 -0.108570  0.067175      2.000000
  0.117531 -0.122142  0.057578      2.000000
 -0.117531  0.013571  0.153542      2.000000
 -0.094025 -0.000000  0.143945      2.000000
 -0.070519 -0.013571  0.134349      2.000000
 -0.047012 -0.027143  0.124753      2.000000
 -0.023506 -0.040714  0.115156      2.000000
  0.000000 -0.027143  0.124753      2.000000
  0.023506 -0.040714  0.115156      2.000000
  0.047012 -0.054285  0.105560      2.000000
  0.070519 -0.067856  0.095964      2.000000
  0.094025 -0.081428  0.086367      2.000000
  0.117531 -0.094999  0.076771      2.000000
 -0.117531  0.040714  0.172734      2.000000
 -0.094025  0.027143  0.163138      2.000000
 -0.070519  0.013571  0.153542      2.000000
 -0.047012 -0.000000  0.143945      2.000000
 -0.023506 -0.013571  0.134349      2.000000
 
 TETIRR: Found   3990 inequivalent tetrahedra from     7986
 
 Subroutine IBZKPT_HF returns following result:
 ==============================================
 
 Found   1331 k-points in 1st BZ
 the following   1331 k-points will be used (e.g. in the exchange kernel)
 Following reciprocal coordinates:   # in IRBZ
  0.000000  0.000000  0.000000    0.00075131   1 t-inv F
  0.090909  0.000000 -0.000000    0.00075131   2 t-inv F
  0.181818  0.000000 -0.000000    0.00075131   3 t-inv F
  0.272727  0.000000  0.000000    0.00075131   4 t-inv F
  0.363636  0.000000 -0.000000    0.00075131   5 t-inv F
  0.454545  0.000000  0.000000    0.00075131   6 t-inv F
  0.000000  0.090909 -0.000000    0.00075131   7 t-inv F
  0.090909  0.090909 -0.000000    0.00075131   8 t-inv F
  0.181818  0.090909 -0.000000    0.00075131   9 t-inv F
  0.272727  0.090909 -0.000000    0.00075131  10 t-inv F
  0.363636  0.090909 -0.000000    0.00075131  11 t-inv F
  0.454545  0.090909  0.000000    0.00075131  12 t-inv F
 -0.454545  0.090909  0.000000    0.00075131  13 t-inv F
 -0.363636  0.090909  0.000000    0.00075131  14 t-inv F
 -0.272727  0.090909  0.000000    0.00075131  15 t-inv F
 -0.181818  0.090909 -0.000000    0.00075131  16 t-inv F
 -0.090909  0.090909 -0.000000    0.00075131  17 t-inv F
  0.000000  0.181818 -0.000000    0.00075131  18 t-inv F
  0.090909  0.181818 -0.000000    0.00075131  19 t-inv F
  0.181818  0.181818 -0.000000    0.00075131  20 t-inv F
  0.272727  0.181818 -0.000000    0.00075131  21 t-inv F
  0.363636  0.181818 -0.000000    0.00075131  22 t-inv F
  0.454545  0.181818  0.000000    0.00075131  23 t-inv F
 -0.454545  0.181818 -0.000000    0.00075131  24 t-inv F
 -0.363636  0.181818 -0.000000    0.00075131  25 t-inv F
 -0.272727  0.181818 -0.000000    0.00075131  26 t-inv F
 -0.181818  0.181818 -0.000000    0.00075131  27 t-inv F
 -0.090909  0.181818  0.000000    0.00075131  28 t-inv F
  0.000000  0.272727 -0.000000    0.00075131  29 t-inv F
  0.090909  0.272727 -0.000000    0.00075131  30 t-inv F
  0.181818  0.272727 -0.000000    0.00075131  31 t-inv F
  0.272727  0.272727 -0.000000    0.00075131  32 t-inv F
  0.363636  0.272727 -0.000000    0.00075131  33 t-inv F
  0.454545  0.272727  0.000000    0.00075131  34 t-inv F
 -0.454545  0.272727 -0.000000    0.00075131  35 t-inv F
 -0.363636  0.272727 -0.000000    0.00075131  36 t-inv F
 -0.272727  0.272727 -0.000000    0.00075131  37 t-inv F
 -0.181818  0.272727 -0.000000    0.00075131  38 t-inv F
 -0.090909  0.272727 -0.000000    0.00075131  39 t-inv F
  0.000000  0.363636 -0.000000    0.00075131  40 t-inv F
  0.090909  0.363636 -0.000000    0.00075131  41 t-inv F
  0.181818  0.363636 -0.000000    0.00075131  42 t-inv F
  0.272727  0.363636 -0.000000    0.00075131  43 t-inv F
  0.363636  0.363636 -0.000000    0.00075131  44 t-inv F
  0.454545  0.363636  0.000000    0.00075131  45 t-inv F
 -0.454545  0.363636 -0.000000    0.00075131  46 t-inv F
 -0.363636  0.363636 -0.000000    0.00075131  47 t-inv F
 -0.272727  0.363636  0.000000    0.00075131  48 t-inv F
 -0.181818  0.363636  0.000000    0.00075131  49 t-inv F
 -0.090909  0.363636 -0.000000    0.00075131  50 t-inv F
  0.000000  0.454545 -0.000000    0.00075131  51 t-inv F
  0.090909  0.454545 -0.000000    0.00075131  52 t-inv F
  0.181818  0.454545 -0.000000    0.00075131  53 t-inv F
  0.272727  0.454545 -0.000000    0.00075131  54 t-inv F
  0.363636  0.454545 -0.000000    0.00075131  55 t-inv F
  0.454545  0.454545 -0.000000    0.00075131  56 t-inv F
 -0.454545  0.454545 -0.000000    0.00075131  57 t-inv F
 -0.363636  0.454545 -0.000000    0.00075131  58 t-inv F
 -0.272727  0.454545  0.000000    0.00075131  59 t-inv F
 -0.181818  0.454545 -0.000000    0.00075131  60 t-inv F
 -0.090909  0.454545 -0.000000    0.00075131  61 t-inv F
  0.000000  0.000000  0.090909    0.00075131  62 t-inv F
  0.090909  0.000000  0.090909    0.00075131  63 t-inv F
  0.181818  0.000000  0.090909    0.00075131  64 t-inv F
  0.272727  0.000000  0.090909    0.00075131  65 t-inv F
  0.363636  0.000000  0.090909    0.00075131  66 t-inv F
  0.454545  0.000000  0.090909    0.00075131  67 t-inv F
 -0.454545 -0.000000  0.090909    0.00075131  68 t-inv F
 -0.363636  0.000000  0.090909    0.00075131  69 t-inv F
 -0.272727 -0.000000  0.090909    0.00075131  70 t-inv F
 -0.181818  0.000000  0.090909    0.00075131  71 t-inv F
 -0.090909  0.000000  0.090909    0.00075131  72 t-inv F
  0.000000  0.090909  0.090909    0.00075131  73 t-inv F
  0.090909  0.090909  0.090909    0.00075131  74 t-inv F
  0.181818  0.090909  0.090909    0.00075131  75 t-inv F
  0.272727  0.090909  0.090909    0.00075131  76 t-inv F
  0.363636  0.090909  0.090909    0.00075131  77 t-inv F
  0.454545  0.090909  0.090909    0.00075131  78 t-inv F
 -0.454545  0.090909  0.090909    0.00075131  79 t-inv F
 -0.363636  0.090909  0.090909    0.00075131  80 t-inv F
 -0.272727  0.090909  0.090909    0.00075131  81 t-inv F
 -0.181818  0.090909  0.090909    0.00075131  82 t-inv F
 -0.090909  0.090909  0.090909    0.00075131  83 t-inv F
  0.000000  0.181818  0.090909    0.00075131  84 t-inv F
  0.090909  0.181818  0.090909    0.00075131  85 t-inv F
  0.181818  0.181818  0.090909    0.00075131  86 t-inv F
  0.272727  0.181818  0.090909    0.00075131  87 t-inv F
  0.363636  0.181818  0.090909    0.00075131  88 t-inv F
  0.454545  0.181818  0.090909    0.00075131  89 t-inv F
 -0.454545  0.181818  0.090909    0.00075131  90 t-inv F
 -0.363636  0.181818  0.090909    0.00075131  91 t-inv F
 -0.272727  0.181818  0.090909    0.00075131  92 t-inv F
 -0.181818  0.181818  0.090909    0.00075131  93 t-inv F
 -0.090909  0.181818  0.090909    0.00075131  94 t-inv F
  0.000000  0.272727  0.090909    0.00075131  95 t-inv F
  0.090909  0.272727  0.090909    0.00075131  96 t-inv F
  0.181818  0.272727  0.090909    0.00075131  97 t-inv F
  0.272727  0.272727  0.090909    0.00075131  98 t-inv F
  0.363636  0.272727  0.090909    0.00075131  99 t-inv F
  0.454545  0.272727  0.090909    0.00075131 100 t-inv F
 -0.454545  0.272727  0.090909    0.00075131 101 t-inv F
 -0.363636  0.272727  0.090909    0.00075131 102 t-inv F
 -0.272727  0.272727  0.090909    0.00075131 103 t-inv F
 -0.181818  0.272727  0.090909    0.00075131 104 t-inv F
 -0.090909  0.272727  0.090909    0.00075131 105 t-inv F
  0.000000  0.363636  0.090909    0.00075131 106 t-inv F
  0.090909  0.363636  0.090909    0.00075131 107 t-inv F
  0.181818  0.363636  0.090909    0.00075131 108 t-inv F
  0.272727  0.363636  0.090909    0.00075131 109 t-inv F
  0.363636  0.363636  0.090909    0.00075131 110 t-inv F
  0.454545  0.363636  0.090909    0.00075131 111 t-inv F
 -0.454545  0.363636  0.090909    0.00075131 112 t-inv F
 -0.363636  0.363636  0.090909    0.00075131 113 t-inv F
 -0.272727  0.363636  0.090909    0.00075131 114 t-inv F
 -0.181818  0.363636  0.090909    0.00075131 115 t-inv F
 -0.090909  0.363636  0.090909    0.00075131 116 t-inv F
  0.000000  0.454545  0.090909    0.00075131 117 t-inv F
  0.090909  0.454545  0.090909    0.00075131 118 t-inv F
  0.181818  0.454545  0.090909    0.00075131 119 t-inv F
  0.272727  0.454545  0.090909    0.00075131 120 t-inv F
  0.363636  0.454545  0.090909    0.00075131 121 t-inv F
  0.454545  0.454545  0.090909    0.00075131 122 t-inv F
 -0.454545  0.454545  0.090909    0.00075131 123 t-inv F
 -0.363636  0.454545  0.090909    0.00075131 124 t-inv F
 -0.272727  0.454545  0.090909    0.00075131 125 t-inv F
 -0.181818  0.454545  0.090909    0.00075131 126 t-inv F
 -0.090909  0.454545  0.090909    0.00075131 127 t-inv F
  0.000000 -0.454545  0.090909    0.00075131 128 t-inv F
  0.090909 -0.454545  0.090909    0.00075131 129 t-inv F
  0.181818 -0.454545  0.090909    0.00075131 130 t-inv F
  0.272727 -0.454545  0.090909    0.00075131 131 t-inv F
  0.363636 -0.454545  0.090909    0.00075131 132 t-inv F
  0.454545 -0.454545  0.090909    0.00075131 133 t-inv F
 -0.454545 -0.454545  0.090909    0.00075131 134 t-inv F
 -0.363636 -0.454545  0.090909    0.00075131 135 t-inv F
 -0.272727 -0.454545  0.090909    0.00075131 136 t-inv F
 -0.181818 -0.454545  0.090909    0.00075131 137 t-inv F
 -0.090909 -0.454545  0.090909    0.00075131 138 t-inv F
  0.000000 -0.363636  0.090909    0.00075131 139 t-inv F
  0.090909 -0.363636  0.090909    0.00075131 140 t-inv F
  0.181818 -0.363636  0.090909    0.00075131 141 t-inv F
  0.272727 -0.363636  0.090909    0.00075131 142 t-inv F
  0.363636 -0.363636  0.090909    0.00075131 143 t-inv F
  0.454545 -0.363636  0.090909    0.00075131 144 t-inv F
 -0.454545 -0.363636  0.090909    0.00075131 145 t-inv F
 -0.363636 -0.363636  0.090909    0.00075131 146 t-inv F
 -0.272727 -0.363636  0.090909    0.00075131 147 t-inv F
 -0.181818 -0.363636  0.090909    0.00075131 148 t-inv F
 -0.090909 -0.363636  0.090909    0.00075131 149 t-inv F
  0.000000 -0.272727  0.090909    0.00075131 150 t-inv F
  0.090909 -0.272727  0.090909    0.00075131 151 t-inv F
  0.181818 -0.272727  0.090909    0.00075131 152 t-inv F
  0.272727 -0.272727  0.090909    0.00075131 153 t-inv F
  0.363636 -0.272727  0.090909    0.00075131 154 t-inv F
  0.454545 -0.272727  0.090909    0.00075131 155 t-inv F
 -0.454545 -0.272727  0.090909    0.00075131 156 t-inv F
 -0.363636 -0.272727  0.090909    0.00075131 157 t-inv F
 -0.272727 -0.272727  0.090909    0.00075131 158 t-inv F
 -0.181818 -0.272727  0.090909    0.00075131 159 t-inv F
 -0.090909 -0.272727  0.090909    0.00075131 160 t-inv F
  0.000000 -0.181818  0.090909    0.00075131 161 t-inv F
  0.090909 -0.181818  0.090909    0.00075131 162 t-inv F
  0.181818 -0.181818  0.090909    0.00075131 163 t-inv F
  0.272727 -0.181818  0.090909    0.00075131 164 t-inv F
  0.363636 -0.181818  0.090909    0.00075131 165 t-inv F
  0.454545 -0.181818  0.090909    0.00075131 166 t-inv F
 -0.454545 -0.181818  0.090909    0.00075131 167 t-inv F
[...]
     12       0.4238      0.00000
     13      -1.2593      0.00000
     14       0.6342      0.00000
     15       0.1609      0.00000
     16      -1.2053      0.00000

 k-point 657 :       0.0909   -0.0909    0.4545
  band No.  band energies     occupation 
      1       0.7996      0.00000
      2      -3.2253      0.00000
      3       1.2794      0.00000
      4       1.3070      0.00000
      5       1.3445      0.00000
      6       1.2337      0.00000
      7       1.1475      0.00000
      8      -1.3423      0.00000
      9      -1.4930      0.00000
     10      -0.9960      0.00000
     11      -2.4326      0.00000
     12       0.8994      0.00000
     13      -0.0985      0.00000
     14      -0.1962      0.00000
     15      -1.0108      0.00000
     16      -0.6610      0.00000

 k-point 658 :       0.1818   -0.0909    0.4545
  band No.  band energies     occupation 
      1       0.5300      0.00000
      2      -2.5738      0.00000
      3       1.0329      0.00000
      4       1.2904      0.00000
      5       0.8892      0.00000
      6      -1.2077      0.00000
      7       1.2846      0.00000
      8       1.0995      0.00000
      9      -1.7015      0.00000
     10      -0.9679      0.00000
     11      -2.1283      0.00000
     12       1.3614      0.00000
     13      -0.3835      0.00000
     14      -0.0848      0.00000
     15      -0.0146      0.00000
     16      -0.4732      0.00000

 k-point 659 :       0.2727   -0.0909    0.4545
  band No.  band energies     occupation 
      1       0.2594      0.00000
      2      -0.9742      0.00000
      3       0.1105      0.00000
      4       0.8806      0.00000
      5      -0.3456      0.00000
      6       0.0655      0.00000
      7       1.4379      0.00000
      8      -0.0507      0.00000
      9      -0.3831      0.00000
     10      -1.3415      0.00000
     11      -1.5753      0.00000
     12       0.4954      0.00000
     13      -0.0416      0.00000
     14       0.8742      0.00000
     15      -0.2217      0.00000
     16       1.3211      0.00000

 k-point 660 :       0.3636   -0.0909    0.4545
  band No.  band energies     occupation 
      1      -0.0412      0.00000
      2       0.1367      0.00000
      3       1.0487      0.00000
      4      -1.0896      0.00000
      5      -0.9560      0.00000
      6       0.9562      0.00000
      7       1.2024      0.00000
      8      -1.0063      0.00000
      9      -0.4769      0.00000
     10      -0.9575      0.00000
     11      -0.0025      0.00000
     12       1.4459      0.00000
     13      -0.3538      0.00000
     14       0.2651      0.00000
     15      -0.2527      0.00000
     16       0.9201      0.00000

 k-point 661 :       0.4545   -0.0909    0.4545
  band No.  band energies     occupation 
      1      -0.3622      0.00000
      2       0.6635      0.00000
      3       0.0896      0.00000
      4      -0.4595      0.00000
      5       0.2997      0.00000
      6      -0.1423      0.00000
      7      -1.2206      0.00000
      8      -0.3055      0.00000
      9       1.8993      0.00000
     10      -0.3282      0.00000
     11       0.1530      0.00000
     12      -0.4427      0.00000
     13       2.4169      0.00000
     14      -2.1173      0.00000
     15      -1.4339      0.00000
     16       1.2135      0.00000

 k-point 662 :      -0.4545   -0.0909    0.4545
  band No.  band energies     occupation 
      1       1.6969      0.00000
      2      -1.7777      0.00000
      3      -1.0044      0.00000
      4       1.0823      0.00000
      5       1.3967      0.00000
      6      -1.2898      0.00000
      7      -0.3885      0.00000
      8       0.1268      0.00000
      9       0.1318      0.00000
     10       0.2644      0.00000
     11      -0.1057      0.00000
     12      -0.4718      0.00000
     13       0.0887      0.00000
     14       1.0863      0.00000
     15       1.4775      0.00000
     16      -1.5017      0.00000

 k-point 663 :      -0.3636   -0.0909    0.4545
  band No.  band energies     occupation 
      1       1.9802      0.00000
      2      -3.2185      0.00000
      3       0.1823      0.00000
      4       1.1143      0.00000
      5       1.3686      0.00000
      6      -0.9510      0.00000
      7       0.5075      0.00000
      8      -1.3034      0.00000
      9       1.2996      0.00000
     10      -0.9374      0.00000
     11      -1.8724      0.00000
     12       2.0789      0.00000
     13      -1.2453      0.00000
     14       0.7141      0.00000
     15      -0.7873      0.00000
     16       2.7994      0.00000

 k-point 664 :      -0.2727   -0.0909    0.4545
  band No.  band energies     occupation 
      1       1.9269      0.00000
      2      -4.1382      0.00000
      3       1.1609      0.00000
      4       1.1214      0.00000
      5       1.3824      0.00000
      6       1.3029      0.00000
      7       1.1596      0.00000
      8      -2.9783      0.00000
      9       0.0820      0.00000
     10      -1.1670      0.00000
     11       0.1205      0.00000
     12      -0.1877      0.00000
     13      -0.9608      0.00000
     14      -4.2366      0.00000
     15       0.0155      0.00000
     16       1.2858      0.00000

 k-point 665 :      -0.1818   -0.0909    0.4545
  band No.  band energies     occupation 
      1       1.7057      0.00000
      2      -4.0528      0.00000
      3       1.2801      0.00000
      4       1.0823      0.00000
      5       1.3210      0.00000
      6       1.3497      0.00000
      7       1.3344      0.00000
      8      -1.3385      0.00000
      9      -0.8682      0.00000
     10      -2.2130      0.00000
     11       0.4106      0.00000
     12      -1.4944      0.00000
     13      -1.3679      0.00000
     14      -1.2025      0.00000
     15      -0.0494      0.00000
     16      -0.7052      0.00000

 k-point 666 :      -0.0909   -0.0909    0.4545
  band No.  band energies     occupation 
      1       1.3994      0.00000
      2      -3.7099      0.00000
      3       1.2464      0.00000
      4       0.9901      0.00000
      5       1.2988      0.00000
      6       1.3012      0.00000
      7       1.6447      0.00000
      8      -0.7687      0.00000
      9      -0.2204      0.00000
     10      -3.2616      0.00000
     11      -3.5673      0.00000
     12      -0.6054      0.00000
     13       1.4222      0.00000
     14      -0.3429      0.00000
     15       0.7187      0.00000
     16      -2.0176      0.00000


------------------------ aborting loop because EDIFF is reached ----------------------------------------


 FEWALD executed in parallel
    FORLOC:  cpu time    0.0000: real time    0.0005
    FORNL :  cpu time    4.9472: real time    4.9506
    STRESS:  cpu time   14.8117: real time   14.8207
    FORCOR:  cpu time    0.0230: real time    0.0229
    OFIELD:  cpu time    0.0000: real time    0.0001
 FEWALD executed in parallel
    FORLOC:  cpu time    0.0010: real time    0.0006
    FORNL :  cpu time    4.9472: real time    4.9508
    STRESS:  cpu time   14.8217: real time   14.8316
    FORCOR:  cpu time    0.0230: real time    0.0229
    OFIELD:  cpu time    0.0000: real time    0.0001
 FEWALD executed in parallel
    FORLOC:  cpu time    0.0000: real time    0.0006
    FORNL :  cpu time    4.9472: real time    4.9500
    STRESS:  cpu time   14.8087: real time   14.8185
    FORCOR:  cpu time    0.0230: real time    0.0229
    OFIELD:  cpu time    0.0000: real time    0.0001
 FEWALD executed in parallel
    FORLOC:  cpu time    0.0010: real time    0.0006
    FORNL :  cpu time    4.9472: real time    4.9499
    STRESS:  cpu time   14.8047: real time   14.8155
    FORCOR:  cpu time    0.0230: real time    0.0230
    OFIELD:  cpu time    0.0000: real time    0.0001

 INTERNAL STRAIN TENSOR  FOR ION    1  DIRECTION 3   (eV/Angst):
 -----------------------------------------------------------------------------
    -4.67326  0.73339  0.82827
     0.25126 -3.92115  0.15389
     0.82620  0.93208 10.62976


 POSITION                   FORCE-CONSTANT FOR ION    1 DIRECTION 3 (eV/Angst/Angst)
 -----------------------------------------------------------------------------------
      1.93451      1.11265      3.15460         0.029070     -0.150912    -13.504959
      3.86668      0.00379      2.37149        -0.029070      0.150912     13.504959
 -----------------------------------------------------------------------------------
    total drift:                                0.000000      0.000000      0.000000


 BORN EFFECTIVE CHARGE FOR ION    1 DIRECTION 3 :  -0.000   0.000  -0.016
                   rigid augmentation           :  -0.000  -0.000   0.229
                   ionic contribution           :  -0.000  -0.000   4.000
                   Berry contribution           :  -0.000   0.000  -4.245


--------------------------------------------------------------------------------------------------------


  LATTYP: Found a face centered cubic cell.
 ALAT       =     5.4694110002
  
  Lattice vectors:
  
 A1 = (   1.9337280000,   3.3493170000,   0.0000000000)
 A2 = (   0.0000000000,   2.2328760000,  -3.1577660000)
 A3 = (  -1.9337290000,   3.3493170000,   0.0000000000)


Analysis of symmetry for initial positions (statically):
=====================================================================
 Subroutine PRICEL returns:
 Original cell was already a primitive cell.
 

 Routine SETGRP: Setting up the symmetry group for a 
 face centered cubic supercell.


 Subroutine GETGRP returns: Found  2 space group operations
 (whereof  1 operations were pure point group operations)
 out of a pool of 48 trial point group operations.


The static configuration has the point symmetry C_1 .
 The point group associated with its full space group is S_2 .


Analysis of symmetry for dynamics (positions and initial velocities):
=====================================================================
 Subroutine PRICEL returns:
 Original cell was already a primitive cell.
 

 Routine SETGRP: Setting up the symmetry group for a 
 face centered cubic supercell.


 Subroutine GETGRP returns: Found  2 space group operations
 (whereof  1 operations were pure point group operations)
 out of a pool of 48 trial point group operations.


The dynamic configuration has the point symmetry C_1 .
 The point group associated with its full space group is S_2 .


Analysis of structural, dynamic, and magnetic symmetry:
=====================================================================
 Subroutine PRICEL returns:
 Original cell was already a primitive cell.
 

 Routine SETGRP: Setting up the symmetry group for a 
 face centered cubic supercell.


 Subroutine GETGRP returns: Found  2 space group operations
 (whereof  1 operations were pure point group operations)
 out of a pool of 48 trial point group operations.


The magnetic configuration has the point symmetry C_1 .
 The point group associated with its full space group is S_2 .


 Subroutine INISYM returns: Found  2 space group operations
 (whereof  1 operations are pure point group operations),
 and found     1 'primitive' translations



--------------------------------------------------------------------------------------------------------




 MACROSCOPIC STATIC DIELECTRIC TENSOR (including local field effects in DFT)
 ------------------------------------------------------
          13.165096     0.008501     0.005973
           0.008501    13.254773    -0.029796
           0.005973    -0.029795    13.288839
 ------------------------------------------------------


 PIEZOELECTRIC TENSOR  for field in x, y, z        (e  Angst)
          XX          YY          ZZ          XY          YZ          ZX
  --------------------------------------------------------------------------------
  x     0.00040    -0.00017    -0.00026    -0.00035     0.00010     0.00107
  y     0.00032    -0.00112     0.00118     0.00039     0.00163    -0.00021
  z    -0.00054    -0.00273     0.00271    -0.00021    -0.00059     0.00052

 PIEZOELECTRIC TENSOR  for field in x, y, z        (C/m^2)
          XX          YY          ZZ          XY          YZ          ZX
  --------------------------------------------------------------------------------
  x     0.00000     0.00000     0.00000     0.00000     0.00000     0.00000
  y     0.00000     0.00000     0.00000     0.00000     0.00000     0.00000
  z     0.00000     0.00000     0.00000     0.00000     0.00000     0.00000
 
 BORN EFFECTIVE CHARGES (in e, cummulative output)
 -------------------------------------------------
 ion    1
    1    -0.01510    -0.00012    -0.00008
    2    -0.00001    -0.01520     0.00026
    3     0.00000     0.00026    -0.01630
 ion    2
    1    -0.01522    -0.00020    -0.00015
    2    -0.00003    -0.01575     0.00028
    3    -0.00000     0.00015    -0.01516

 INTERNAL STRAIN TENSOR FOR ION    1 for displacements in x,y,z  (eV/Angst):
          X           Y           Z          XY          YZ          ZX
  --------------------------------------------------------------------------------
  x     0.26206     0.17477     0.52675    -6.74394     0.37136    -5.43988
  y    -6.55829     8.53379     0.73266    -0.74378    -4.02573     0.63924
  z    -4.67326    -3.92115    10.62976     0.25126     0.93208     0.82827

 INTERNAL STRAIN TENSOR FOR ION    2 for displacements in x,y,z  (eV/Angst):
          X           Y           Z          XY          YZ          ZX
  --------------------------------------------------------------------------------
  x    -0.26206    -0.17477    -0.52675     6.74394    -0.37136     5.43988
  y     6.55829    -8.53379    -0.73266     0.74378     4.02573    -0.63924
  z     4.67326     3.92115   -10.62976    -0.25126    -0.93208    -0.82827


--------------------------------------------------------------------------------------------------------


 
 SECOND DERIVATIVES (NOT SYMMETRIZED)
 ------------------------------------
               1X          1Y          1Z          2X          2Y          2Z 
  1X   -14.083859    0.041388    0.029062   14.083859   -0.041388   -0.029062
  1Y     0.041424  -13.670472   -0.150860   -0.041424   13.670472    0.150860
  1Z     0.029070   -0.150912  -13.504959   -0.029070    0.150912   13.504959
  2X    14.083859   -0.041388   -0.029062  -14.083859    0.041388    0.029062
  2Y    -0.041424   13.670472    0.150860    0.041424  -13.670472   -0.150860
  2Z    -0.029070    0.150912   13.504959    0.029070   -0.150912  -13.504959
 
 
 Eigenvectors and eigenvalues of the dynamical matrix
 ----------------------------------------------------
 
 
   1 f  =   15.660581 THz    98.398335 2PiTHz  522.380752 cm-1    64.766982 meV
             X         Y         Z           dx          dy          dz
      1.934509  1.112654  3.154596    -0.699062    0.089393    0.057633  
      3.866676  0.003788  2.371495     0.699062   -0.089393   -0.057633  
 
   2 f  =   15.470830 THz    97.206093 2PiTHz  516.051330 cm-1    63.982233 meV
             X         Y         Z           dx          dy          dz
      1.934509  1.112654  3.154596     0.106279    0.602176    0.355090  
      3.866676  0.003788  2.371495    -0.106279   -0.602176   -0.355090  
 
   3 f  =   15.280360 THz    96.009331 2PiTHz  509.697916 cm-1    63.194510 meV
             X         Y         Z           dx          dy          dz
      1.934509  1.112654  3.154596    -0.004190    0.359712   -0.608761  
      3.866676  0.003788  2.371495     0.004190   -0.359712    0.608761  
 
   4 f  =    0.000000 THz     0.000001 2PiTHz    0.000006 cm-1     0.000001 meV
             X         Y         Z           dx          dy          dz
      1.934509  1.112654  3.154596     0.174540    0.586479   -0.354370  
      3.866676  0.003788  2.371495     0.174540    0.586479   -0.354370  
 
   5 f  =    0.000000 THz     0.000001 2PiTHz    0.000003 cm-1     0.000000 meV
             X         Y         Z           dx          dy          dz
      1.934509  1.112654  3.154596     0.677902   -0.094464    0.177555  
      3.866676  0.003788  2.371495     0.677902   -0.094464    0.177555  
 
   6 f/i=    0.000000 THz     0.000001 2PiTHz    0.000004 cm-1     0.000000 meV
             X         Y         Z           dx          dy          dz
      1.934509  1.112654  3.154596     0.099924   -0.383561   -0.585573  
      3.866676  0.003788  2.371495     0.099924   -0.383561   -0.585573  
 


--------------------------------------------------------------------------------------------------------




 MACROSCOPIC STATIC DIELECTRIC TENSOR IONIC CONTRIBUTION
 ------------------------------------------------------
           0.000000     0.000000    -0.000000
           0.000000     0.000000     0.000000
          -0.000000     0.000000     0.000000
 ------------------------------------------------------


 ELASTIC MODULI IONIC CONTR (kBar)
 Direction    XX          YY          ZZ          XY          YZ          ZX
 --------------------------------------------------------------------------------
 XX        -184.7919    106.6480    155.1674     -6.1527    -62.8496     26.4865
 YY         106.6480   -255.5359    105.5060     24.8131    109.6164     -3.1609
 ZZ         155.1674    105.5060   -329.6452      3.9131    -22.1899    -18.3063
 XY          -6.1527     24.8131      3.9131   -128.3354     -2.5372   -101.2445
 YZ         -62.8496    109.6164    -22.1899     -2.5372    -49.5650     10.5090
 ZX          26.4865     -3.1609    -18.3063   -101.2445     10.5090    -85.3182
 --------------------------------------------------------------------------------


 PIEZOELECTRIC TENSOR IONIC CONTR  for field in x, y, z        (C/m^2)
          XX          YY          ZZ          XY          YZ          ZX
  --------------------------------------------------------------------------------
  x    -0.00001     0.00001     0.00001    -0.00001    -0.00000    -0.00001
  y    -0.00005     0.00007     0.00000    -0.00001    -0.00003     0.00000
  z     0.00007     0.00008    -0.00017    -0.00001    -0.00002    -0.00001


--------------------------------------------------------------------------------------------------------


     LOOP+:  cpu time 2737.9238: real time 2741.9556
    4ORBIT:  cpu time    0.0000: real time    0.0000
 


 total charge     
 
# of ion     s       p       d       tot
----------------------------------------
  1        0.751   0.928   0.000   1.679
  2        0.751   0.928   0.000   1.679
------------------------------------------------
tot        1.502   1.855   0.000   3.357
 


 magnetization (x)
 
# of ion     s       p       d       tot
----------------------------------------
  1       -0.000  -0.000   0.000  -0.000
  2       -0.000  -0.000   0.000  -0.000
------------------------------------------------
tot       -0.000  -0.000   0.000  -0.000
 
 BZINTS: Fermi energy:  5.685439;  8.000000 electrons
         Band energy:   4.899054;  BLOECHL correction:  0.000000

 total amount of memory used by VASP on root node    65479. kBytes
========================================================================

   base      :      30000. kBytes
   nonlr-proj:        896. kBytes
   fftplans  :        702. kBytes
   grid      :       3862. kBytes
   one-center:         12. kBytes
   wavefun   :      30007. kBytes
 
  
  
 General timing and accounting informations for this job:
 ========================================================
  
                  Total CPU time used (sec):     2747.863
                            User time (sec):     2745.810
                          System time (sec):        2.054
                         Elapsed time (sec):     2752.390
  
                   Maximum memory used (kb):      275096.
                   Average memory used (kb):           0.
  
                          Minor page faults:       255177
                          Major page faults:            0
                 Voluntary context switches:        25077
