<?xml version="1.0" encoding="ISO-8859-1"?>
<modeling>
 <generator>
  <i name="program" type="string">vasp </i>
  <i name="version" type="string">5.3.5  </i>
  <i name="subversion" type="string">31Mar14 (build Oct 24 2014 12:38:34) complex                          parallel </i>
  <i name="platform" type="string">LinuxIFC </i>
  <i name="date" type="string">2016 10 20 </i>
  <i name="time" type="string">19:08:46 </i>
 </generator>
 <incar>
  <i type="int" name="ISTART">     1</i>
  <i type="string" name="PREC">accurate</i>
  <i type="string" name="ALGO"> Normal</i>
  <i type="int" name="ISPIN">     2</i>
  <i type="int" name="ICHARG">     0</i>
  <i type="int" name="NELM">   100</i>
  <i type="int" name="IBRION">    -1</i>
  <i name="EDIFF">      0.00025000</i>
  <i type="int" name="NSW">     0</i>
  <i type="int" name="ISIF">     3</i>
  <i name="ENCUT">    520.00000000</i>
  <v name="MAGMOM">      0.00000000      0.00000000      0.00000000      0.00000000      0.00000000</v>
  <i type="string" name="LREAL"> Auto</i>
  <i type="int" name="ISMEAR">    -5</i>
  <i name="SIGMA">      0.05000000</i>
  <i type="logical" name="LWAVE"> T  </i>
  <i type="logical" name="LCHARG"> T  </i>
  <i type="logical" name="LVHAR"> T  </i>
  <i type="logical" name="LORBIT"> F  </i>
  <i type="logical" name="LAECHG"> T  </i>
  <i type="int" name="NELM">   100</i>
 </incar>
 <kpoints>
  <generation param="Gamma">
   <v type="int" name="divisions">       8        8        8 </v>
   <v name="usershift">      0.00000000       0.00000000       0.00000000 </v>
   <v name="genvec1">      0.12500000       0.00000000       0.00000000 </v>
   <v name="genvec2">      0.00000000       0.12500000       0.00000000 </v>
   <v name="genvec3">      0.00000000       0.00000000       0.12500000 </v>
   <v name="shift">      0.00000000       0.00000000       0.00000000 </v>
  </generation>
  <varray name="kpointlist" >
   <v>       0.00000000       0.00000000       0.00000000 </v>
   <v>       0.12500000       0.00000000       0.00000000 </v>
   <v>       0.25000000       0.00000000       0.00000000 </v>
   <v>       0.37500000       0.00000000       0.00000000 </v>
   <v>       0.50000000       0.00000000       0.00000000 </v>
   <v>       0.12500000       0.12500000       0.00000000 </v>
   <v>       0.25000000       0.12500000       0.00000000 </v>
   <v>       0.37500000       0.12500000       0.00000000 </v>
   <v>       0.50000000       0.12500000       0.00000000 </v>
   <v>       0.25000000       0.25000000       0.00000000 </v>
   <v>       0.37500000       0.25000000       0.00000000 </v>
   <v>       0.50000000       0.25000000       0.00000000 </v>
   <v>       0.37500000       0.37500000       0.00000000 </v>
   <v>       0.50000000       0.37500000       0.00000000 </v>
   <v>       0.50000000       0.50000000       0.00000000 </v>
   <v>       0.12500000       0.12500000       0.12500000 </v>
   <v>       0.25000000       0.12500000       0.12500000 </v>
   <v>       0.37500000       0.12500000       0.12500000 </v>
   <v>       0.50000000       0.12500000       0.12500000 </v>
   <v>       0.25000000       0.25000000       0.12500000 </v>
   <v>       0.37500000       0.25000000       0.12500000 </v>
   <v>       0.50000000       0.25000000       0.12500000 </v>
   <v>       0.37500000       0.37500000       0.12500000 </v>
   <v>       0.50000000       0.37500000       0.12500000 </v>
   <v>       0.50000000       0.50000000       0.12500000 </v>
   <v>       0.25000000       0.25000000       0.25000000 </v>
   <v>       0.37500000       0.25000000       0.25000000 </v>
   <v>       0.50000000       0.25000000       0.25000000 </v>
   <v>       0.37500000       0.37500000       0.25000000 </v>
   <v>       0.50000000       0.37500000       0.25000000 </v>
   <v>       0.50000000       0.50000000       0.25000000 </v>
   <v>       0.37500000       0.37500000       0.37500000 </v>
   <v>       0.50000000       0.37500000       0.37500000 </v>
   <v>       0.50000000       0.50000000       0.37500000 </v>
   <v>       0.50000000       0.50000000       0.50000000 </v>
  </varray>
  <varray name="weights" >
   <v>       0.00195312 </v>
   <v>       0.01171875 </v>
   <v>       0.01171875 </v>
   <v>       0.01171875 </v>
   <v>       0.00585938 </v>
   <v>       0.02343750 </v>
   <v>       0.04687500 </v>
   <v>       0.04687500 </v>
   <v>       0.02343750 </v>
   <v>       0.02343750 </v>
   <v>       0.04687500 </v>
   <v>       0.02343750 </v>
   <v>       0.02343750 </v>
   <v>       0.02343750 </v>
   <v>       0.00585938 </v>
   <v>       0.01562500 </v>
   <v>       0.04687500 </v>
   <v>       0.04687500 </v>
   <v>       0.02343750 </v>
   <v>       0.04687500 </v>
   <v>       0.09375000 </v>
   <v>       0.04687500 </v>
   <v>       0.04687500 </v>
   <v>       0.04687500 </v>
   <v>       0.01171875 </v>
   <v>       0.01562500 </v>
   <v>       0.04687500 </v>
   <v>       0.02343750 </v>
   <v>       0.04687500 </v>
   <v>       0.04687500 </v>
   <v>       0.01171875 </v>
   <v>       0.01562500 </v>
   <v>       0.02343750 </v>
   <v>       0.01171875 </v>
   <v>       0.00195312 </v>
  </varray>
  <varray name="tetrahedronlist"  type="int" >
   <v type="int" >       12        1        2        2        6 </v>
   <v type="int" >       12        2        2        6        6 </v>
   <v type="int" >       12        2        6        6       16 </v>
   <v type="int" >       12        2        3        6        7 </v>
   <v type="int" >       12        2        6        6        7 </v>
   <v type="int" >       12        6        6        7       16 </v>
   <v type="int" >       12        3        6        7        7 </v>
   <v type="int" >       24        6        7        7       17 </v>
   <v type="int" >       24        6        7       16       17 </v>
   <v type="int" >       12        3        4        7        8 </v>
   <v type="int" >       12        3        7        7        8 </v>
   <v type="int" >       12        7        7        8       17 </v>
   <v type="int" >       12        4        7        8        8 </v>
   <v type="int" >       12        7        8        8       18 </v>
   <v type="int" >       12        7        8       17       18 </v>
   <v type="int" >       12        4        5        8        9 </v>
   <v type="int" >       12        4        8        8        9 </v>
   <v type="int" >       12        8        8        9       18 </v>
   <v type="int" >       12        5        8        9        9 </v>
   <v type="int" >       12        8        9        9       19 </v>
   <v type="int" >       12        8        9       18       19 </v>
   <v type="int" >       12        6        7       10       16 </v>
   <v type="int" >       12        7       10       16       17 </v>
   <v type="int" >       12       10       16       17       20 </v>
   <v type="int" >       12        7        8       11       17 </v>
   <v type="int" >       12        7       10       11       17 </v>
   <v type="int" >       12       10       11       17       20 </v>
   <v type="int" >       12        8       11       17       18 </v>
   <v type="int" >       12       11       17       18       21 </v>
   <v type="int" >       12       11       17       20       21 </v>
   <v type="int" >       12        8        9       12       18 </v>
   <v type="int" >       12        8       11       12       18 </v>
   <v type="int" >       12       11       12       18       21 </v>
   <v type="int" >       12        9       12       18       19 </v>
   <v type="int" >       12       12       18       19       22 </v>
   <v type="int" >       12       12       18       21       22 </v>
   <v type="int" >       12        8        9       11       19 </v>
   <v type="int" >       12        9       11       12       19 </v>
   <v type="int" >       12       11       12       19       22 </v>
   <v type="int" >       12        8       11       18       19 </v>
   <v type="int" >       12       11       18       19       21 </v>
   <v type="int" >       12       11       19       21       22 </v>
   <v type="int" >       12        7        8       10       18 </v>
   <v type="int" >       12        8       10       11       18 </v>
   <v type="int" >       12       10       11       18       21 </v>
   <v type="int" >       12        7       10       17       18 </v>
   <v type="int" >       12       10       17       18       20 </v>
   <v type="int" >       12       10       18       20       21 </v>
   <v type="int" >       12        7        7       10       17 </v>
   <v type="int" >       12        7       10       17       20 </v>
   <v type="int" >       12        7       16       17       17 </v>
   <v type="int" >       12        7       17       17       20 </v>
   <v type="int" >       12        2        3        6       16 </v>
   <v type="int" >       12        3        6        7       16 </v>
   <v type="int" >       12        3        7       16       17 </v>
   <v type="int" >       12       10       11       13       20 </v>
   <v type="int" >       12       11       13       20       21 </v>
   <v type="int" >       12       13       20       21       23 </v>
   <v type="int" >       12       11       12       14       21 </v>
   <v type="int" >       12       11       13       14       21 </v>
   <v type="int" >       12       13       14       21       23 </v>
   <v type="int" >       12       12       14       21       22 </v>
   <v type="int" >       12       14       21       22       24 </v>
   <v type="int" >       12       14       21       23       24 </v>
   <v type="int" >       12       11       12       13       22 </v>
   <v type="int" >       12       12       13       14       22 </v>
   <v type="int" >       12       13       14       22       24 </v>
   <v type="int" >       12       11       13       21       22 </v>
   <v type="int" >       12       13       21       22       23 </v>
   <v type="int" >       12       13       22       23       24 </v>
   <v type="int" >       12       10       11       11       21 </v>
   <v type="int" >       12       11       11       13       21 </v>
   <v type="int" >       12       11       13       21       23 </v>
   <v type="int" >       12       10       11       20       21 </v>
   <v type="int" >       12       11       20       21       21 </v>
   <v type="int" >       12       11       21       21       23 </v>
   <v type="int" >       12        7        8       10       20 </v>
   <v type="int" >       12        8       10       11       20 </v>
   <v type="int" >       12        8       11       20       21 </v>
   <v type="int" >       12        7        8       17       20 </v>
   <v type="int" >       12        8       17       18       20 </v>
   <v type="int" >       12        8       18       20       21 </v>
   <v type="int" >       12        3        4        7       17 </v>
   <v type="int" >       12        4        7        8       17 </v>
   <v type="int" >       12        4        8       17       18 </v>
   <v type="int" >       12       13       14       15       23 </v>
   <v type="int" >       12       14       15       23       24 </v>
   <v type="int" >       12       15       23       24       25 </v>
   <v type="int" >       12       13       14       14       24 </v>
   <v type="int" >       12       14       14       15       24 </v>
   <v type="int" >       12       14       15       24       25 </v>
   <v type="int" >       12       13       14       23       24 </v>
   <v type="int" >       12       14       23       24       24 </v>
   <v type="int" >       12       14       24       24       25 </v>
   <v type="int" >       12       11       12       13       23 </v>
   <v type="int" >       12       12       13       14       23 </v>
   <v type="int" >       12       12       14       23       24 </v>
   <v type="int" >       12       11       12       21       23 </v>
   <v type="int" >       12       12       21       22       23 </v>
   <v type="int" >       12       12       22       23       24 </v>
   <v type="int" >       12        8        9       11       21 </v>
   <v type="int" >       12        9       11       12       21 </v>
   <v type="int" >       12        9       12       21       22 </v>
   <v type="int" >       12        8        9       18       21 </v>
   <v type="int" >       12        9       18       19       21 </v>
   <v type="int" >       12        9       19       21       22 </v>
   <v type="int" >       12        4        5        8       18 </v>
   <v type="int" >       12        5        8        9       18 </v>
   <v type="int" >       12        5        9       18       19 </v>
   <v type="int" >       12       13       14       15       25 </v>
   <v type="int" >       12       13       14       24       25 </v>
   <v type="int" >       12       13       23       24       25 </v>
   <v type="int" >       12       11       12       14       24 </v>
   <v type="int" >       12       11       13       14       24 </v>
   <v type="int" >       12       11       13       23       24 </v>
   <v type="int" >       12       11       12       22       24 </v>
   <v type="int" >       12       11       21       22       24 </v>
   <v type="int" >       12       11       21       23       24 </v>
   <v type="int" >       12        8        9       12       22 </v>
   <v type="int" >       12        8       11       12       22 </v>
   <v type="int" >       12        8       11       21       22 </v>
   <v type="int" >       12        8        9       19       22 </v>
   <v type="int" >       12        8       18       19       22 </v>
   <v type="int" >       12        8       18       21       22 </v>
   <v type="int" >       12        4        5        9       19 </v>
   <v type="int" >       12        4        8        9       19 </v>
   <v type="int" >       12        4        8       18       19 </v>
   <v type="int" >       12       10       11       13       23 </v>
   <v type="int" >       12       10       11       21       23 </v>
   <v type="int" >       12       10       20       21       23 </v>
   <v type="int" >       12        7        8       11       21 </v>
   <v type="int" >       12        7       10       11       21 </v>
   <v type="int" >       12        7       10       20       21 </v>
   <v type="int" >       12        7        8       18       21 </v>
   <v type="int" >       12        7       17       18       21 </v>
   <v type="int" >       12        7       17       20       21 </v>
   <v type="int" >       12        3        4        8       18 </v>
   <v type="int" >       12        3        7        8       18 </v>
   <v type="int" >       12        3        7       17       18 </v>
   <v type="int" >       12        6        7       10       20 </v>
   <v type="int" >       12        6        7       17       20 </v>
   <v type="int" >       12        6       16       17       20 </v>
   <v type="int" >       12        2        3        7       17 </v>
   <v type="int" >       12        2        6        7       17 </v>
   <v type="int" >       12        2        6       16       17 </v>
   <v type="int" >       12        1        2        6       16 </v>
   <v type="int" >       12       16       17       17       20 </v>
   <v type="int" >       12       17       17       20       20 </v>
   <v type="int" >       12       17       20       20       26 </v>
   <v type="int" >       12       17       18       20       21 </v>
   <v type="int" >       12       17       20       20       21 </v>
   <v type="int" >       12       20       20       21       26 </v>
   <v type="int" >       12       18       20       21       21 </v>
   <v type="int" >       24       20       21       21       27 </v>
   <v type="int" >       24       20       21       26       27 </v>
   <v type="int" >       12       18       19       21       22 </v>
   <v type="int" >       12       18       21       21       22 </v>
   <v type="int" >       12       21       21       22       27 </v>
   <v type="int" >       12       19       21       22       22 </v>
   <v type="int" >       12       21       22       22       28 </v>
   <v type="int" >       12       21       22       27       28 </v>
   <v type="int" >       12       20       21       23       26 </v>
   <v type="int" >       12       21       23       26       27 </v>
   <v type="int" >       12       23       26       27       29 </v>
   <v type="int" >       12       21       22       24       27 </v>
   <v type="int" >       12       21       23       24       27 </v>
   <v type="int" >       12       23       24       27       29 </v>
   <v type="int" >       12       22       24       27       28 </v>
   <v type="int" >       12       24       27       28       30 </v>
   <v type="int" >       12       24       27       29       30 </v>
   <v type="int" >       12       21       22       23       28 </v>
   <v type="int" >       12       22       23       24       28 </v>
   <v type="int" >       12       23       24       28       30 </v>
   <v type="int" >       12       21       23       27       28 </v>
   <v type="int" >       12       23       27       28       29 </v>
   <v type="int" >       12       23       28       29       30 </v>
   <v type="int" >       12       21       21       23       27 </v>
   <v type="int" >       12       21       23       27       29 </v>
   <v type="int" >       12       21       26       27       27 </v>
   <v type="int" >       12       21       27       27       29 </v>
   <v type="int" >       12       17       18       20       26 </v>
   <v type="int" >       12       18       20       21       26 </v>
   <v type="int" >       12       18       21       26       27 </v>
   <v type="int" >       12       23       24       25       29 </v>
   <v type="int" >       12       24       25       29       30 </v>
   <v type="int" >       12       25       29       30       31 </v>
   <v type="int" >       12       23       24       24       30 </v>
   <v type="int" >       12       24       24       25       30 </v>
   <v type="int" >       12       24       25       30       31 </v>
   <v type="int" >       12       23       24       29       30 </v>
   <v type="int" >       12       24       29       30       30 </v>
   <v type="int" >       12       24       30       30       31 </v>
   <v type="int" >       12       21       22       23       29 </v>
   <v type="int" >       12       22       23       24       29 </v>
   <v type="int" >       12       22       24       29       30 </v>
   <v type="int" >       12       21       22       27       29 </v>
   <v type="int" >       12       22       27       28       29 </v>
   <v type="int" >       12       22       28       29       30 </v>
   <v type="int" >       12       18       19       21       27 </v>
   <v type="int" >       12       19       21       22       27 </v>
   <v type="int" >       12       19       22       27       28 </v>
   <v type="int" >       12       23       24       25       31 </v>
   <v type="int" >       12       23       24       30       31 </v>
   <v type="int" >       12       23       29       30       31 </v>
   <v type="int" >       12       21       22       24       30 </v>
   <v type="int" >       12       21       23       24       30 </v>
   <v type="int" >       12       21       23       29       30 </v>
   <v type="int" >       12       21       22       28       30 </v>
   <v type="int" >       12       21       27       28       30 </v>
   <v type="int" >       12       21       27       29       30 </v>
   <v type="int" >       12       18       19       22       28 </v>
   <v type="int" >       12       18       21       22       28 </v>
   <v type="int" >       12       18       21       27       28 </v>
   <v type="int" >       12       20       21       23       29 </v>
   <v type="int" >       12       20       21       27       29 </v>
   <v type="int" >       12       20       26       27       29 </v>
   <v type="int" >       12       17       18       21       27 </v>
   <v type="int" >       12       17       20       21       27 </v>
   <v type="int" >       12       17       20       26       27 </v>
   <v type="int" >       12       16       17       20       26 </v>
   <v type="int" >       12       26       27       27       29 </v>
   <v type="int" >       12       27       27       29       29 </v>
   <v type="int" >       12       27       29       29       32 </v>
   <v type="int" >       12       27       28       29       30 </v>
   <v type="int" >       12       27       29       29       30 </v>
   <v type="int" >       12       29       29       30       32 </v>
   <v type="int" >       12       28       29       30       30 </v>
   <v type="int" >       24       29       30       30       33 </v>
   <v type="int" >       24       29       30       32       33 </v>
   <v type="int" >       12       29       30       31       32 </v>
   <v type="int" >       12       30       31       32       33 </v>
   <v type="int" >       12       31       32       33       34 </v>
   <v type="int" >       12       30       30       31       33 </v>
   <v type="int" >       12       30       31       33       34 </v>
   <v type="int" >       12       30       32       33       33 </v>
   <v type="int" >       12       30       33       33       34 </v>
   <v type="int" >       12       27       28       29       32 </v>
   <v type="int" >       12       28       29       30       32 </v>
   <v type="int" >       12       28       30       32       33 </v>
   <v type="int" >       12       29       30       31       34 </v>
   <v type="int" >       12       29       30       33       34 </v>
   <v type="int" >       12       29       32       33       34 </v>
   <v type="int" >       12       27       28       30       33 </v>
   <v type="int" >       12       27       29       30       33 </v>
   <v type="int" >       12       27       29       32       33 </v>
   <v type="int" >       12       26       27       29       32 </v>
   <v type="int" >       12       32       33       33       34 </v>
   <v type="int" >       12       33       33       34       34 </v>
   <v type="int" >       12       33       34       34       35 </v>
   <v type="int" >       12       32       33       34       35 </v>
  </varray>
  <i name="volumeweight">      0.00032552 </i>
 </kpoints>
 <parameters>
  <separator name="general" >
   <i type="string" name="SYSTEM">unknown system</i>
   <i type="logical" name="LCOMPAT"> F  </i>
  </separator>
  <separator name="electronic" >
   <i type="string" name="PREC">accura</i>
   <i name="ENMAX">    520.00000000</i>
   <i name="ENAUG">    605.39200000</i>
   <i name="EDIFF">      0.00025000</i>
   <i type="int" name="IALGO">    38</i>
   <i type="int" name="IWAVPR">    10</i>
   <i type="int" name="NBANDS">    24</i>
   <i name="NELECT">     38.00000000</i>
   <i type="int" name="TURBO">     0</i>
   <i type="int" name="IRESTART">     0</i>
   <i type="int" name="NREBOOT">     0</i>
   <i type="int" name="NMIN">     0</i>
   <i name="EREF">      0.00000000</i>
   <separator name="electronic smearing" >
    <i type="int" name="ISMEAR">    -5</i>
    <i name="SIGMA">      0.05000000</i>
    <i name="KSPACING">      0.50000000</i>
    <i type="logical" name="KGAMMA"> T  </i>
   </separator>
   <separator name="electronic projectors" >
    <i type="logical" name="LREAL"> T  </i>
    <v name="ROPT">     -0.00025000     -0.00025000     -0.00025000</v>
    <i type="int" name="LMAXPAW">  -100</i>
    <i type="int" name="LMAXMIX">     2</i>
    <i type="logical" name="NLSPLINE"> F  </i>
   </separator>
   <separator name="electronic startup" >
    <i type="int" name="ISTART">     0</i>
    <i type="int" name="ICHARG">     2</i>
    <i type="int" name="INIWAV">     1</i>
   </separator>
   <separator name="electronic spin" >
    <i type="int" name="ISPIN">     2</i>
    <i type="logical" name="LNONCOLLINEAR"> F  </i>
    <v name="MAGMOM">      0.00000000      0.00000000      0.00000000      0.00000000      0.00000000</v>
    <i name="NUPDOWN">     -1.00000000</i>
    <i type="logical" name="LSORBIT"> F  </i>
    <v name="SAXIS">      0.00000000      0.00000000      1.00000000</v>
    <i type="logical" name="LSPIRAL"> F  </i>
    <v name="QSPIRAL">      0.00000000      0.00000000      0.00000000</v>
    <i type="logical" name="LZEROZ"> F  </i>
   </separator>
   <separator name="electronic exchange-correlation" >
    <i type="logical" name="LASPH"> F  </i>
    <i type="logical" name="LMETAGGA"> F  </i>
   </separator>
   <separator name="electronic convergence" >
    <i type="int" name="NELM">   100</i>
    <i type="int" name="NELMDL">     0</i>
    <i type="int" name="NELMIN">     2</i>
    <i name="ENINI">    520.00000000</i>
    <separator name="electronic convergence detail" >
     <i type="logical" name="LDIAG"> T  </i>
     <i type="logical" name="LSUBROT"> F  </i>
     <i name="WEIMIN">      0.00000000</i>
     <i name="EBREAK">      0.00000260</i>
     <i name="DEPER">      0.30000000</i>
     <i type="int" name="NRMM">     4</i>
     <i name="TIME">      0.40000000</i>
    </separator>
   </separator>
   <separator name="electronic mixer" >
    <i name="AMIX">      0.40000000</i>
    <i name="BMIX">      1.00000000</i>
    <i name="AMIN">      0.10000000</i>
    <i name="AMIX_MAG">      1.60000000</i>
    <i name="BMIX_MAG">      1.00000000</i>
    <separator name="electronic mixer details" >
     <i type="int" name="IMIX">     4</i>
     <i type="int" name="MAXMIX">   -45</i>
     <i name="WC">    100.00000000</i>
     <i type="int" name="INIMIX">     1</i>
     <i type="int" name="MIXPRE">     1</i>
     <i type="int" name="MREMOVE">     5</i>
    </separator>
   </separator>
   <separator name="electronic dipolcorrection" >
    <i type="logical" name="LDIPOL"> F  </i>
    <i type="logical" name="LMONO"> F  </i>
    <i type="int" name="IDIPOL">     0</i>
    <i name="EPSILON">      1.00000000</i>
    <v name="DIPOL">   -100.00000000   -100.00000000   -100.00000000</v>
    <i name="EFIELD">      0.00000000</i>
   </separator>
  </separator>
  <separator name="grids" >
   <i type="int" name="NGX">    30</i>
   <i type="int" name="NGY">    30</i>
   <i type="int" name="NGZ">    30</i>
   <i type="int" name="NGXF">    60</i>
   <i type="int" name="NGYF">    60</i>
   <i type="int" name="NGZF">    60</i>
   <i type="logical" name="ADDGRID"> F  </i>
  </separator>
  <separator name="ionic" >
   <i type="int" name="NSW">     0</i>
   <i type="int" name="IBRION">    -1</i>
   <i type="int" name="ISIF">     3</i>
   <i name="PSTRESS">      0.00000000</i>
   <i name="EDIFFG">      0.00250000</i>
   <i type="int" name="NFREE">     0</i>
   <i name="POTIM">      0.50000000</i>
   <i name="SMASS">     -3.00000000</i>
   <i name="SCALEE">      1.00000000</i>
  </separator>
  <separator name="ionic md" >
   <i name="TEBEG">      0.00010000</i>
   <i name="TEEND">      0.00010000</i>
   <i type="int" name="NBLOCK">     1</i>
   <i type="int" name="KBLOCK">     1</i>
   <i type="int" name="NPACO">   256</i>
   <i name="APACO">     16.00000000</i>
  </separator>
  <separator name="symmetry" >
   <i type="int" name="ISYM">     2</i>
   <i name="SYMPREC">      0.00001000</i>
  </separator>
  <separator name="dos" >
   <i type="logical" name="LORBIT"> F  </i>
   <v name="RWIGS">     -1.00000000     -1.00000000     -1.00000000</v>
   <i type="int" name="NEDOS">   301</i>
   <i name="EMIN">     10.00000000</i>
   <i name="EMAX">    -10.00000000</i>
   <i name="EFERMI">      0.00000000</i>
  </separator>
  <separator name="writing" >
   <i type="int" name="NWRITE">     2</i>
   <i type="logical" name="LWAVE"> T  </i>
   <i type="logical" name="LCHARG"> T  </i>
   <i type="logical" name="LPARD"> F  </i>
   <i type="logical" name="LVTOT"> F  </i>
   <i type="logical" name="LVHAR"> T  </i>
   <i type="logical" name="LELF"> F  </i>
   <i type="logical" name="LOPTICS"> F  </i>
   <v name="STM">      0.00000000      0.00000000      0.00000000      0.00000000      0.00000000      0.00000000      0.00000000</v>
  </separator>
  <separator name="performance" >
   <i type="int" name="NPAR">     8</i>
   <i type="int" name="NSIM">     4</i>
   <i type="int" name="NBLK">    -1</i>
   <i type="logical" name="LPLANE"> T  </i>
   <i type="logical" name="LSCALAPACK"> T  </i>
   <i type="logical" name="LSCAAWARE"> F  </i>
   <i type="logical" name="LSCALU"> F  </i>
   <i type="logical" name="LASYNC"> F  </i>
   <i type="logical" name="LORBITALREAL"> F  </i>
  </separator>
  <separator name="miscellaneous" >
   <i type="int" name="IDIOT">     3</i>
   <i type="logical" name="LMUSIC"> F  </i>
   <v name="POMASS">    137.32700000     47.88000000     16.00000000</v>
   <v name="DARWINR">      0.00000000      0.00000000      0.00000000</v>
   <v name="DARWINV">      1.00000000      1.00000000      1.00000000</v>
   <i type="logical" name="LCORR"> T  </i>
  </separator>
  <i type="logical" name="GGA_COMPAT"> T  </i>
  <i type="logical" name="LBERRY"> F  </i>
  <i type="int" name="ICORELEVEL">     0</i>
  <i type="logical" name="LDAU"> F  </i>
  <i type="int" name="I_CONSTRAINED_M">     0</i>
  <separator name="electronic exchange-correlation" >
   <i type="string" name="GGA">--</i>
   <i type="int" name="VOSKOWN">     0</i>
   <i type="logical" name="LHFCALC"> F  </i>
   <i type="string" name="PRECFOCK"></i>
   <i type="logical" name="LSYMGRAD"> F  </i>
   <i type="logical" name="LHFONE"> F  </i>
   <i type="logical" name="LRHFCALC"> F  </i>
   <i type="logical" name="LTHOMAS"> F  </i>
   <i type="logical" name="LMODELHF"> F  </i>
   <i name="ENCUT4O">     -1.00000000</i>
   <i type="int" name="EXXOEP">     0</i>
   <i type="int" name="FOURORBIT">     0</i>
   <i name="AEXX">      0.00000000</i>
   <i name="HFALPHA">      0.00000000</i>
   <i name="MCALPHA">      0.00000000</i>
   <i name="ALDAX">      1.00000000</i>
   <i name="AGGAX">      1.00000000</i>
   <i name="ALDAC">      1.00000000</i>
   <i name="AGGAC">      1.00000000</i>
   <i type="int" name="NKREDX">     1</i>
   <i type="int" name="NKREDY">     1</i>
   <i type="int" name="NKREDZ">     1</i>
   <i type="logical" name="SHIFTRED"> F  </i>
   <i type="logical" name="ODDONLY"> F  </i>
   <i type="logical" name="EVENONLY"> F  </i>
   <i type="int" name="LMAXFOCK">     0</i>
   <i type="int" name="NMAXFOCKAE">     0</i>
   <i type="logical" name="LFOCKAEDFT"> F  </i>
   <i name="HFSCREEN">      0.00000000</i>
   <i name="HFSCREENC">      0.00000000</i>
   <i type="int" name="NBANDSGWLOW">     0</i>
  </separator>
  <separator name="vdW DFT" >
   <i type="logical" name="LUSE_VDW"> F  </i>
   <i name="Zab_VDW">     -0.84910000</i>
   <i name="PARAM1">      0.12340000</i>
   <i name="PARAM2">      1.00000000</i>
   <i name="PARAM3">      0.00000000</i>
  </separator>
  <separator name="model GW" >
   <i type="int" name="MODEL_GW">     0</i>
   <i name="MODEL_EPS0">      7.87191011</i>
   <i name="MODEL_ALPHA">      1.00000000</i>
  </separator>
  <separator name="linear response parameters" >
   <i type="logical" name="LEPSILON"> F  </i>
   <i type="logical" name="LRPA"> F  </i>
   <i type="logical" name="LNABLA"> F  </i>
   <i type="logical" name="LVEL"> F  </i>
   <i type="int" name="KINTER">     0</i>
   <i name="CSHIFT">      0.10000000</i>
   <i name="OMEGAMAX">     -1.00000000</i>
   <i name="DEG_THRESHOLD">      0.00200000</i>
  </separator>
  <separator name="orbital magnetization" >
   <i type="logical" name="NUCIND"> F  </i>
   <v name="MAGPOS">      0.00000000      0.00000000      0.00000000</v>
   <i type="logical" name="LNICSALL"> T  </i>
   <i type="logical" name="ORBITALMAG"> F  </i>
   <i type="logical" name="LMAGBLOCH"> F  </i>
   <i type="logical" name="LCHIMAG"> F  </i>
   <i type="logical" name="LGAUGE"> T  </i>
   <i type="int" name="MAGATOM">     0</i>
   <v name="MAGDIPOL">      0.00000000      0.00000000      0.00000000</v>
   <v name="AVECCONST">      0.00000000      0.00000000      0.00000000</v>
  </separator>
  <separator name="response functions" >
   <i type="logical" name="LADDER"> F  </i>
   <i type="logical" name="LFXC"> F  </i>
   <i type="logical" name="LHARTREE"> T  </i>
   <i type="int" name="IBSE">     0</i>
   <i type="logical" name="LTCTE"> F  </i>
   <i type="logical" name="LTETE"> F  </i>
   <i type="logical" name="LTRIPLET"> F  </i>
   <i type="logical" name="LFXCEPS"> F  </i>
   <i type="logical" name="LFXHEG"> F  </i>
   <i type="logical" name="L2ORDER"> F  </i>
   <i type="logical" name="LUSEW"> F  </i>
   <i name="ENCUTGW">     -2.00000000</i>
   <i name="ENCUTGWSOFT">     -2.00000000</i>
   <i name="ENCUTLF">     -1.00000000</i>
   <i type="int" name="LMAXMP2">    -1</i>
   <i name="SCISSOR">      0.00000000</i>
   <i type="int" name="NOMEGA">     0</i>
   <i type="int" name="NOMEGAR">     0</i>
   <i type="int" name="NBANDSGW">    -1</i>
   <i type="int" name="NBANDSO">    -1</i>
   <i type="int" name="NBANDSV">    -1</i>
   <i type="int" name="NELM">   100</i>
   <i type="int" name="DIM">     3</i>
   <i type="int" name="ANTIRES">     0</i>
   <i name="OMEGAMAX">    -30.00000000</i>
   <i name="OMEGAMIN">    -30.00000000</i>
   <i name="OMEGATL">   -200.00000000</i>
   <i type="int" name="OMEGAGRID">     0</i>
   <i name="CSHIFT">     -0.10000000</i>
   <i type="logical" name="SELFENERGY"> F  </i>
   <i type="logical" name="LSPECTRAL"> F  </i>
   <i type="logical" name="ODDONLYGW"> F  </i>
   <i type="logical" name="EVENONLYGW"> F  </i>
   <i type="int" name="NKREDLFX">     1</i>
   <i type="int" name="NKREDLFY">     1</i>
   <i type="int" name="NKREDLFZ">     1</i>
   <i type="int" name="MAXMEM">  1800</i>
   <i type="int" name="TELESCOPE">     0</i>
   <i type="int" name="TAUPAR">     1</i>
  </separator>
  <separator name="External order field" >
   <i name="OFIELD_KAPPA">      0.00000000</i>
   <v name="OFIELD_K">      0.00000000      0.00000000      0.00000000</v>
   <i name="OFIELD_Q6_NEAR">      0.00000000</i>
   <i name="OFIELD_Q6_FAR">      0.00000000</i>
   <i name="OFIELD_A">      0.00000000</i>
  </separator>
 </parameters>
 <atominfo>
  <atoms>       5 </atoms>
  <types>       3 </types>
  <array name="atoms" >
   <dimension dim="1">ion</dimension>
   <field type="string">element</field>
   <field type="int">atomtype</field>
   <set>
    <rc><c>Ba</c><c>   1</c></rc>
    <rc><c>Ti</c><c>   2</c></rc>
    <rc><c>O </c><c>   3</c></rc>
    <rc><c>O </c><c>   3</c></rc>
    <rc><c>O </c><c>   3</c></rc>
   </set>
  </array>
  <array name="atomtypes" >
   <dimension dim="1">type</dimension>
   <field type="int">atomspertype</field>
   <field type="string">element</field>
   <field>mass</field>
   <field>valence</field>
   <field type="string">pseudopotential</field>
   <set>
    <rc><c>   1</c><c>Ba</c><c>    137.32700000</c><c>     10.00000000</c><c>  PAW_PBE Ba_sv 06Sep2000               </c></rc>
    <rc><c>   1</c><c>Ti</c><c>     47.88000000</c><c>     10.00000000</c><c>  PAW_PBE Ti_pv 07Sep2000               </c></rc>
    <rc><c>   3</c><c>O </c><c>     16.00000000</c><c>      6.00000000</c><c>  PAW_PBE O 08Apr2002                   </c></rc>
   </set>
  </array>
 </atominfo>
 <structure name="initialpos" >
  <crystal>
   <varray name="basis" >
    <v>       4.03304400       0.00000000       0.00000000 </v>
    <v>       0.00000000       4.03304400       0.00000000 </v>
    <v>       0.00000000       0.00000000       4.03304400 </v>
   </varray>
   <i name="volume">     65.59925095 </i>
   <varray name="rec_basis" >
    <v>       0.24795167       0.00000000       0.00000000 </v>
    <v>       0.00000000       0.24795167       0.00000000 </v>
    <v>       0.00000000       0.00000000       0.24795167 </v>
   </varray>
  </crystal>
  <varray name="positions" >
   <v>       0.00000000       0.00000000       0.00280000 </v>
   <v>       0.50000000       0.50000000       0.50280000 </v>
   <v>       0.00000000       0.50000000       0.50280000 </v>
   <v>       0.50000000       0.00000000       0.50280000 </v>
   <v>       0.50000000       0.50000000       0.00280000 </v>
  </varray>
 </structure>
 <calculation>
  <scstep>
   <time name="dav">    5.32    5.32</time>
   <time name="total">    5.45    5.45</time>
   <energy>
    <i name="alphaZ">    255.43339506 </i>
    <i name="ewald">  -2507.06893497 </i>
    <i name="hartreedc">   -637.68058289 </i>
    <i name="XCdc">    145.35336933 </i>
    <i name="pawpsdc">   2375.87058617 </i>
    <i name="pawaedc">  -2378.00600003 </i>
    <i name="eentropy">      0.00000000 </i>
    <i name="bandstr">    116.35551168 </i>
    <i name="atom">   3040.52701931 </i>
    <i name="e_fr_energy">    410.78436367 </i>
    <i name="e_wo_entrp">    410.78436367 </i>
    <i name="e_0_energy">    410.78436367 </i>
   </energy>
  </scstep>
  <scstep>
   <time name="dav">    6.55    6.55</time>
   <time name="total">    6.59    6.59</time>
   <energy>
    <i name="e_fr_energy">    -16.16687214 </i>
    <i name="e_wo_entrp">    -16.16687214 </i>
    <i name="e_0_energy">    -16.16687214 </i>
   </energy>
  </scstep>
  <scstep>
   <time name="dav">    5.82    5.81</time>
   <time name="total">    5.82    5.82</time>
   <energy>
    <i name="e_fr_energy">    -49.90271545 </i>
    <i name="e_wo_entrp">    -49.90271545 </i>
    <i name="e_0_energy">    -49.90271545 </i>
   </energy>
  </scstep>
  <scstep>
   <time name="dav">    7.47    7.47</time>
   <time name="total">    7.48    7.48</time>
   <energy>
    <i name="e_fr_energy">    -51.07080523 </i>
    <i name="e_wo_entrp">    -51.07080523 </i>
    <i name="e_0_energy">    -51.07080523 </i>
   </energy>
  </scstep>
  <scstep>
   <time name="dav">    6.29    6.30</time>
   <time name="total">    6.69    6.70</time>
   <energy>
    <i name="e_fr_energy">    -51.09372704 </i>
    <i name="e_wo_entrp">    -51.09372704 </i>
    <i name="e_0_energy">    -51.09372704 </i>
   </energy>
  </scstep>
  <scstep>
   <time name="dav">    7.47    7.48</time>
   <time name="total">    7.97    7.99</time>
   <energy>
    <i name="e_fr_energy">    -40.08171811 </i>
    <i name="e_wo_entrp">    -40.08171811 </i>
    <i name="e_0_energy">    -40.08171811 </i>
   </energy>
  </scstep>
  <scstep>
   <time name="dav">    6.45    6.45</time>
   <time name="total">    6.94    6.96</time>
   <energy>
    <i name="e_fr_energy">    -40.13575008 </i>
    <i name="e_wo_entrp">    -40.13575008 </i>
    <i name="e_0_energy">    -40.13575008 </i>
   </energy>
  </scstep>
  <scstep>
   <time name="dav">    6.66    6.67</time>
   <time name="total">    7.16    7.17</time>
   <energy>
    <i name="e_fr_energy">    -39.91423579 </i>
    <i name="e_wo_entrp">    -39.91423579 </i>
    <i name="e_0_energy">    -39.91423579 </i>
   </energy>
  </scstep>
  <scstep>
   <time name="dav">    6.88    6.88</time>
   <time name="total">    7.38    7.38</time>
   <energy>
    <i name="e_fr_energy">    -39.89471205 </i>
    <i name="e_wo_entrp">    -39.89471205 </i>
    <i name="e_0_energy">    -39.89471205 </i>
   </energy>
  </scstep>
  <scstep>
   <time name="dav">    6.50    6.50</time>
   <time name="total">    7.00    7.00</time>
   <energy>
    <i name="e_fr_energy">    -39.88955980 </i>
    <i name="e_wo_entrp">    -39.88955980 </i>
    <i name="e_0_energy">    -39.88955980 </i>
   </energy>
  </scstep>
  <scstep>
   <time name="dav">    6.40    6.41</time>
   <time name="total">    6.89    7.98</time>
   <energy>
    <i name="e_fr_energy">    -39.88721044 </i>
    <i name="e_wo_entrp">    -39.88721044 </i>
    <i name="e_0_energy">    -39.88721044 </i>
   </energy>
  </scstep>
  <scstep>
   <time name="dav">    6.49    6.49</time>
   <time name="total">    6.99    6.99</time>
   <energy>
    <i name="e_fr_energy">    -39.88694485 </i>
    <i name="e_wo_entrp">    -39.88694485 </i>
    <i name="e_0_energy">    -39.88694485 </i>
   </energy>
  </scstep>
  <scstep>
   <time name="dav">    4.22    4.22</time>
   <time name="total">    4.32    4.33</time>
   <energy>
    <i name="alphaZ">    255.43339506 </i>
    <i name="ewald">  -2507.06893497 </i>
    <i name="hartreedc">   -638.13978162 </i>
    <i name="XCdc">    146.62697347 </i>
    <i name="pawpsdc">   3589.32666890 </i>
    <i name="pawaedc">  -3598.69350859 </i>
    <i name="eentropy">      0.00000000 </i>
    <i name="bandstr">   -327.89888420 </i>
    <i name="atom">   3040.52701931 </i>
    <i name="e_fr_energy">    -39.88705263 </i>
    <i name="e_wo_entrp">    -39.88705263 </i>
    <i name="e_0_energy">    -39.88705263 </i>
   </energy>
  </scstep>
  <structure>
   <crystal>
    <varray name="basis" >
     <v>       4.03304400       0.00000000       0.00000000 </v>
     <v>       0.00000000       4.03304400       0.00000000 </v>
     <v>       0.00000000       0.00000000       4.03304400 </v>
    </varray>
    <i name="volume">     65.59925095 </i>
    <varray name="rec_basis" >
     <v>       0.24795167       0.00000000       0.00000000 </v>
     <v>       0.00000000       0.24795167       0.00000000 </v>
     <v>       0.00000000       0.00000000       0.24795167 </v>
    </varray>
   </crystal>
   <varray name="positions" >
    <v>       0.00000000       0.00000000       0.00280000 </v>
    <v>       0.50000000       0.50000000       0.50280000 </v>
    <v>       0.00000000       0.50000000       0.50280000 </v>
    <v>       0.50000000       0.00000000       0.50280000 </v>
    <v>       0.50000000       0.50000000       0.00280000 </v>
   </varray>
  </structure>
  <varray name="forces" >
   <v>       0.00000000       0.00000000      -0.00000000 </v>
   <v>       0.00000000       0.00000000       0.00000000 </v>
   <v>       0.00000000      -0.00000000       0.00000000 </v>
   <v>       0.00000000      -0.00000000       0.00000000 </v>
   <v>       0.00000000       0.00000000      -0.00000000 </v>
  </varray>
  <varray name="stress" >
   <v>      -0.98027448      -0.00000000      -0.00000000 </v>
   <v>      -0.00000000      -0.98027448      -0.00000000 </v>
   <v>      -0.00000000      -0.00000000      -0.98027448 </v>
  </varray>
  <energy>
   <i name="e_fr_energy">    -39.88705263 </i>
   <i name="e_wo_entrp">    -39.88705263 </i>
   <i name="e_0_energy">      0.00000000 </i>
  </energy>
  <time name="totalsc">   95.45   96.61</time>
  <eigenvalues>
   <array>
    <dimension dim="1">band</dimension>
    <dimension dim="2">kpoint</dimension>
    <dimension dim="3">spin</dimension>
    <field>eigene</field>
    <field>occ</field>
    <set>
     <set comment="spin 1">
      <set comment="kpoint 1">
       <r>  -29.9456    1.0000 </r>
       <r>  -29.9456    1.0000 </r>
       <r>  -29.9456    1.0000 </r>
       <r>  -21.8614    1.0000 </r>
       <r>  -13.8441    1.0000 </r>
       <r>  -13.1498    1.0000 </r>
       <r>  -13.1498    1.0000 </r>
       <r>   -7.0315    1.0000 </r>
       <r>   -7.0315    1.0000 </r>
       <r>   -7.0315    1.0000 </r>
       <r>    0.7027    1.0000 </r>
       <r>    0.7027    1.0000 </r>
       <r>    0.7027    1.0000 </r>
       <r>    1.9600    1.0000 </r>
       <r>    1.9600    1.0000 </r>
       <r>    1.9600    1.0000 </r>
       <r>    2.8570    1.0000 </r>
       <r>    2.8570    1.0000 </r>
       <r>    2.8570    1.0000 </r>
       <r>    4.7017    0.0000 </r>
       <r>    4.7017    0.0000 </r>
       <r>    4.7017    0.0000 </r>
       <r>    6.7503    0.0000 </r>
       <r>    6.7503    0.0000 </r>
      </set>
      <set comment="kpoint 2">
       <r>  -29.9524    1.0000 </r>
       <r>  -29.9454    1.0000 </r>
       <r>  -29.9453    1.0000 </r>
       <r>  -21.8462    1.0000 </r>
       <r>  -13.8471    1.0000 </r>
       <r>  -13.1449    1.0000 </r>
       <r>  -13.1412    1.0000 </r>
       <r>   -7.0097    1.0000 </r>
       <r>   -7.0097    1.0000 </r>
       <r>   -6.9756    1.0000 </r>
       <r>    0.4565    1.0000 </r>
       <r>    0.6641    1.0000 </r>
       <r>    0.6641    1.0000 </r>
       <r>    1.7830    1.0000 </r>
       <r>    1.7830    1.0000 </r>
       <r>    1.8228    1.0000 </r>
       <r>    2.4687    1.0000 </r>
       <r>    2.7451    1.0000 </r>
       <r>    2.7451    1.0000 </r>
       <r>    4.7226    0.0000 </r>
       <r>    5.0101    0.0000 </r>
       <r>    5.0101    0.0000 </r>
       <r>    6.7512    0.0000 </r>
       <r>    7.1705    0.0000 </r>
      </set>
      <set comment="kpoint 3">
       <r>  -29.9687    1.0000 </r>
       <r>  -29.9447    1.0000 </r>
       <r>  -29.9447    1.0000 </r>
       <r>  -21.8089    1.0000 </r>
       <r>  -13.8965    1.0000 </r>
       <r>  -13.1329    1.0000 </r>
       <r>  -13.0702    1.0000 </r>
       <r>   -6.9559    1.0000 </r>
       <r>   -6.9559    1.0000 </r>
       <r>   -6.8423    1.0000 </r>
       <r>   -0.1270    1.0000 </r>
       <r>    0.5384    1.0000 </r>
       <r>    0.5384    1.0000 </r>
       <r>    1.4669    1.0000 </r>
       <r>    1.4669    1.0000 </r>
       <r>    1.5248    1.0000 </r>
       <r>    1.7814    1.0000 </r>
       <r>    2.5394    1.0000 </r>
       <r>    2.5394    1.0000 </r>
       <r>    4.7741    0.0000 </r>
       <r>    5.6277    0.0000 </r>
       <r>    5.6277    0.0000 </r>
       <r>    6.7533    0.0000 </r>
       <r>    7.9292    0.0000 </r>
      </set>
      <set comment="kpoint 4">
       <r>  -29.9848    1.0000 </r>
       <r>  -29.9441    1.0000 </r>
       <r>  -29.9441    1.0000 </r>
       <r>  -21.7711    1.0000 </r>
       <r>  -13.9852    1.0000 </r>
       <r>  -13.1206    1.0000 </r>
       <r>  -12.9478    1.0000 </r>
       <r>   -6.9001    1.0000 </r>
       <r>   -6.9001    1.0000 </r>
       <r>   -6.7111    1.0000 </r>
       <r>   -0.6914    1.0000 </r>
       <r>    0.3647    1.0000 </r>
       <r>    0.3647    1.0000 </r>
       <r>    1.2622    1.0000 </r>
       <r>    1.2679    1.0000 </r>
       <r>    1.2679    1.0000 </r>
       <r>    1.2696    1.0000 </r>
       <r>    2.3716    1.0000 </r>
       <r>    2.3716    1.0000 </r>
       <r>    4.8273    0.0000 </r>
       <r>    6.1612    0.0000 </r>
       <r>    6.1612    0.0000 </r>
       <r>    6.7553    0.0000 </r>
       <r>    8.5011    0.0000 </r>
      </set>
      <set comment="kpoint 5">
       <r>  -29.9915    1.0000 </r>
       <r>  -29.9438    1.0000 </r>
       <r>  -29.9438    1.0000 </r>
       <r>  -21.7552    1.0000 </r>
       <r>  -14.0282    1.0000 </r>
       <r>  -13.1157    1.0000 </r>
       <r>  -12.8868    1.0000 </r>
       <r>   -6.8764    1.0000 </r>
       <r>   -6.8764    1.0000 </r>
       <r>   -6.6572    1.0000 </r>
       <r>   -0.9190    1.0000 </r>
       <r>    0.2814    1.0000 </r>
       <r>    0.2814    1.0000 </r>
       <r>    1.0861    1.0000 </r>
       <r>    1.1614    1.0000 </r>
       <r>    1.2097    1.0000 </r>
       <r>    1.2097    1.0000 </r>
       <r>    2.3086    1.0000 </r>
       <r>    2.3086    1.0000 </r>
       <r>    4.8498    0.0000 </r>
       <r>    6.3694    0.0000 </r>
       <r>    6.3694    0.0000 </r>
       <r>    6.7561    0.0000 </r>
       <r>    8.7057    0.0000 </r>
      </set>
      <set comment="kpoint 6">
       <r>  -29.9523    1.0000 </r>
       <r>  -29.9519    1.0000 </r>
       <r>  -29.9451    1.0000 </r>
       <r>  -21.8317    1.0000 </r>
       <r>  -13.8380    1.0000 </r>
       <r>  -13.1439    1.0000 </r>
       <r>  -13.1342    1.0000 </r>
       <r>   -7.0357    1.0000 </r>
       <r>   -6.9873    1.0000 </r>
       <r>   -6.8962    1.0000 </r>
       <r>    0.3025    1.0000 </r>
       <r>    0.5413    1.0000 </r>
       <r>    0.6361    1.0000 </r>
       <r>    1.4144    1.0000 </r>
       <r>    1.6210    1.0000 </r>
       <r>    1.9691    1.0000 </r>
       <r>    2.2176    1.0000 </r>
       <r>    2.6136    1.0000 </r>
       <r>    2.6153    1.0000 </r>
       <r>    4.9844    0.0000 </r>
       <r>    5.0650    0.0000 </r>
       <r>    5.2040    0.0000 </r>
       <r>    6.9566    0.0000 </r>
       <r>    7.3978    0.0000 </r>
      </set>
      <set comment="kpoint 7">
       <r>  -29.9683    1.0000 </r>
       <r>  -29.9514    1.0000 </r>
       <r>  -29.9445    1.0000 </r>
       <r>  -21.7963    1.0000 </r>
       <r>  -13.8576    1.0000 </r>
       <r>  -13.1277    1.0000 </r>
       <r>  -13.0825    1.0000 </r>
       <r>   -7.0090    1.0000 </r>
       <r>   -6.9320    1.0000 </r>
       <r>   -6.7964    1.0000 </r>
       <r>   -0.1990    1.0000 </r>
       <r>    0.3696    1.0000 </r>
       <r>    0.5348    1.0000 </r>
       <r>    0.9571    1.0000 </r>
       <r>    1.3203    1.0000 </r>
       <r>    1.6843    1.0000 </r>
       <r>    1.9449    1.0000 </r>
       <r>    2.3751    1.0000 </r>
       <r>    2.4381    1.0000 </r>
       <r>    5.0580    0.0000 </r>
       <r>    5.6383    0.0000 </r>
       <r>    5.6927    0.0000 </r>
       <r>    7.0263    0.0000 </r>
       <r>    8.1154    0.0000 </r>
      </set>
      <set comment="kpoint 8">
       <r>  -29.9845    1.0000 </r>
       <r>  -29.9507    1.0000 </r>
       <r>  -29.9439    1.0000 </r>
       <r>  -21.7603    1.0000 </r>
       <r>  -13.9229    1.0000 </r>
       <r>  -13.1110    1.0000 </r>
       <r>  -12.9747    1.0000 </r>
       <r>   -6.9464    1.0000 </r>
       <r>   -6.8746    1.0000 </r>
       <r>   -6.7367    1.0000 </r>
       <r>   -0.7271    1.0000 </r>
       <r>    0.2395    1.0000 </r>
       <r>    0.3749    1.0000 </r>
       <r>    0.5460    1.0000 </r>
       <r>    1.1340    1.0000 </r>
       <r>    1.3899    1.0000 </r>
       <r>    1.8908    1.0000 </r>
       <r>    2.1836    1.0000 </r>
       <r>    2.2170    1.0000 </r>
       <r>    5.1014    0.0000 </r>
       <r>    6.1639    0.0000 </r>
       <r>    6.1834    0.0000 </r>
       <r>    7.0359    0.0000 </r>
       <r>    8.6961    0.0000 </r>
      </set>
      <set comment="kpoint 9">
       <r>  -29.9911    1.0000 </r>
       <r>  -29.9505    1.0000 </r>
       <r>  -29.9436    1.0000 </r>
       <r>  -21.7452    1.0000 </r>
       <r>  -13.9584    1.0000 </r>
       <r>  -13.1043    1.0000 </r>
       <r>  -12.9179    1.0000 </r>
       <r>   -6.9107    1.0000 </r>
       <r>   -6.8503    1.0000 </r>
       <r>   -6.7229    1.0000 </r>
       <r>   -0.9462    1.0000 </r>
       <r>    0.2193    1.0000 </r>
       <r>    0.2936    1.0000 </r>
       <r>    0.3572    1.0000 </r>
       <r>    1.0832    1.0000 </r>
       <r>    1.2926    1.0000 </r>
       <r>    1.9291    1.0000 </r>
       <r>    2.0711    1.0000 </r>
       <r>    2.1119    1.0000 </r>
       <r>    5.1195    0.0000 </r>
       <r>    6.3697    0.0000 </r>
       <r>    6.3875    0.0000 </r>
       <r>    7.0355    0.0000 </r>
       <r>    8.9044    0.0000 </r>
      </set>
      <set comment="kpoint 10">
       <r>  -29.9678    1.0000 </r>
       <r>  -29.9672    1.0000 </r>
       <r>  -29.9439    1.0000 </r>
       <r>  -21.7654    1.0000 </r>
       <r>  -13.7897    1.0000 </r>
       <r>  -13.1281    1.0000 </r>
       <r>  -13.0685    1.0000 </r>
       <r>   -7.0484    1.0000 </r>
       <r>   -6.8728    1.0000 </r>
       <r>   -6.7772    1.0000 </r>
       <r>   -0.4316    1.0000 </r>
       <r>    0.0226    1.0000 </r>
       <r>    0.3777    1.0000 </r>
       <r>    0.5048    1.0000 </r>
       <r>    1.0190    1.0000 </r>
       <r>    1.5434    1.0000 </r>
       <r>    2.0255    1.0000 </r>
       <r>    2.0703    1.0000 </r>
       <r>    2.5174    1.0000 </r>
       <r>    5.5894    0.0000 </r>
       <r>    5.7141    0.0000 </r>
       <r>    5.9536    0.0000 </r>
       <r>    7.2983    0.0000 </r>
       <r>    8.7068    0.0000 </r>
      </set>
      <set comment="kpoint 11">
       <r>  -29.9835    1.0000 </r>
       <r>  -29.9667    1.0000 </r>
       <r>  -29.9433    1.0000 </r>
       <r>  -21.7341    1.0000 </r>
       <r>  -13.7709    1.0000 </r>
       <r>  -13.1020    1.0000 </r>
       <r>  -13.0233    1.0000 </r>
       <r>   -7.0255    1.0000 </r>
       <r>   -6.8231    1.0000 </r>
       <r>   -6.8115    1.0000 </r>
       <r>   -0.8151    1.0000 </r>
       <r>   -0.2061    1.0000 </r>
       <r>   -0.0593    1.0000 </r>
       <r>    0.4019    1.0000 </r>
       <r>    0.8286    1.0000 </r>
       <r>    1.5636    1.0000 </r>
       <r>    1.8240    1.0000 </r>
       <r>    1.9884    1.0000 </r>
       <r>    2.5315    1.0000 </r>
       <r>    5.6684    0.0000 </r>
       <r>    6.1717    0.0000 </r>
       <r>    6.3161    0.0000 </r>
       <r>    7.3805    0.0000 </r>
       <r>    9.2846    0.0000 </r>
      </set>
      <set comment="kpoint 12">
       <r>  -29.9901    1.0000 </r>
       <r>  -29.9664    1.0000 </r>
       <r>  -29.9430    1.0000 </r>
       <r>  -21.7209    1.0000 </r>
       <r>  -13.7778    1.0000 </r>
       <r>  -13.0843    1.0000 </r>
       <r>  -12.9936    1.0000 </r>
       <r>   -6.9846    1.0000 </r>
       <r>   -6.8741    1.0000 </r>
       <r>   -6.7854    1.0000 </r>
       <r>   -1.0090    1.0000 </r>
       <r>   -0.3253    1.0000 </r>
       <r>   -0.1553    1.0000 </r>
       <r>    0.3282    1.0000 </r>
       <r>    0.7902    1.0000 </r>
       <r>    1.6499    1.0000 </r>
       <r>    1.7306    1.0000 </r>
       <r>    1.9097    1.0000 </r>
       <r>    2.5115    1.0000 </r>
       <r>    5.6805    0.0000 </r>
       <r>    6.3713    0.0000 </r>
       <r>    6.4893    0.0000 </r>
       <r>    7.3963    0.0000 </r>
       <r>    9.5003    0.0000 </r>
      </set>
      <set comment="kpoint 13">
       <r>  -29.9827    1.0000 </r>
       <r>  -29.9824    1.0000 </r>
       <r>  -29.9427    1.0000 </r>
       <r>  -21.7075    1.0000 </r>
       <r>  -13.6235    1.0000 </r>
       <r>  -13.1103    1.0000 </r>
       <r>  -13.0433    1.0000 </r>
       <r>   -7.0635    1.0000 </r>
       <r>   -6.9386    1.0000 </r>
       <r>   -6.7458    1.0000 </r>
       <r>   -0.9846    1.0000 </r>
       <r>   -0.5981    1.0000 </r>
       <r>   -0.5385    1.0000 </r>
       <r>    0.4171    1.0000 </r>
       <r>    0.5632    1.0000 </r>
       <r>    1.5284    1.0000 </r>
       <r>    1.7871    1.0000 </r>
       <r>    2.0930    1.0000 </r>
       <r>    2.7677    1.0000 </r>
       <r>    6.1487    0.0000 </r>
       <r>    6.2019    0.0000 </r>
       <r>    6.5497    0.0000 </r>
       <r>    7.5121    0.0000 </r>
       <r>    9.9223    0.0000 </r>
      </set>
      <set comment="kpoint 14">
       <r>  -29.9891    1.0000 </r>
       <r>  -29.9822    1.0000 </r>
       <r>  -29.9424    1.0000 </r>
       <r>  -21.6963    1.0000 </r>
       <r>  -13.5698    1.0000 </r>
       <r>  -13.0858    1.0000 </r>
       <r>  -13.0703    1.0000 </r>
       <r>   -7.0471    1.0000 </r>
       <r>   -7.0149    1.0000 </r>
       <r>   -6.7178    1.0000 </r>
       <r>   -1.1227    1.0000 </r>
       <r>   -0.7830    1.0000 </r>
       <r>   -0.6243    1.0000 </r>
       <r>    0.3744    1.0000 </r>
       <r>    0.5114    1.0000 </r>
       <r>    1.4144    1.0000 </r>
       <r>    1.9933    1.0000 </r>
       <r>    2.0418    1.0000 </r>
       <r>    2.8300    1.0000 </r>
       <r>    6.1785    0.0000 </r>
       <r>    6.3739    0.0000 </r>
       <r>    6.6754    0.0000 </r>
       <r>    7.5401    0.0000 </r>
       <r>   10.1657    0.0000 </r>
      </set>
      <set comment="kpoint 15">
       <r>  -29.9887    1.0000 </r>
       <r>  -29.9887    1.0000 </r>
       <r>  -29.9422    1.0000 </r>
       <r>  -21.6860    1.0000 </r>
       <r>  -13.4659    1.0000 </r>
       <r>  -13.1023    1.0000 </r>
       <r>  -13.1023    1.0000 </r>
       <r>   -7.0700    1.0000 </r>
       <r>   -7.0700    1.0000 </r>
       <r>   -6.6889    1.0000 </r>
       <r>   -1.2303    1.0000 </r>
       <r>   -0.9441    1.0000 </r>
       <r>   -0.7657    1.0000 </r>
       <r>    0.3994    1.0000 </r>
       <r>    0.3994    1.0000 </r>
       <r>    1.2917    1.0000 </r>
       <r>    2.1316    1.0000 </r>
       <r>    2.1316    1.0000 </r>
       <r>    2.9222    1.0000 </r>
       <r>    6.3752    0.0000 </r>
       <r>    6.3752    0.0000 </r>
       <r>    6.7777    0.0000 </r>
       <r>    7.5700    0.0000 </r>
       <r>   10.4173    0.0000 </r>
      </set>
      <set comment="kpoint 16">
       <r>  -29.9521    1.0000 </r>
       <r>  -29.9517    1.0000 </r>
       <r>  -29.9517    1.0000 </r>
       <r>  -21.8178    1.0000 </r>
       <r>  -13.8196    1.0000 </r>
       <r>  -13.1364    1.0000 </r>
       <r>  -13.1364    1.0000 </r>
       <r>   -7.0315    1.0000 </r>
       <r>   -7.0315    1.0000 </r>
       <r>   -6.8058    1.0000 </r>
       <r>    0.1475    1.0000 </r>
       <r>    0.5178    1.0000 </r>
       <r>    0.5178    1.0000 </r>
       <r>    1.3273    1.0000 </r>
       <r>    1.3273    1.0000 </r>
       <r>    1.9256    1.0000 </r>
       <r>    2.1001    1.0000 </r>
       <r>    2.5270    1.0000 </r>
       <r>    2.5270    1.0000 </r>
       <r>    5.1806    0.0000 </r>
       <r>    5.2468    0.0000 </r>
       <r>    5.2468    0.0000 </r>
       <r>    7.3968    0.0000 </r>
       <r>    7.3968    0.0000 </r>
      </set>
      <set comment="kpoint 17">
       <r>  -29.9680    1.0000 </r>
       <r>  -29.9513    1.0000 </r>
       <r>  -29.9510    1.0000 </r>
       <r>  -21.7841    1.0000 </r>
       <r>  -13.8150    1.0000 </r>
       <r>  -13.1178    1.0000 </r>
       <r>  -13.0953    1.0000 </r>
       <r>   -7.0219    1.0000 </r>
       <r>   -7.0166    1.0000 </r>
       <r>   -6.7129    1.0000 </r>
       <r>   -0.2818    1.0000 </r>
       <r>    0.2823    1.0000 </r>
       <r>    0.4394    1.0000 </r>
       <r>    0.9710    1.0000 </r>
       <r>    0.9829    1.0000 </r>
       <r>    1.5715    1.0000 </r>
       <r>    2.0757    1.0000 </r>
       <r>    2.3265    1.0000 </r>
       <r>    2.3611    1.0000 </r>
       <r>    5.2677    0.0000 </r>
       <r>    5.7118    0.0000 </r>
       <r>    5.7188    0.0000 </r>
       <r>    7.3925    0.0000 </r>
       <r>    8.2073    0.0000 </r>
      </set>
      <set comment="kpoint 18">
       <r>  -29.9841    1.0000 </r>
       <r>  -29.9506    1.0000 </r>
       <r>  -29.9504    1.0000 </r>
       <r>  -21.7498    1.0000 </r>
       <r>  -13.8597    1.0000 </r>
       <r>  -13.0992    1.0000 </r>
       <r>  -12.9952    1.0000 </r>
       <r>   -7.0130    1.0000 </r>
       <r>   -6.9205    1.0000 </r>
       <r>   -6.7073    1.0000 </r>
       <r>   -0.7595    1.0000 </r>
       <r>    0.1148    1.0000 </r>
       <r>    0.3338    1.0000 </r>
       <r>    0.4932    1.0000 </r>
       <r>    0.7956    1.0000 </r>
       <r>    1.5958    1.0000 </r>
       <r>    1.9432    1.0000 </r>
       <r>    2.1215    1.0000 </r>
       <r>    2.1410    1.0000 </r>
       <r>    5.3151    0.0000 </r>
       <r>    6.1950    0.0000 </r>
       <r>    6.2021    0.0000 </r>
       <r>    7.3834    0.0000 </r>
       <r>    8.8200    0.0000 </r>
      </set>
      <set comment="kpoint 19">
       <r>  -29.9907    1.0000 </r>
       <r>  -29.9503    1.0000 </r>
       <r>  -29.9501    1.0000 </r>
       <r>  -21.7354    1.0000 </r>
       <r>  -13.8882    1.0000 </r>
       <r>  -13.0914    1.0000 </r>
       <r>  -12.9406    1.0000 </r>
       <r>   -7.0096    1.0000 </r>
       <r>   -6.7946    1.0000 </r>
       <r>   -6.7929    1.0000 </r>
       <r>   -0.9682    1.0000 </r>
       <r>    0.1708    1.0000 </r>
       <r>    0.1947    1.0000 </r>
       <r>    0.2875    1.0000 </r>
       <r>    0.7382    1.0000 </r>
       <r>    1.7212    1.0000 </r>
       <r>    1.8793    1.0000 </r>
       <r>    1.9318    1.0000 </r>
       <r>    2.0673    1.0000 </r>
       <r>    5.3339    0.0000 </r>
       <r>    6.3981    0.0000 </r>
       <r>    6.3999    0.0000 </r>
       <r>    7.3765    0.0000 </r>
       <r>    9.0373    0.0000 </r>
      </set>
      <set comment="kpoint 20">
       <r>  -29.9675    1.0000 </r>
       <r>  -29.9669    1.0000 </r>
       <r>  -29.9505    1.0000 </r>
       <r>  -21.7544    1.0000 </r>
       <r>  -13.7360    1.0000 </r>
       <r>  -13.1142    1.0000 </r>
       <r>  -13.0771    1.0000 </r>
       <r>   -7.0862    1.0000 </r>
       <r>   -7.0387    1.0000 </r>
       <r>   -6.6653    1.0000 </r>
       <r>   -0.5077    1.0000 </r>
       <r>    0.0155    1.0000 </r>
       <r>    0.2438    1.0000 </r>
       <r>    0.5927    1.0000 </r>
       <r>    0.8810    1.0000 </r>
       <r>    1.2167    1.0000 </r>
       <r>    2.1193    1.0000 </r>
       <r>    2.1976    1.0000 </r>
       <r>    2.4590    1.0000 </r>
       <r>    5.7149    0.0000 </r>
       <r>    5.8034    0.0000 </r>
       <r>    5.9865    0.0000 </r>
       <r>    7.7673    0.0000 </r>
       <r>    8.7015    0.0000 </r>
      </set>
      <set comment="kpoint 21">
       <r>  -29.9832    1.0000 </r>
       <r>  -29.9664    1.0000 </r>
       <r>  -29.9499    1.0000 </r>
       <r>  -21.7242    1.0000 </r>
       <r>  -13.7051    1.0000 </r>
       <r>  -13.0848    1.0000 </r>
       <r>  -13.0291    1.0000 </r>
       <r>   -7.1056    1.0000 </r>
       <r>   -7.0132    1.0000 </r>
       <r>   -6.7172    1.0000 </r>
       <r>   -0.8351    1.0000 </r>
       <r>   -0.2339    1.0000 </r>
       <r>   -0.0240    1.0000 </r>
       <r>    0.3880    1.0000 </r>
       <r>    0.7085    1.0000 </r>
       <r>    1.2535    1.0000 </r>
       <r>    1.9550    1.0000 </r>
       <r>    2.1227    1.0000 </r>
       <r>    2.5012    1.0000 </r>
       <r>    5.7984    0.0000 </r>
       <r>    6.2323    0.0000 </r>
       <r>    6.3464    0.0000 </r>
       <r>    7.8364    0.0000 </r>
       <r>    9.2973    0.0000 </r>
      </set>
      <set comment="kpoint 22">
       <r>  -29.9897    1.0000 </r>
       <r>  -29.9661    1.0000 </r>
       <r>  -29.9496    1.0000 </r>
       <r>  -21.7116    1.0000 </r>
       <r>  -13.7073    1.0000 </r>
       <r>  -13.0672    1.0000 </r>
       <r>  -12.9968    1.0000 </r>
       <r>   -7.1158    1.0000 </r>
       <r>   -6.9547    1.0000 </r>
       <r>   -6.7864    1.0000 </r>
       <r>   -1.0188    1.0000 </r>
       <r>   -0.2836    1.0000 </r>
       <r>   -0.1394    1.0000 </r>
       <r>    0.3017    1.0000 </r>
       <r>    0.6629    1.0000 </r>
       <r>    1.3176    1.0000 </r>
       <r>    1.9605    1.0000 </r>
       <r>    1.9928    1.0000 </r>
       <r>    2.4932    1.0000 </r>
       <r>    5.8168    0.0000 </r>
       <r>    6.4250    0.0000 </r>
       <r>    6.5158    0.0000 </r>
       <r>    7.8424    0.0000 </r>
       <r>    9.5227    0.0000 </r>
      </set>
      <set comment="kpoint 23">
       <r>  -29.9824    1.0000 </r>
       <r>  -29.9821    1.0000 </r>
       <r>  -29.9492    1.0000 </r>
       <r>  -21.6983    1.0000 </r>
       <r>  -13.5542    1.0000 </r>
       <r>  -13.0902    1.0000 </r>
       <r>  -13.0337    1.0000 </r>
       <r>   -7.1423    1.0000 </r>
       <r>   -7.0971    1.0000 </r>
       <r>   -6.7842    1.0000 </r>
       <r>   -0.9817    1.0000 </r>
       <r>   -0.5388    1.0000 </r>
       <r>   -0.4650    1.0000 </r>
       <r>    0.4082    1.0000 </r>
       <r>    0.5693    1.0000 </r>
       <r>    1.0970    1.0000 </r>
       <r>    1.9674    1.0000 </r>
       <r>    2.2049    1.0000 </r>
       <r>    2.7616    1.0000 </r>
       <r>    6.2372    0.0000 </r>
       <r>    6.2830    0.0000 </r>
       <r>    6.5827    0.0000 </r>
       <r>    7.9860    0.0000 </r>
       <r>    9.9170    0.0000 </r>
      </set>
      <set comment="kpoint 24">
       <r>  -29.9888    1.0000 </r>
       <r>  -29.9819    1.0000 </r>
       <r>  -29.9490    1.0000 </r>
       <r>  -21.6875    1.0000 </r>
       <r>  -13.4987    1.0000 </r>
       <r>  -13.0642    1.0000 </r>
       <r>  -13.0551    1.0000 </r>
       <r>   -7.1621    1.0000 </r>
       <r>   -7.1060    1.0000 </r>
       <r>   -6.8310    1.0000 </r>
       <r>   -1.1209    1.0000 </r>
       <r>   -0.6205    1.0000 </r>
       <r>   -0.5916    1.0000 </r>
       <r>    0.3877    1.0000 </r>
       <r>    0.5320    1.0000 </r>
       <r>    1.0259    1.0000 </r>
       <r>    2.1272    1.0000 </r>
       <r>    2.1306    1.0000 </r>
       <r>    2.8332    1.0000 </r>
       <r>    6.2719    0.0000 </r>
       <r>    6.4489    0.0000 </r>
       <r>    6.7075    0.0000 </r>
       <r>    8.0087    0.0000 </r>
       <r>   10.1472    0.0000 </r>
      </set>
      <set comment="kpoint 25">
       <r>  -29.9884    1.0000 </r>
       <r>  -29.9884    1.0000 </r>
       <r>  -29.9487    1.0000 </r>
       <r>  -21.6774    1.0000 </r>
       <r>  -13.3933    1.0000 </r>
       <r>  -13.0797    1.0000 </r>
       <r>  -13.0797    1.0000 </r>
       <r>   -7.1655    1.0000 </r>
       <r>   -7.1655    1.0000 </r>
       <r>   -6.8636    1.0000 </r>
       <r>   -1.2274    1.0000 </r>
       <r>   -0.7634    1.0000 </r>
       <r>   -0.6902    1.0000 </r>
       <r>    0.4555    1.0000 </r>
       <r>    0.4555    1.0000 </r>
       <r>    0.8803    1.0000 </r>
       <r>    2.2210    1.0000 </r>
       <r>    2.2210    1.0000 </r>
       <r>    2.9347    1.0000 </r>
       <r>    6.4584    0.0000 </r>
       <r>    6.4584    0.0000 </r>
       <r>    6.8110    0.0000 </r>
       <r>    8.0325    0.0000 </r>
       <r>   10.5644    0.0000 </r>
      </set>
      <set comment="kpoint 26">
       <r>  -29.9670    1.0000 </r>
       <r>  -29.9662    1.0000 </r>
       <r>  -29.9662    1.0000 </r>
       <r>  -21.7275    1.0000 </r>
       <r>  -13.6207    1.0000 </r>
       <r>  -13.0805    1.0000 </r>
       <r>  -13.0804    1.0000 </r>
       <r>   -7.1780    1.0000 </r>
       <r>   -7.1780    1.0000 </r>
       <r>   -6.6627    1.0000 </r>
       <r>   -0.6532    1.0000 </r>
       <r>   -0.0025    1.0000 </r>
       <r>   -0.0025    1.0000 </r>
       <r>    0.5136    1.0000 </r>
       <r>    0.6952    1.0000 </r>
       <r>    0.6952    1.0000 </r>
       <r>    2.2968    1.0000 </r>
       <r>    2.2968    1.0000 </r>
       <r>    2.4560    1.0000 </r>
       <r>    6.0512    0.0000 </r>
       <r>    6.0674    0.0000 </r>
       <r>    6.0674    0.0000 </r>
       <r>    8.6841    0.0000 </r>
       <r>    8.6841    0.0000 </r>
      </set>
      <set comment="kpoint 27">
       <r>  -29.9823    1.0000 </r>
       <r>  -29.9659    1.0000 </r>
       <r>  -29.9655    1.0000 </r>
       <r>  -21.7003    1.0000 </r>
       <r>  -13.5432    1.0000 </r>
       <r>  -13.0455    1.0000 </r>
       <r>  -13.0402    1.0000 </r>
       <r>   -7.2707    1.0000 </r>
       <r>   -7.1914    1.0000 </r>
       <r>   -6.7924    1.0000 </r>
       <r>   -0.8689    1.0000 </r>
       <r>   -0.2892    1.0000 </r>
       <r>   -0.0190    1.0000 </r>
       <r>    0.1209    1.0000 </r>
       <r>    0.6025    1.0000 </r>
       <r>    0.7870    1.0000 </r>
       <r>    2.1778    1.0000 </r>
       <r>    2.3954    1.0000 </r>
       <r>    2.5327    1.0000 </r>
       <r>    6.1311    0.0000 </r>
       <r>    6.4094    0.0000 </r>
       <r>    6.4245    0.0000 </r>
       <r>    8.6575    0.0000 </r>
       <r>    9.4108    0.0000 </r>
      </set>
      <set comment="kpoint 28">
       <r>  -29.9889    1.0000 </r>
       <r>  -29.9656    1.0000 </r>
       <r>  -29.9653    1.0000 </r>
       <r>  -21.6889    1.0000 </r>
       <r>  -13.5265    1.0000 </r>
       <r>  -13.0309    1.0000 </r>
       <r>  -13.0061    1.0000 </r>
       <r>   -7.3094    1.0000 </r>
       <r>   -7.1416    1.0000 </r>
       <r>   -6.9025    1.0000 </r>
       <r>   -1.0441    1.0000 </r>
       <r>   -0.2169    1.0000 </r>
       <r>   -0.1368    1.0000 </r>
       <r>   -0.0245    1.0000 </r>
       <r>    0.5797    1.0000 </r>
       <r>    0.8629    1.0000 </r>
       <r>    2.1294    1.0000 </r>
       <r>    2.4049    1.0000 </r>
       <r>    2.5358    1.0000 </r>
       <r>    6.1581    0.0000 </r>
       <r>    6.5764    0.0000 </r>
       <r>    6.5831    0.0000 </r>
       <r>    8.6422    0.0000 </r>
       <r>    9.6677    0.0000 </r>
      </set>
      <set comment="kpoint 29">
       <r>  -29.9816    1.0000 </r>
       <r>  -29.9814    1.0000 </r>
       <r>  -29.9650    1.0000 </r>
       <r>  -21.6760    1.0000 </r>
       <r>  -13.3816    1.0000 </r>
       <r>  -13.0407    1.0000 </r>
       <r>  -13.0108    1.0000 </r>
       <r>   -7.3540    1.0000 </r>
       <r>   -7.3284    1.0000 </r>
       <r>   -6.9794    1.0000 </r>
       <r>   -0.9791    1.0000 </r>
       <r>   -0.5379    1.0000 </r>
       <r>   -0.1882    1.0000 </r>
       <r>    0.0703    1.0000 </r>
       <r>    0.5783    1.0000 </r>
       <r>    0.6496    1.0000 </r>
       <r>    2.3084    1.0000 </r>
       <r>    2.4577    1.0000 </r>
       <r>    2.7677    1.0000 </r>
       <r>    6.4765    0.0000 </r>
       <r>    6.4946    0.0000 </r>
       <r>    6.6628    0.0000 </r>
       <r>    8.9578    0.0000 </r>
       <r>    9.8693    0.0000 </r>
      </set>
      <set comment="kpoint 30">
       <r>  -29.9880    1.0000 </r>
       <r>  -29.9812    1.0000 </r>
       <r>  -29.9647    1.0000 </r>
       <r>  -21.6659    1.0000 </r>
       <r>  -13.3196    1.0000 </r>
       <r>  -13.0179    1.0000 </r>
       <r>  -13.0123    1.0000 </r>
       <r>   -7.4031    1.0000 </r>
       <r>   -7.3184    1.0000 </r>
       <r>   -7.1053    1.0000 </r>
       <r>   -1.1284    1.0000 </r>
       <r>   -0.6119    1.0000 </r>
       <r>   -0.1571    1.0000 </r>
       <r>    0.0051    1.0000 </r>
       <r>    0.5630    1.0000 </r>
       <r>    0.6454    1.0000 </r>
       <r>    2.3693    1.0000 </r>
       <r>    2.4692    1.0000 </r>
       <r>    2.8497    1.0000 </r>
       <r>    6.5132    0.0000 </r>
       <r>    6.6430    0.0000 </r>
       <r>    6.7866    0.0000 </r>
       <r>    8.9686    0.0000 </r>
       <r>   10.1224    0.0000 </r>
      </set>
      <set comment="kpoint 31">
       <r>  -29.9877    1.0000 </r>
       <r>  -29.9877    1.0000 </r>
       <r>  -29.9645    1.0000 </r>
       <r>  -21.6563    1.0000 </r>
       <r>  -13.2123    1.0000 </r>
       <r>  -13.0236    1.0000 </r>
       <r>  -13.0236    1.0000 </r>
       <r>   -7.3888    1.0000 </r>
       <r>   -7.3888    1.0000 </r>
       <r>   -7.2385    1.0000 </r>
       <r>   -1.2361    1.0000 </r>
       <r>   -0.7578    1.0000 </r>
       <r>   -0.1235    1.0000 </r>
       <r>    0.0554    1.0000 </r>
       <r>    0.5475    1.0000 </r>
       <r>    0.5475    1.0000 </r>
       <r>    2.4935    1.0000 </r>
       <r>    2.4935    1.0000 </r>
       <r>    2.9653    1.0000 </r>
       <r>    6.6686    0.0000 </r>
       <r>    6.6686    0.0000 </r>
       <r>    6.8930    0.0000 </r>
       <r>    8.9749    0.0000 </r>
       <r>   10.2868    0.0000 </r>
      </set>
      <set comment="kpoint 32">
       <r>  -29.9809    1.0000 </r>
       <r>  -29.9807    1.0000 </r>
       <r>  -29.9807    1.0000 </r>
       <r>  -21.6535    1.0000 </r>
       <r>  -13.2005    1.0000 </r>
       <r>  -12.9891    1.0000 </r>
       <r>  -12.9891    1.0000 </r>
       <r>   -7.5097    1.0000 </r>
       <r>   -7.5097    1.0000 </r>
       <r>   -7.2451    1.0000 </r>
       <r>   -1.0724    1.0000 </r>
       <r>   -0.5352    1.0000 </r>
       <r>   -0.5352    1.0000 </r>
       <r>    0.1747    1.0000 </r>
       <r>    0.5808    1.0000 </r>
       <r>    0.5808    1.0000 </r>
       <r>    2.6461    1.0000 </r>
       <r>    2.6461    1.0000 </r>
       <r>    2.8403    1.0000 </r>
       <r>    6.7440    0.0000 </r>
       <r>    6.7453    0.0000 </r>
       <r>    6.7453    0.0000 </r>
       <r>    9.7758    0.0000 </r>
       <r>    9.7758    0.0000 </r>
      </set>
      <set comment="kpoint 33">
       <r>  -29.9872    1.0000 </r>
       <r>  -29.9805    1.0000 </r>
       <r>  -29.9804    1.0000 </r>
       <r>  -21.6441    1.0000 </r>
       <r>  -13.1230    1.0000 </r>
       <r>  -12.9804    1.0000 </r>
       <r>  -12.9670    1.0000 </r>
       <r>   -7.5836    1.0000 </r>
       <r>   -7.5218    1.0000 </r>
       <r>   -7.3992    1.0000 </r>
       <r>   -1.2100    1.0000 </r>
       <r>   -0.6402    1.0000 </r>
       <r>   -0.5337    1.0000 </r>
       <r>    0.2435    1.0000 </r>
       <r>    0.5801    1.0000 </r>
       <r>    0.6068    1.0000 </r>
       <r>    2.6886    1.0000 </r>
       <r>    2.7804    1.0000 </r>
       <r>    2.9055    1.0000 </r>
       <r>    6.7793    0.0000 </r>
       <r>    6.8671    0.0000 </r>
       <r>    6.8689    0.0000 </r>
       <r>    9.6855    0.0000 </r>
       <r>    9.9858    0.0000 </r>
      </set>
      <set comment="kpoint 34">
       <r>  -29.9869    1.0000 </r>
       <r>  -29.9869    1.0000 </r>
       <r>  -29.9801    1.0000 </r>
       <r>  -21.6350    1.0000 </r>
       <r>  -13.0217    1.0000 </r>
       <r>  -12.9648    1.0000 </r>
       <r>  -12.9648    1.0000 </r>
       <r>   -7.6037    1.0000 </r>
       <r>   -7.6037    1.0000 </r>
       <r>   -7.5658    1.0000 </r>
       <r>   -1.3159    1.0000 </r>
       <r>   -0.7521    1.0000 </r>
       <r>   -0.5729    1.0000 </r>
       <r>    0.3951    1.0000 </r>
       <r>    0.5911    1.0000 </r>
       <r>    0.5911    1.0000 </r>
       <r>    2.8425    1.0000 </r>
       <r>    2.8425    1.0000 </r>
       <r>    2.9963    1.0000 </r>
       <r>    6.9023    0.0000 </r>
       <r>    6.9023    0.0000 </r>
       <r>    6.9770    0.0000 </r>
       <r>    9.5987    0.0000 </r>
       <r>   10.0097    0.0000 </r>
      </set>
      <set comment="kpoint 35">
       <r>  -29.9866    1.0000 </r>
       <r>  -29.9866    1.0000 </r>
       <r>  -29.9866    1.0000 </r>
       <r>  -21.6261    1.0000 </r>
       <r>  -12.9394    1.0000 </r>
       <r>  -12.9394    1.0000 </r>
       <r>  -12.9394    1.0000 </r>
       <r>   -7.6908    1.0000 </r>
       <r>   -7.6908    1.0000 </r>
       <r>   -7.6908    1.0000 </r>
       <r>   -1.4092    1.0000 </r>
       <r>   -0.7497    1.0000 </r>
       <r>   -0.7497    1.0000 </r>
       <r>    0.5989    1.0000 </r>
       <r>    0.5989    1.0000 </r>
       <r>    0.5989    1.0000 </r>
       <r>    3.0093    1.0000 </r>
       <r>    3.0093    1.0000 </r>
       <r>    3.0093    1.0000 </r>
       <r>    7.0124    0.0000 </r>
       <r>    7.0124    0.0000 </r>
       <r>    7.0124    0.0000 </r>
       <r>    9.6400    0.0000 </r>
       <r>    9.6400    0.0000 </r>
      </set>
     </set>
     <set comment="spin 2">
      <set comment="kpoint 1">
       <r>  -29.9455    1.0000 </r>
       <r>  -29.9455    1.0000 </r>
       <r>  -29.9455    1.0000 </r>
       <r>  -21.8614    1.0000 </r>
       <r>  -13.8441    1.0000 </r>
       <r>  -13.1498    1.0000 </r>
       <r>  -13.1498    1.0000 </r>
       <r>   -7.0315    1.0000 </r>
       <r>   -7.0315    1.0000 </r>
       <r>   -7.0315    1.0000 </r>
       <r>    0.7027    1.0000 </r>
       <r>    0.7027    1.0000 </r>
       <r>    0.7027    1.0000 </r>
       <r>    1.9600    1.0000 </r>
       <r>    1.9600    1.0000 </r>
       <r>    1.9600    1.0000 </r>
       <r>    2.8570    1.0000 </r>
       <r>    2.8570    1.0000 </r>
       <r>    2.8570    1.0000 </r>
       <r>    4.7017    0.0000 </r>
       <r>    4.7017    0.0000 </r>
       <r>    4.7017    0.0000 </r>
       <r>    6.7503    0.0000 </r>
       <r>    6.7503    0.0000 </r>
      </set>
      <set comment="kpoint 2">
       <r>  -29.9523    1.0000 </r>
       <r>  -29.9453    1.0000 </r>
       <r>  -29.9453    1.0000 </r>
       <r>  -21.8462    1.0000 </r>
       <r>  -13.8471    1.0000 </r>
       <r>  -13.1449    1.0000 </r>
       <r>  -13.1411    1.0000 </r>
       <r>   -7.0097    1.0000 </r>
       <r>   -7.0097    1.0000 </r>
       <r>   -6.9756    1.0000 </r>
       <r>    0.4565    1.0000 </r>
       <r>    0.6641    1.0000 </r>
       <r>    0.6641    1.0000 </r>
       <r>    1.7830    1.0000 </r>
       <r>    1.7830    1.0000 </r>
       <r>    1.8228    1.0000 </r>
       <r>    2.4687    1.0000 </r>
       <r>    2.7451    1.0000 </r>
       <r>    2.7451    1.0000 </r>
       <r>    4.7226    0.0000 </r>
       <r>    5.0102    0.0000 </r>
       <r>    5.0102    0.0000 </r>
       <r>    6.7513    0.0000 </r>
       <r>    7.1706    0.0000 </r>
      </set>
      <set comment="kpoint 3">
       <r>  -29.9686    1.0000 </r>
       <r>  -29.9447    1.0000 </r>
       <r>  -29.9447    1.0000 </r>
       <r>  -21.8090    1.0000 </r>
       <r>  -13.8965    1.0000 </r>
       <r>  -13.1328    1.0000 </r>
       <r>  -13.0702    1.0000 </r>
       <r>   -6.9559    1.0000 </r>
       <r>   -6.9559    1.0000 </r>
       <r>   -6.8423    1.0000 </r>
       <r>   -0.1270    1.0000 </r>
       <r>    0.5384    1.0000 </r>
       <r>    0.5384    1.0000 </r>
       <r>    1.4670    1.0000 </r>
       <r>    1.4670    1.0000 </r>
       <r>    1.5248    1.0000 </r>
       <r>    1.7814    1.0000 </r>
       <r>    2.5394    1.0000 </r>
       <r>    2.5394    1.0000 </r>
       <r>    4.7742    0.0000 </r>
       <r>    5.6278    0.0000 </r>
       <r>    5.6278    0.0000 </r>
       <r>    6.7533    0.0000 </r>
       <r>    7.9292    0.0000 </r>
      </set>
      <set comment="kpoint 4">
       <r>  -29.9848    1.0000 </r>
       <r>  -29.9440    1.0000 </r>
       <r>  -29.9440    1.0000 </r>
       <r>  -21.7711    1.0000 </r>
       <r>  -13.9852    1.0000 </r>
       <r>  -13.1206    1.0000 </r>
       <r>  -12.9478    1.0000 </r>
       <r>   -6.9001    1.0000 </r>
       <r>   -6.9001    1.0000 </r>
       <r>   -6.7111    1.0000 </r>
       <r>   -0.6913    1.0000 </r>
       <r>    0.3647    1.0000 </r>
       <r>    0.3647    1.0000 </r>
       <r>    1.2622    1.0000 </r>
       <r>    1.2679    1.0000 </r>
       <r>    1.2679    1.0000 </r>
       <r>    1.2696    1.0000 </r>
       <r>    2.3716    1.0000 </r>
       <r>    2.3716    1.0000 </r>
       <r>    4.8273    0.0000 </r>
       <r>    6.1613    0.0000 </r>
       <r>    6.1613    0.0000 </r>
       <r>    6.7554    0.0000 </r>
       <r>    8.5012    0.0000 </r>
      </set>
      <set comment="kpoint 5">
       <r>  -29.9914    1.0000 </r>
       <r>  -29.9438    1.0000 </r>
       <r>  -29.9437    1.0000 </r>
       <r>  -21.7553    1.0000 </r>
       <r>  -14.0282    1.0000 </r>
       <r>  -13.1157    1.0000 </r>
       <r>  -12.8867    1.0000 </r>
       <r>   -6.8764    1.0000 </r>
       <r>   -6.8764    1.0000 </r>
       <r>   -6.6573    1.0000 </r>
       <r>   -0.9190    1.0000 </r>
       <r>    0.2814    1.0000 </r>
       <r>    0.2814    1.0000 </r>
       <r>    1.0861    1.0000 </r>
       <r>    1.1614    1.0000 </r>
       <r>    1.2097    1.0000 </r>
       <r>    1.2097    1.0000 </r>
       <r>    2.3086    1.0000 </r>
       <r>    2.3086    1.0000 </r>
       <r>    4.8499    0.0000 </r>
       <r>    6.3695    0.0000 </r>
       <r>    6.3695    0.0000 </r>
       <r>    6.7562    0.0000 </r>
       <r>    8.7057    0.0000 </r>
      </set>
      <set comment="kpoint 6">
       <r>  -29.9522    1.0000 </r>
       <r>  -29.9518    1.0000 </r>
       <r>  -29.9450    1.0000 </r>
       <r>  -21.8317    1.0000 </r>
       <r>  -13.8380    1.0000 </r>
       <r>  -13.1439    1.0000 </r>
       <r>  -13.1342    1.0000 </r>
       <r>   -7.0357    1.0000 </r>
       <r>   -6.9873    1.0000 </r>
       <r>   -6.8962    1.0000 </r>
       <r>    0.3025    1.0000 </r>
       <r>    0.5413    1.0000 </r>
       <r>    0.6361    1.0000 </r>
       <r>    1.4144    1.0000 </r>
       <r>    1.6210    1.0000 </r>
       <r>    1.9691    1.0000 </r>
       <r>    2.2176    1.0000 </r>
       <r>    2.6136    1.0000 </r>
       <r>    2.6153    1.0000 </r>
       <r>    4.9845    0.0000 </r>
       <r>    5.0651    0.0000 </r>
       <r>    5.2040    0.0000 </r>
       <r>    6.9567    0.0000 </r>
[...]
        <r>  0.0000  0.0159  0.0000  0.0000  0.0000  0.0000  0.0000  0.0000  0.0000 </r>
        <r>  0.0000  0.0000  0.0000  0.0159  0.0000  0.0000  0.0000  0.0000  0.0000 </r>
        <r>  0.0000  0.0000  0.0000  0.0000  0.0000  0.0000  0.0000  0.0000  0.0000 </r>
       </set>
       <set comment="band 11">
        <r>  0.0000  0.0000  0.0000  0.0000  0.0010  0.0000  0.0000  0.0000  0.0000 </r>
        <r>  0.2114  0.0000  0.0031  0.0000  0.0000  0.0000  0.0188  0.0000  0.0000 </r>
        <r>  0.0000  0.0000  0.0000  0.2171  0.0000  0.0000  0.0000  0.0000  0.0000 </r>
        <r>  0.0000  0.2171  0.0000  0.0000  0.0000  0.0000  0.0000  0.0000  0.0000 </r>
        <r>  0.0018  0.0000  0.0883  0.0000  0.0000  0.0000  0.0000  0.0000  0.0000 </r>
       </set>
       <set comment="band 12">
        <r>  0.0000  0.0000  0.0000  0.0000  0.0000  0.0000  0.0000  0.0000  0.0000 </r>
        <r>  0.0000  0.0000  0.0000  0.0000  0.0000  0.0000  0.0000  0.0000  0.3961 </r>
        <r>  0.0000  0.0000  0.0000  0.2485  0.0000  0.0000  0.0000  0.0000  0.0000 </r>
        <r>  0.0000  0.2485  0.0000  0.0000  0.0000  0.0000  0.0000  0.0000  0.0000 </r>
        <r>  0.0000  0.0000  0.0000  0.0000  0.0000  0.0000  0.0000  0.0000  0.0000 </r>
       </set>
       <set comment="band 13">
        <r>  0.0000  0.0000  0.0000  0.0000  0.0004  0.0000  0.0000  0.0000  0.0000 </r>
        <r>  0.0067  0.0000  0.0125  0.0000  0.0000  0.0000  0.3541  0.0000  0.0000 </r>
        <r>  0.0000  0.0000  0.0000  0.0391  0.0000  0.0000  0.0000  0.0000  0.0000 </r>
        <r>  0.0000  0.0391  0.0000  0.0000  0.0000  0.0000  0.0000  0.0000  0.0000 </r>
        <r>  0.0008  0.0000  0.4286  0.0000  0.0000  0.0000  0.0000  0.0000  0.0000 </r>
       </set>
       <set comment="band 14">
        <r>  0.0044  0.0000  0.1345  0.0000  0.0000  0.0000  0.0036  0.0000  0.0000 </r>
        <r>  0.0000  0.0000  0.0000  0.0000  0.1667  0.0000  0.0000  0.0000  0.0000 </r>
        <r>  0.0000  0.2159  0.0000  0.0000  0.0000  0.0000  0.0000  0.0000  0.0000 </r>
        <r>  0.0000  0.0000  0.0000  0.2159  0.0000  0.0000  0.0000  0.0000  0.0000 </r>
        <r>  0.0000  0.0000  0.0000  0.0000  0.0000  0.0000  0.0000  0.0000  0.0000 </r>
       </set>
       <set comment="band 15">
        <r>  0.0000  0.0790  0.0000  0.0570  0.0000  0.0030  0.0000  0.0022  0.0000 </r>
        <r>  0.0000  0.0001  0.0000  0.0001  0.0000  0.0716  0.0000  0.0992  0.0000 </r>
        <r>  0.0001  0.0000  0.1431  0.0000  0.0000  0.0000  0.0000  0.0000  0.0000 </r>
        <r>  0.0001  0.0000  0.1032  0.0000  0.0000  0.0000  0.0000  0.0000  0.0000 </r>
        <r>  0.0000  0.0804  0.0000  0.1115  0.0000  0.0000  0.0000  0.0000  0.0000 </r>
       </set>
       <set comment="band 16">
        <r>  0.0000  0.0570  0.0000  0.0791  0.0000  0.0022  0.0000  0.0030  0.0000 </r>
        <r>  0.0000  0.0001  0.0000  0.0001  0.0000  0.0992  0.0000  0.0716  0.0000 </r>
        <r>  0.0001  0.0000  0.1032  0.0000  0.0000  0.0000  0.0000  0.0000  0.0000 </r>
        <r>  0.0001  0.0000  0.1431  0.0000  0.0000  0.0000  0.0000  0.0000  0.0000 </r>
        <r>  0.0000  0.1115  0.0000  0.0804  0.0000  0.0000  0.0000  0.0000  0.0000 </r>
       </set>
       <set comment="band 17">
        <r>  0.0000  0.0007  0.0000  0.0007  0.0000  0.0040  0.0000  0.0039  0.0000 </r>
        <r>  0.0000  0.0006  0.0000  0.0006  0.0000  0.0000  0.0000  0.0000  0.0000 </r>
        <r>  0.0008  0.0000  0.1643  0.0000  0.0000  0.0000  0.0000  0.0000  0.0000 </r>
        <r>  0.0007  0.0000  0.1601  0.0000  0.0000  0.0000  0.0000  0.0000  0.0000 </r>
        <r>  0.0000  0.2030  0.0000  0.2083  0.0000  0.0000  0.0000  0.0000  0.0000 </r>
       </set>
       <set comment="band 18">
        <r>  0.0000  0.0007  0.0000  0.0007  0.0000  0.0039  0.0000  0.0040  0.0000 </r>
        <r>  0.0000  0.0006  0.0000  0.0006  0.0000  0.0000  0.0000  0.0000  0.0000 </r>
        <r>  0.0007  0.0000  0.1601  0.0000  0.0000  0.0000  0.0000  0.0000  0.0000 </r>
        <r>  0.0008  0.0000  0.1643  0.0000  0.0000  0.0000  0.0000  0.0000  0.0000 </r>
        <r>  0.0000  0.2083  0.0000  0.2030  0.0000  0.0000  0.0000  0.0000  0.0000 </r>
       </set>
       <set comment="band 19">
        <r>  0.0000  0.0000  0.0000  0.0000  0.0000  0.0000  0.0000  0.0000  0.0029 </r>
        <r>  0.0000  0.0000  0.0000  0.0000  0.0000  0.0000  0.0000  0.0000  0.0000 </r>
        <r>  0.0000  0.3780  0.0000  0.0000  0.0000  0.0000  0.0000  0.0000  0.0000 </r>
        <r>  0.0000  0.0000  0.0000  0.3780  0.0000  0.0000  0.0000  0.0000  0.0000 </r>
        <r>  0.0000  0.0000  0.0000  0.0000  0.0000  0.0000  0.0000  0.0000  0.0000 </r>
       </set>
       <set comment="band 20">
        <r>  0.0000  0.0029  0.0000  0.0031  0.0000  0.0002  0.0000  0.0002  0.0000 </r>
        <r>  0.0000  0.0003  0.0000  0.0003  0.0000  0.3983  0.0000  0.3662  0.0000 </r>
        <r>  0.0002  0.0000  0.0462  0.0000  0.0000  0.0000  0.0000  0.0000  0.0000 </r>
        <r>  0.0002  0.0000  0.0502  0.0000  0.0000  0.0000  0.0000  0.0000  0.0000 </r>
        <r>  0.0000  0.0340  0.0000  0.0313  0.0000  0.0000  0.0000  0.0000  0.0000 </r>
       </set>
       <set comment="band 21">
        <r>  0.0000  0.0031  0.0000  0.0029  0.0000  0.0002  0.0000  0.0002  0.0000 </r>
        <r>  0.0000  0.0003  0.0000  0.0003  0.0000  0.3662  0.0000  0.3983  0.0000 </r>
        <r>  0.0002  0.0000  0.0502  0.0000  0.0000  0.0000  0.0000  0.0000  0.0000 </r>
        <r>  0.0002  0.0000  0.0462  0.0000  0.0000  0.0000  0.0000  0.0000  0.0000 </r>
        <r>  0.0000  0.0313  0.0000  0.0340  0.0000  0.0000  0.0000  0.0000  0.0000 </r>
       </set>
       <set comment="band 22">
        <r>  0.0005  0.0000  0.0047  0.0000  0.0000  0.0000  0.0045  0.0000  0.0000 </r>
        <r>  0.0000  0.0000  0.0000  0.0000  0.7790  0.0000  0.0000  0.0000  0.0000 </r>
        <r>  0.0000  0.0742  0.0000  0.0000  0.0000  0.0000  0.0000  0.0000  0.0000 </r>
        <r>  0.0000  0.0000  0.0000  0.0742  0.0000  0.0000  0.0000  0.0000  0.0000 </r>
        <r>  0.0000  0.0000  0.0000  0.0000  0.0000  0.0000  0.0000  0.0000  0.0000 </r>
       </set>
       <set comment="band 23">
        <r>  0.0000  0.0000  0.0000  0.0000  0.3661  0.0000  0.0000  0.0000  0.0000 </r>
        <r>  0.0008  0.0000  0.0337  0.0000  0.0000  0.0000  0.1937  0.0000  0.0000 </r>
        <r>  0.0000  0.0000  0.0000  0.0033  0.0000  0.0000  0.0000  0.0000  0.0000 </r>
        <r>  0.0000  0.0033  0.0000  0.0000  0.0000  0.0000  0.0000  0.0000  0.0000 </r>
        <r>  0.0704  0.0000  0.0433  0.0000  0.0000  0.0000  0.0000  0.0000  0.0000 </r>
       </set>
       <set comment="band 24">
        <r>  0.0000  0.0013  0.0000  0.0013  0.0000  0.2537  0.0000  0.2575  0.0000 </r>
        <r>  0.0000  0.0134  0.0000  0.0132  0.0000  0.0046  0.0000  0.0045  0.0000 </r>
        <r>  0.0333  0.0000  0.0086  0.0000  0.0000  0.0000  0.0000  0.0000  0.0000 </r>
        <r>  0.0338  0.0000  0.0088  0.0000  0.0000  0.0000  0.0000  0.0000  0.0000 </r>
        <r>  0.0000  0.0027  0.0000  0.0027  0.0000  0.0000  0.0000  0.0000  0.0000 </r>
       </set>
      </set>
      <set comment="kpoint 35">
       <set comment="band 1">
        <r>  0.0000  0.0000  0.0000  0.0000  0.0001  0.0000  0.0000  0.0000  0.0000 </r>
        <r>  0.0000  0.0000  0.9795  0.0000  0.0000  0.0000  0.0000  0.0000  0.0000 </r>
        <r>  0.0000  0.0000  0.0000  0.0000  0.0000  0.0000  0.0000  0.0000  0.0000 </r>
        <r>  0.0000  0.0000  0.0000  0.0000  0.0000  0.0000  0.0000  0.0000  0.0000 </r>
        <r>  0.0071  0.0000  0.0000  0.0000  0.0000  0.0000  0.0000  0.0000  0.0000 </r>
       </set>
       <set comment="band 2">
        <r>  0.0000  0.0000  0.0000  0.0000  0.0000  0.0000  0.0000  0.0000  0.0000 </r>
        <r>  0.0000  0.3407  0.0000  0.6388  0.0000  0.0000  0.0000  0.0000  0.0000 </r>
        <r>  0.0047  0.0000  0.0000  0.0000  0.0000  0.0000  0.0000  0.0000  0.0000 </r>
        <r>  0.0025  0.0000  0.0000  0.0000  0.0000  0.0000  0.0000  0.0000  0.0000 </r>
        <r>  0.0000  0.0000  0.0000  0.0000  0.0000  0.0000  0.0000  0.0000  0.0000 </r>
       </set>
       <set comment="band 3">
        <r>  0.0000  0.0000  0.0000  0.0000  0.0000  0.0000  0.0000  0.0000  0.0000 </r>
        <r>  0.0000  0.6387  0.0000  0.3407  0.0000  0.0000  0.0000  0.0000  0.0000 </r>
        <r>  0.0025  0.0000  0.0000  0.0000  0.0000  0.0000  0.0000  0.0000  0.0000 </r>
        <r>  0.0047  0.0000  0.0000  0.0000  0.0000  0.0000  0.0000  0.0000  0.0000 </r>
        <r>  0.0000  0.0000  0.0000  0.0000  0.0000  0.0000  0.0000  0.0000  0.0000 </r>
       </set>
       <set comment="band 4">
        <r>  0.9815  0.0000  0.0000  0.0000  0.0000  0.0000  0.0000  0.0000  0.0000 </r>
        <r>  0.0000  0.0000  0.0000  0.0000  0.0000  0.0000  0.0000  0.0000  0.0000 </r>
        <r>  0.0000  0.0000  0.0000  0.0000  0.0000  0.0000  0.0000  0.0000  0.0000 </r>
        <r>  0.0000  0.0000  0.0000  0.0000  0.0000  0.0000  0.0000  0.0000  0.0000 </r>
        <r>  0.0000  0.0000  0.0000  0.0000  0.0000  0.0000  0.0000  0.0000  0.0000 </r>
       </set>
       <set comment="band 5">
        <r>  0.0000  0.0000  0.0000  0.0000  0.0000  0.0042  0.0000  0.0023  0.0000 </r>
        <r>  0.0000  0.0142  0.0000  0.0262  0.0000  0.0000  0.0000  0.0000  0.0000 </r>
        <r>  0.5011  0.0000  0.0000  0.0000  0.0000  0.0000  0.0000  0.0000  0.0000 </r>
        <r>  0.2714  0.0000  0.0000  0.0000  0.0000  0.0000  0.0000  0.0000  0.0000 </r>
        <r>  0.0000  0.0000  0.0000  0.0000  0.0000  0.0000  0.0000  0.0000  0.0000 </r>
       </set>
       <set comment="band 6">
        <r>  0.0000  0.0000  0.0000  0.0000  0.0000  0.0023  0.0000  0.0042  0.0000 </r>
        <r>  0.0000  0.0262  0.0000  0.0142  0.0000  0.0000  0.0000  0.0000  0.0000 </r>
        <r>  0.2714  0.0000  0.0000  0.0000  0.0000  0.0000  0.0000  0.0000  0.0000 </r>
        <r>  0.5011  0.0000  0.0000  0.0000  0.0000  0.0000  0.0000  0.0000  0.0000 </r>
        <r>  0.0000  0.0000  0.0000  0.0000  0.0000  0.0000  0.0000  0.0000  0.0000 </r>
       </set>
       <set comment="band 7">
        <r>  0.0000  0.0000  0.0000  0.0000  0.0064  0.0000  0.0000  0.0000  0.0000 </r>
        <r>  0.0000  0.0000  0.0404  0.0000  0.0000  0.0000  0.0000  0.0000  0.0000 </r>
        <r>  0.0000  0.0000  0.0000  0.0000  0.0000  0.0000  0.0000  0.0000  0.0000 </r>
        <r>  0.0000  0.0000  0.0000  0.0000  0.0000  0.0000  0.0000  0.0000  0.0000 </r>
        <r>  0.7724  0.0000  0.0000  0.0000  0.0000  0.0000  0.0000  0.0000  0.0000 </r>
       </set>
       <set comment="band 8">
        <r>  0.0000  0.7598  0.0000  0.0394  0.0000  0.0000  0.0000  0.0000  0.0000 </r>
        <r>  0.0000  0.0000  0.0000  0.0000  0.0000  0.0004  0.0000  0.0078  0.0000 </r>
        <r>  0.0000  0.0000  0.0165  0.0000  0.0000  0.0000  0.0000  0.0000  0.0000 </r>
        <r>  0.0000  0.0000  0.0009  0.0000  0.0000  0.0000  0.0000  0.0000  0.0000 </r>
        <r>  0.0000  0.0009  0.0000  0.0165  0.0000  0.0000  0.0000  0.0000  0.0000 </r>
       </set>
       <set comment="band 9">
        <r>  0.0000  0.0394  0.0000  0.7598  0.0000  0.0000  0.0000  0.0000  0.0000 </r>
        <r>  0.0000  0.0000  0.0000  0.0000  0.0000  0.0078  0.0000  0.0004  0.0000 </r>
        <r>  0.0000  0.0000  0.0009  0.0000  0.0000  0.0000  0.0000  0.0000  0.0000 </r>
        <r>  0.0000  0.0000  0.0165  0.0000  0.0000  0.0000  0.0000  0.0000  0.0000 </r>
        <r>  0.0000  0.0165  0.0000  0.0009  0.0000  0.0000  0.0000  0.0000  0.0000 </r>
       </set>
       <set comment="band 10">
        <r>  0.0000  0.0000  0.7992  0.0000  0.0000  0.0000  0.0000  0.0000  0.0000 </r>
        <r>  0.0000  0.0000  0.0000  0.0000  0.0082  0.0000  0.0000  0.0000  0.0000 </r>
        <r>  0.0000  0.0174  0.0000  0.0000  0.0000  0.0000  0.0000  0.0000  0.0000 </r>
        <r>  0.0000  0.0000  0.0000  0.0174  0.0000  0.0000  0.0000  0.0000  0.0000 </r>
        <r>  0.0000  0.0000  0.0000  0.0000  0.0000  0.0000  0.0000  0.0000  0.0000 </r>
       </set>
       <set comment="band 11">
        <r>  0.0000  0.0000  0.0000  0.0000  0.0000  0.0000  0.0000  0.0000  0.0000 </r>
        <r>  0.2281  0.0000  0.0000  0.0000  0.0000  0.0000  0.0000  0.0000  0.0000 </r>
        <r>  0.0000  0.0000  0.0000  0.1740  0.0000  0.0000  0.0000  0.0000  0.0000 </r>
        <r>  0.0000  0.1740  0.0000  0.0000  0.0000  0.0000  0.0000  0.0000  0.0000 </r>
        <r>  0.0000  0.0000  0.1740  0.0000  0.0000  0.0000  0.0000  0.0000  0.0000 </r>
       </set>
       <set comment="band 12">
        <r>  0.0000  0.0000  0.0000  0.0000  0.0000  0.0000  0.0000  0.0000  0.0000 </r>
        <r>  0.0000  0.0000  0.0000  0.0000  0.0000  0.0000  0.0000  0.0000  0.3962 </r>
        <r>  0.0000  0.0000  0.0000  0.2486  0.0000  0.0000  0.0000  0.0000  0.0000 </r>
        <r>  0.0000  0.2486  0.0000  0.0000  0.0000  0.0000  0.0000  0.0000  0.0000 </r>
        <r>  0.0000  0.0000  0.0000  0.0000  0.0000  0.0000  0.0000  0.0000  0.0000 </r>
       </set>
       <set comment="band 13">
        <r>  0.0000  0.0000  0.0000  0.0000  0.0000  0.0000  0.0000  0.0000  0.0000 </r>
        <r>  0.0000  0.0000  0.0000  0.0000  0.0000  0.0000  0.3962  0.0000  0.0000 </r>
        <r>  0.0000  0.0000  0.0000  0.0829  0.0000  0.0000  0.0000  0.0000  0.0000 </r>
        <r>  0.0000  0.0829  0.0000  0.0000  0.0000  0.0000  0.0000  0.0000  0.0000 </r>
        <r>  0.0000  0.0000  0.3315  0.0000  0.0000  0.0000  0.0000  0.0000  0.0000 </r>
       </set>
       <set comment="band 14">
        <r>  0.0000  0.0000  0.1484  0.0000  0.0000  0.0000  0.0000  0.0000  0.0000 </r>
        <r>  0.0000  0.0000  0.0000  0.0000  0.1737  0.0000  0.0000  0.0000  0.0000 </r>
        <r>  0.0000  0.2179  0.0000  0.0000  0.0000  0.0000  0.0000  0.0000  0.0000 </r>
        <r>  0.0000  0.0000  0.0000  0.2179  0.0000  0.0000  0.0000  0.0000  0.0000 </r>
        <r>  0.0000  0.0000  0.0000  0.0000  0.0000  0.0000  0.0000  0.0000  0.0000 </r>
       </set>
       <set comment="band 15">
        <r>  0.0000  0.0475  0.0000  0.1009  0.0000  0.0000  0.0000  0.0000  0.0000 </r>
        <r>  0.0000  0.0000  0.0000  0.0000  0.0000  0.1181  0.0000  0.0556  0.0000 </r>
        <r>  0.0000  0.0000  0.0697  0.0000  0.0000  0.0000  0.0000  0.0000  0.0000 </r>
        <r>  0.0000  0.0000  0.1481  0.0000  0.0000  0.0000  0.0000  0.0000  0.0000 </r>
        <r>  0.0000  0.1481  0.0000  0.0697  0.0000  0.0000  0.0000  0.0000  0.0000 </r>
       </set>
       <set comment="band 16">
        <r>  0.0000  0.1009  0.0000  0.0475  0.0000  0.0000  0.0000  0.0000  0.0000 </r>
        <r>  0.0000  0.0000  0.0000  0.0000  0.0000  0.0556  0.0000  0.1181  0.0000 </r>
        <r>  0.0000  0.0000  0.1481  0.0000  0.0000  0.0000  0.0000  0.0000  0.0000 </r>
        <r>  0.0000  0.0000  0.0697  0.0000  0.0000  0.0000  0.0000  0.0000  0.0000 </r>
        <r>  0.0000  0.0697  0.0000  0.1481  0.0000  0.0000  0.0000  0.0000  0.0000 </r>
       </set>
       <set comment="band 17">
        <r>  0.0000  0.0000  0.0000  0.0000  0.0000  0.0000  0.0000  0.0000  0.0000 </r>
        <r>  0.0000  0.0000  0.0000  0.0000  0.0000  0.0000  0.0000  0.0000  0.0000 </r>
        <r>  0.0000  0.3792  0.0000  0.0000  0.0000  0.0000  0.0000  0.0000  0.0000 </r>
        <r>  0.0000  0.0000  0.0000  0.3792  0.0000  0.0000  0.0000  0.0000  0.0000 </r>
        <r>  0.0000  0.0000  0.0000  0.0000  0.0000  0.0000  0.0000  0.0000  0.0000 </r>
       </set>
       <set comment="band 18">
        <r>  0.0000  0.0000  0.0000  0.0000  0.0000  0.0000  0.0000  0.0000  0.0000 </r>
        <r>  0.0000  0.0000  0.0000  0.0000  0.0000  0.0000  0.0000  0.0000  0.0000 </r>
        <r>  0.0000  0.0000  0.0676  0.0000  0.0000  0.0000  0.0000  0.0000  0.0000 </r>
        <r>  0.0000  0.0000  0.3116  0.0000  0.0000  0.0000  0.0000  0.0000  0.0000 </r>
        <r>  0.0000  0.3116  0.0000  0.0676  0.0000  0.0000  0.0000  0.0000  0.0000 </r>
       </set>
       <set comment="band 19">
        <r>  0.0000  0.0000  0.0000  0.0000  0.0000  0.0000  0.0000  0.0000  0.0000 </r>
        <r>  0.0000  0.0000  0.0000  0.0000  0.0000  0.0000  0.0000  0.0000  0.0000 </r>
        <r>  0.0000  0.0000  0.3116  0.0000  0.0000  0.0000  0.0000  0.0000  0.0000 </r>
        <r>  0.0000  0.0000  0.0676  0.0000  0.0000  0.0000  0.0000  0.0000  0.0000 </r>
        <r>  0.0000  0.0676  0.0000  0.3116  0.0000  0.0000  0.0000  0.0000  0.0000 </r>
       </set>
       <set comment="band 20">
        <r>  0.0000  0.0023  0.0000  0.0035  0.0000  0.0000  0.0000  0.0000  0.0000 </r>
        <r>  0.0000  0.0000  0.0000  0.0000  0.0000  0.4699  0.0000  0.3028  0.0000 </r>
        <r>  0.0000  0.0000  0.0316  0.0000  0.0000  0.0000  0.0000  0.0000  0.0000 </r>
        <r>  0.0000  0.0000  0.0490  0.0000  0.0000  0.0000  0.0000  0.0000  0.0000 </r>
        <r>  0.0000  0.0490  0.0000  0.0316  0.0000  0.0000  0.0000  0.0000  0.0000 </r>
       </set>
       <set comment="band 21">
        <r>  0.0000  0.0028  0.0012  0.0018  0.0000  0.0000  0.0000  0.0000  0.0000 </r>
        <r>  0.0000  0.0000  0.0000  0.0000  0.1538  0.2422  0.0000  0.3768  0.0000 </r>
        <r>  0.0000  0.0160  0.0393  0.0000  0.0000  0.0000  0.0000  0.0000  0.0000 </r>
        <r>  0.0000  0.0000  0.0252  0.0160  0.0000  0.0000  0.0000  0.0000  0.0000 </r>
        <r>  0.0000  0.0252  0.0000  0.0393  0.0000  0.0000  0.0000  0.0000  0.0000 </r>
       </set>
       <set comment="band 22">
        <r>  0.0000  0.0007  0.0046  0.0005  0.0000  0.0000  0.0000  0.0000  0.0000 </r>
        <r>  0.0000  0.0000  0.0000  0.0000  0.6190  0.0606  0.0000  0.0932  0.0000 </r>
        <r>  0.0000  0.0645  0.0097  0.0000  0.0000  0.0000  0.0000  0.0000  0.0000 </r>
        <r>  0.0000  0.0000  0.0063  0.0645  0.0000  0.0000  0.0000  0.0000  0.0000 </r>
        <r>  0.0000  0.0063  0.0000  0.0097  0.0000  0.0000  0.0000  0.0000  0.0000 </r>
       </set>
       <set comment="band 23">
        <r>  0.0000  0.0000  0.0000  0.0000  0.0000  0.3408  0.0000  0.1756  0.0000 </r>
        <r>  0.0000  0.0097  0.0000  0.0189  0.0000  0.0000  0.0000  0.0000  0.0000 </r>
        <r>  0.0490  0.0000  0.0000  0.0000  0.0000  0.0000  0.0000  0.0000  0.0000 </r>
        <r>  0.0253  0.0000  0.0000  0.0000  0.0000  0.0000  0.0000  0.0000  0.0000 </r>
        <r>  0.0000  0.0000  0.0000  0.0000  0.0000  0.0000  0.0000  0.0000  0.0000 </r>
       </set>
       <set comment="band 24">
        <r>  0.0000  0.0000  0.0000  0.0000  0.4600  0.0188  0.0000  0.0376  0.0000 </r>
        <r>  0.0000  0.0021  0.0255  0.0010  0.0000  0.0000  0.0000  0.0000  0.0000 </r>
        <r>  0.0027  0.0000  0.0000  0.0000  0.0000  0.0000  0.0000  0.0000  0.0000 </r>
        <r>  0.0054  0.0000  0.0000  0.0000  0.0000  0.0000  0.0000  0.0000  0.0000 </r>
        <r>  0.0662  0.0000  0.0000  0.0000  0.0000  0.0000  0.0000  0.0000  0.0000 </r>
       </set>
      </set>
     </set>
    </set>
   </array>
  </projected>
 </calculation>
 <structure name="finalpos" >
  <crystal>
   <varray name="basis" >
    <v>       4.03304400       0.00000000       0.00000000 </v>
    <v>       0.00000000       4.03304400       0.00000000 </v>
    <v>       0.00000000       0.00000000       4.03304400 </v>
   </varray>
   <i name="volume">     65.59925095 </i>
   <varray name="rec_basis" >
    <v>       0.24795167       0.00000000       0.00000000 </v>
    <v>       0.00000000       0.24795167       0.00000000 </v>
    <v>       0.00000000       0.00000000       0.24795167 </v>
   </varray>
  </crystal>
  <varray name="positions" >
   <v>       0.00000000       0.00000000       0.00280000 </v>
   <v>       0.50000000       0.50000000       0.50280000 </v>
   <v>       0.00000000       0.50000000       0.50280000 </v>
   <v>       0.50000000       0.00000000       0.50280000 </v>
   <v>       0.50000000       0.50000000       0.00280000 </v>
  </varray>
 </structure>
</modeling>
