unknown system                          
   1.00000000000000     
     0.000000    2.000087    2.000087
     2.000087    0.000000    2.000087
     2.000087    2.000087    0.000000
   Li   H 
     1     1
Direct
  0.000000  0.000000  0.000000
  0.500000  0.500000  0.500000
 
   48   48   48
 0.17131895187E+03 0.16612449795E+03 0.15140129189E+03 0.12950922953E+03 0.10372241173E+03
 0.77474200079E+02 0.53665487098E+02 0.34215051062E+02 0.19920610773E+02 0.10588485580E+02
 0.53247313013E+01 0.28747571476E+01 0.19322947862E+01 0.14917840939E+01 0.12535599947E+01
 0.11303245832E+01 0.10741715667E+01 0.10574761511E+01 0.10626511400E+01 0.10775688425E+01
 0.10940619105E+01 0.11075386083E+01 0.11164374988E+01 0.11211240551E+01 0.11225376562E+01
 0.11211240551E+01 0.11164374988E+01 0.11075386083E+01 0.10940619105E+01 0.10775688425E+01
 0.10626511400E+01 0.10574761511E+01 0.10741715667E+01 0.11303245832E+01 0.12535599947E+01
 0.14917840939E+01 0.19322947862E+01 0.28747571476E+01 0.53247313013E+01 0.10588485580E+02
 0.19920610773E+02 0.34215051062E+02 0.53665487098E+02 0.77474200079E+02 0.10372241173E+03
 0.12950922953E+03 0.15140129189E+03 0.16612449795E+03 0.16612449795E+03 0.15616949113E+03
 0.13789013478E+03 0.11413442699E+03 0.88282128307E+02 0.63508530069E+02 0.42209101213E+02
 0.25709891573E+02 0.14273382005E+02 0.73195448725E+01 0.37478396731E+01 0.22632378844E+01
 0.16665066890E+01 0.13481280483E+01 0.11787665691E+01 0.10954047984E+01 0.10627627982E+01
 0.10594448687E+01 0.10711087821E+01 0.10878032845E+01 0.11032663826E+01 0.11145719194E+01
 0.11213047780E+01 0.11242789817E+01 0.11242789817E+01 0.11213047780E+01 0.11145719194E+01
 0.11032663826E+01 0.10878032845E+01 0.10711087821E+01 0.10594448687E+01 0.10627627982E+01
 0.10954047984E+01 0.11787665691E+01 0.13481280483E+01 0.16665066890E+01 0.22632378844E+01
 0.37478396731E+01 0.73195448725E+01 0.14273382005E+02 0.25709891573E+02 0.42209101213E+02
 0.63508530069E+02 0.88282128307E+02 0.11413442699E+03 0.13789013478E+03 0.15616949113E+03
 0.16612449795E+03 0.15140129189E+03 0.13789013478E+03 0.11781249118E+03 0.94186790197E+02
 0.70175929257E+02 0.48448232819E+02 0.30761860090E+02 0.17835968206E+02 0.94702397737E+01
 0.48148352459E+01 0.26872905727E+01 0.18633725435E+01 0.14580901498E+01 0.12383752901E+01
 0.11252283850E+01 0.10748069517E+01 0.10614349955E+01 0.10685087240E+01 0.10844726454E+01
 0.11015416476E+01 0.11153709917E+01 0.11245188973E+01 0.11293716148E+01 0.11308454803E+01
 0.11293716148E+01 0.11245188973E+01 0.11153709917E+01 0.11015416476E+01 0.10844726454E+01
 0.10685087240E+01 0.10614349955E+01 0.10748069517E+01 0.11252283850E+01 0.12383752901E+01
 0.14580901498E+01 0.18633725435E+01 0.26872905727E+01 0.48148352459E+01 0.94702397737E+01
 0.17835968206E+02 0.30761860090E+02 0.48448232819E+02 0.70175929257E+02 0.94186790197E+02
 0.11781249118E+03 0.13789013478E+03 0.15140129189E+03 0.15616949113E+03 0.12950922953E+03
 0.11413442699E+03 0.94186790197E+02 0.72536157153E+02 0.51872757872E+02 0.34215958815E+02
 0.20666391248E+02 0.11410176450E+02 0.59083182808E+01 0.31756718588E+01 0.20675707058E+01
 0.15754667657E+01 0.13049467525E+01 0.11613285097E+01 0.10923952199E+01 0.10680915569E+01
 0.10695875542E+01 0.10839403339E+01 0.11020955740E+01 0.11183994690E+01 0.11302745255E+01
 0.11374219555E+01 0.11406295568E+01 0.11406295568E+01 0.11374219555E+01 0.11302745255E+01
 0.11183994690E+01 0.11020955740E+01 0.10839403339E+01 0.10695875542E+01 0.10680915569E+01
 0.10923952199E+01 0.11613285097E+01 0.13049467525E+01 0.15754667657E+01 0.20675707058E+01
 0.31756718588E+01 0.59083182808E+01 0.11410176450E+02 0.20666391248E+02 0.34215958815E+02
 0.51872757872E+02 0.72536157153E+02 0.94186790197E+02 0.11413442699E+03 0.12950922953E+03
 0.13789013478E+03 0.13789013478E+03 0.10372241173E+03 0.88282128307E+02 0.70175929257E+02
 0.51872757872E+02 0.35444047382E+02 0.22235275547E+02 0.12763293876E+02 0.68107313492E+01
 0.36427978543E+01 0.22667325297E+01 0.16887194427E+01 0.13723802604E+01 0.12002986469E+01
 0.11135935158E+01 0.10783741388E+01 0.10738298229E+01 0.10858998119E+01 0.11045778631E+01
 0.11231412816E+01 0.11379228453E+01 0.11477845665E+01 0.11531327528E+01 0.11547891809E+01
 0.11531327528E+01 0.11477845665E+01 0.11379228453E+01 0.11231412816E+01 0.11045778631E+01
 0.10858998119E+01 0.10738298229E+01 0.10783741388E+01 0.11135935158E+01 0.12002986469E+01
 0.13723802604E+01 0.16887194427E+01 0.22667325297E+01 0.36427978543E+01 0.68107313492E+01
 0.12763293876E+02 0.22235275547E+02 0.35444047382E+02 0.51872757872E+02 0.70175929257E+02
 0.88282128307E+02 0.10372241173E+03 0.11413442699E+03 0.11781249118E+03 0.11413442699E+03
 0.77474200079E+02 0.63508530069E+02 0.48448232819E+02 0.34215958815E+02 0.22235275547E+02
 0.13248929998E+02 0.73216887682E+01 0.39816866490E+01 0.24332131032E+01 0.17840382328E+01
 0.14331376616E+01 0.12378334658E+01 0.11358427850E+01 0.10907634230E+01 0.10803631865E+01
 0.10898196242E+01 0.11085253410E+01 0.11290102730E+01 0.11467013283E+01 0.11596030532E+01
 0.11675560238E+01 0.11712334979E+01 0.11712334979E+01 0.11675560238E+01 0.11596030532E+01
 0.11467013283E+01 0.11290102730E+01 0.11085253410E+01 0.10898196242E+01 0.10803631865E+01
 0.10907634230E+01 0.11358427850E+01 0.12378334658E+01 0.14331376616E+01 0.17840382328E+01
 0.24332131032E+01 0.39816866490E+01 0.73216887682E+01 0.13248929998E+02 0.22235275547E+02
 0.34215958815E+02 0.48448232819E+02 0.63508530069E+02 0.77474200079E+02 0.88282128307E+02
 0.94186790197E+02 0.94186790197E+02 0.88282128307E+02 0.53665487098E+02 0.42209101213E+02
 0.30761860090E+02 0.20666391248E+02 0.12763293876E+02 0.73216887682E+01 0.41056819585E+01
 0.25293395946E+01 0.18479278822E+01 0.14793418090E+01 0.12692232336E+01 0.11562077601E+01
 0.11033897242E+01 0.10880080480E+01 0.10949435505E+01 0.11133538669E+01 0.11353730382E+01
 0.11557995019E+01 0.11718965827E+01 0.11828676692E+01 0.11890360988E+01 0.11910016075E+01
 0.11890360988E+01 0.11828676692E+01 0.11718965827E+01 0.11557995019E+01 0.11353730382E+01
 0.11133538669E+01 0.10949435505E+01 0.10880080480E+01 0.11033897242E+01 0.11562077601E+01
 0.12692232336E+01 0.14793418090E+01 0.18479278822E+01 0.25293395946E+01 0.41056819585E+01
 0.73216887682E+01 0.12763293876E+02 0.20666391248E+02 0.30761860090E+02 0.42209101213E+02
 0.53665487098E+02 0.63508530069E+02 0.70175929257E+02 0.72536157153E+02 0.70175929257E+02
 0.63508530069E+02 0.34215051062E+02 0.25709891573E+02 0.17835968206E+02 0.11410176450E+02
 0.68107313492E+01 0.39816866490E+01 0.25293395946E+01 0.18704471254E+01 0.15043531186E+01
 0.12901300921E+01 0.11717899584E+01 0.11142703769E+01 0.10954111002E+01 0.11003546602E+01
 0.11183897975E+01 0.11415918690E+01 0.11644443206E+01 0.11836859225E+01 0.11979372631E+01
 0.12070603614E+01 0.12114469195E+01 0.12114469195E+01 0.12070603614E+01 0.11979372631E+01
 0.11836859225E+01 0.11644443206E+01 0.11415918690E+01 0.11183897975E+01 0.11003546602E+01
 0.10954111002E+01 0.11142703769E+01 0.11717899584E+01 0.12901300921E+01 0.15043531186E+01
 0.18704471254E+01 0.25293395946E+01 0.39816866490E+01 0.68107313492E+01 0.11410176450E+02
 0.17835968206E+02 0.25709891573E+02 0.34215051062E+02 0.42209101213E+02 0.48448232819E+02
 0.51872757872E+02 0.51872757872E+02 0.48448232819E+02 0.42209101213E+02 0.19920610773E+02
 0.14273382005E+02 0.94702397737E+01 0.59083182808E+01 0.36427978543E+01 0.24332131032E+01
 0.18479278822E+01 0.15043531186E+01 0.12974717208E+01 0.11802408586E+01 0.11216294312E+01
 0.11012492190E+01 0.11050971003E+01 0.11229384352E+01 0.11470800524E+01 0.11719843952E+01
 0.11941273821E+01 0.12117046853E+01 0.12241216778E+01 0.12314218907E+01 0.12338209338E+01
 0.12314218907E+01 0.12241216778E+01 0.12117046853E+01 0.11941273821E+01 0.11719843952E+01
 0.11470800524E+01 0.11229384352E+01 0.11050971003E+01 0.11012492190E+01 0.11216294312E+01
 0.11802408586E+01 0.12974717208E+01 0.15043531186E+01 0.18479278822E+01 0.24332131032E+01
 0.36427978543E+01 0.59083182808E+01 0.94702397737E+01 0.14273382005E+02 0.19920610773E+02
 0.25709891573E+02 0.30761860090E+02 0.34215958815E+02 0.35444047382E+02 0.34215958815E+02
 0.30761860090E+02 0.25709891573E+02 0.10588485580E+02 0.73195448725E+01 0.48148352459E+01
 0.31756718588E+01 0.22667325297E+01 0.17840382328E+01 0.14793418090E+01 0.12901300921E+01
 0.11802408586E+01 0.11242303727E+01 0.11044631804E+01 0.11083298688E+01 0.11263721663E+01
 0.11513521978E+01 0.11779446843E+01 0.12026100038E+01 0.12233302409E+01 0.12391640615E+01
 0.12497744889E+01 0.12550823817E+01 0.12550823817E+01 0.12497744889E+01 0.12391640615E+01
 0.12233302409E+01 0.12026100038E+01 0.11779446843E+01 0.11513521978E+01 0.11263721663E+01
 0.11083298688E+01 0.11044631804E+01 0.11242303727E+01 0.11802408586E+01 0.12901300921E+01
 0.14793418090E+01 0.17840382328E+01 0.22667325297E+01 0.31756718588E+01 0.48148352459E+01
 0.73195448725E+01 0.10588485580E+02 0.14273382005E+02 0.17835968206E+02 0.20666391248E+02
 0.22235275547E+02 0.22235275547E+02 0.20666391248E+02 0.17835968206E+02 0.14273382005E+02
 0.53247313013E+01 0.37478396731E+01 0.26872905727E+01 0.20675707058E+01 0.16887194427E+01
 0.14331376616E+01 0.12692232336E+01 0.11717899584E+01 0.11216294312E+01 0.11044631804E+01
 0.11094759286E+01 0.11282165387E+01 0.11540554497E+01 0.11820332214E+01 0.12087816058E+01
 0.12322736556E+01 0.12513925136E+01 0.12654962848E+01 0.12741526515E+01 0.12770733175E+01
 0.12741526515E+01 0.12654962848E+01 0.12513925136E+01 0.12322736556E+01 0.12087816058E+01
 0.11820332214E+01 0.11540554497E+01 0.11282165387E+01 0.11094759286E+01 0.11044631804E+01
 0.11216294312E+01 0.11717899584E+01 0.12692232336E+01 0.14331376616E+01 0.16887194427E+01
 0.20675707058E+01 0.26872905727E+01 0.37478396731E+01 0.53247313013E+01 0.73195448725E+01
 0.94702397737E+01 0.11410176450E+02 0.12763293876E+02 0.13248929998E+02 0.12763293876E+02
 0.11410176450E+02 0.94702397737E+01 0.73195448725E+01 0.28747571476E+01 0.22632378844E+01
 0.18633725435E+01 0.15754667657E+01 0.13723802604E+01 0.12378334658E+01 0.11562077601E+01
 0.11142703769E+01 0.11012492190E+01 0.11083298688E+01 0.11282165387E+01 0.11549796339E+01
 0.11841043182E+01 0.12124997128E+01 0.12382780736E+01 0.12603191641E+01 0.12778213851E+01
 0.12900532079E+01 0.12963671395E+01 0.12963671395E+01 0.12900532079E+01 0.12778213851E+01
 0.12603191641E+01 0.12382780736E+01 0.12124997128E+01 0.11841043182E+01 0.11549796339E+01
 0.11282165387E+01 0.11083298688E+01 0.11012492190E+01 0.11142703769E+01 0.11562077601E+01
 0.12378334658E+01 0.13723802604E+01 0.15754667657E+01 0.18633725435E+01 0.22632378844E+01
 0.28747571476E+01 0.37478396731E+01 0.48148352459E+01 0.59083182808E+01 0.68107313492E+01
 0.73216887682E+01 0.73216887682E+01 0.68107313492E+01 0.59083182808E+01 0.48148352459E+01
 0.37478396731E+01 0.19322947862E+01 0.16665066890E+01 0.14580901498E+01 0.13049467525E+01
 0.12002986469E+01 0.11358427850E+01 0.11033897242E+01 0.10954111002E+01 0.11050971003E+01
 0.11263721663E+01 0.11540554497E+01 0.11841043182E+01 0.12137380993E+01 0.12412770309E+01
 0.12657175928E+01 0.12862526627E+01 0.13019846509E+01 0.13119488782E+01 0.13153699831E+01
 0.13119488782E+01 0.13019846509E+01 0.12862526627E+01 0.12657175928E+01 0.12412770309E+01
 0.12137380993E+01 0.11841043182E+01 0.11540554497E+01 0.11263721663E+01 0.11050971003E+01
 0.10954111002E+01 0.11033897242E+01 0.11358427850E+01 0.12002986469E+01 0.13049467525E+01
 0.14580901498E+01 0.16665066890E+01 0.19322947862E+01 0.22632378844E+01 0.26872905727E+01
 0.31756718588E+01 0.36427978543E+01 0.39816866490E+01 0.41056819585E+01 0.39816866490E+01
 0.36427978543E+01 0.31756718588E+01 0.26872905727E+01 0.22632378844E+01 0.14917840939E+01
 0.13481280483E+01 0.12383752901E+01 0.11613285097E+01 0.11135935158E+01 0.10907634230E+01
 0.10880080480E+01 0.11003546602E+01 0.11229384352E+01 0.11513521978E+01 0.11820332214E+01
 0.12124997128E+01 0.12412770309E+01 0.12675200521E+01 0.12905223074E+01 0.13093707813E+01
 0.13229149952E+01 0.13300358574E+01 0.13300358574E+01 0.13229149952E+01 0.13093707813E+01
 0.12905223074E+01 0.12675200521E+01 0.12412770309E+01 0.12124997128E+01 0.11820332214E+01
 0.11513521978E+01 0.11229384352E+01 0.11003546602E+01 0.10880080480E+01 0.10907634230E+01
 0.11135935158E+01 0.11613285097E+01 0.12383752901E+01 0.13481280483E+01 0.14917840939E+01
 0.16665066890E+01 0.18633725435E+01 0.20675707058E+01 0.22667325297E+01 0.24332131032E+01
 0.25293395946E+01 0.25293395946E+01 0.24332131032E+01 0.22667325297E+01 0.20675707058E+01
 0.18633725435E+01 0.16665066890E+01 0.12535599947E+01 0.11787665691E+01 0.11252283850E+01
 0.10923952199E+01 0.10783741388E+01 0.10803631865E+01 0.10949435505E+01 0.11183897975E+01
 0.11470800524E+01 0.11779446843E+01 0.12087816058E+01 0.12382780736E+01 0.12657175928E+01
 0.12905223074E+01 0.13118702356E+01 0.13285824076E+01 0.13393305755E+01 0.13430495005E+01
 0.13393305755E+01 0.13285824076E+01 0.13118702356E+01 0.12905223074E+01 0.12657175928E+01
 0.12382780736E+01 0.12087816058E+01 0.11779446843E+01 0.11470800524E+01 0.11183897975E+01
 0.10949435505E+01 0.10803631865E+01 0.10783741388E+01 0.10923952199E+01 0.11252283850E+01
 0.11787665691E+01 0.12535599947E+01 0.13481280483E+01 0.14580901498E+01 0.15754667657E+01
 0.16887194427E+01 0.17840382328E+01 0.18479278822E+01 0.18704471254E+01 0.18479278822E+01
 0.17840382328E+01 0.16887194427E+01 0.15754667657E+01 0.14580901498E+01 0.13481280483E+01
 0.11303245832E+01 0.10954047984E+01 0.10748069517E+01 0.10680915569E+01 0.10738298229E+01
 0.10898196242E+01 0.11133538669E+01 0.11415918690E+01 0.11719843952E+01 0.12026100038E+01
 0.12322736556E+01 0.12603191641E+01 0.12862526627E+01 0.13093707813E+01 0.13285824076E+01
 0.13425179638E+01 0.13498820277E+01 0.13498820277E+01 0.13425179638E+01 0.13285824076E+01
 0.13093707813E+01 0.12862526627E+01 0.12603191641E+01 0.12322736556E+01 0.12026100038E+01
 0.11719843952E+01 0.11415918690E+01 0.11133538669E+01 0.10898196242E+01 0.10738298229E+01
 0.10680915569E+01 0.10748069517E+01 0.10954047984E+01 0.11303245832E+01 0.11787665691E+01
 0.12383752901E+01 0.13049467525E+01 0.13723802604E+01 0.14331376616E+01 0.14793418090E+01
 0.15043531186E+01 0.15043531186E+01 0.14793418090E+01 0.14331376616E+01 0.13723802604E+01
 0.13049467525E+01 0.12383752901E+01 0.11787665691E+01 0.10741715667E+01 0.10627627982E+01
 0.10614349955E+01 0.10695875542E+01 0.10858998119E+01 0.11085253410E+01 0.11353730382E+01
 0.11644443206E+01 0.11941273821E+01 0.12233302409E+01 0.12513925136E+01 0.12778213851E+01
 0.13019846509E+01 0.13229149952E+01 0.13393305755E+01 0.13498820277E+01 0.13535297372E+01
 0.13498820277E+01 0.13393305755E+01 0.13229149952E+01 0.13019846509E+01 0.12778213851E+01
 0.12513925136E+01 0.12233302409E+01 0.11941273821E+01 0.11644443206E+01 0.11353730382E+01
 0.11085253410E+01 0.10858998119E+01 0.10695875542E+01 0.10614349955E+01 0.10627627982E+01
 0.10741715667E+01 0.10954047984E+01 0.11252283850E+01 0.11613285097E+01 0.12002986469E+01
 0.12378334658E+01 0.12692232336E+01 0.12901300921E+01 0.12974717208E+01 0.12901300921E+01
 0.12692232336E+01 0.12378334658E+01 0.12002986469E+01 0.11613285097E+01 0.11252283850E+01
 0.10954047984E+01 0.10574761511E+01 0.10594448687E+01 0.10685087240E+01 0.10839403339E+01
 0.11045778631E+01 0.11290102730E+01 0.11557995019E+01 0.11836859225E+01 0.12117046853E+01
 0.12391640615E+01 0.12654962848E+01 0.12900532079E+01 0.13119488782E+01 0.13300358574E+01
 0.13430495005E+01 0.13498820277E+01 0.13498820277E+01 0.13430495005E+01 0.13300358574E+01
 0.13119488782E+01 0.12900532079E+01 0.12654962848E+01 0.12391640615E+01 0.12117046853E+01
 0.11836859225E+01 0.11557995019E+01 0.11290102730E+01 0.11045778631E+01 0.10839403339E+01
 0.10685087240E+01 0.10594448687E+01 0.10574761511E+01 0.10627627982E+01 0.10748069517E+01
 0.10923952199E+01 0.11135935158E+01 0.11358427850E+01 0.11562077601E+01 0.11717899584E+01
 0.11802408586E+01 0.11802408586E+01 0.11717899584E+01 0.11562077601E+01 0.11358427850E+01
 0.11135935158E+01 0.10923952199E+01 0.10748069517E+01 0.10627627982E+01 0.10626511400E+01
 0.10711087821E+01 0.10844726454E+01 0.11020955740E+01 0.11231412816E+01 0.11467013283E+01
 0.11718965827E+01 0.11979372631E+01 0.12241216778E+01 0.12497744889E+01 0.12741526515E+01
 0.12963671395E+01 0.13153699831E+01 0.13300358574E+01 0.13393305755E+01 0.13425179638E+01
 0.13393305755E+01 0.13300358574E+01 0.13153699831E+01 0.12963671395E+01 0.12741526515E+01
 0.12497744889E+01 0.12241216778E+01 0.11979372631E+01 0.11718965827E+01 0.11467013283E+01
 0.11231412816E+01 0.11020955740E+01 0.10844726454E+01 0.10711087821E+01 0.10626511400E+01
 0.10594448687E+01 0.10614349955E+01 0.10680915569E+01 0.10783741388E+01 0.10907634230E+01
 0.11033897242E+01 0.11142703769E+01 0.11216294312E+01 0.11242303727E+01 0.11216294312E+01
 0.11142703769E+01 0.11033897242E+01 0.10907634230E+01 0.10783741388E+01 0.10680915569E+01
 0.10614349955E+01 0.10594448687E+01 0.10775688425E+01 0.10878032845E+01 0.11015416476E+01
 0.11183994690E+01 0.11379228453E+01 0.11596030532E+01 0.11828676692E+01 0.12070603614E+01
 0.12314218907E+01 0.12550823817E+01 0.12770733175E+01 0.12963671395E+01 0.13119488782E+01
 0.13229149952E+01 0.13285824076E+01 0.13285824076E+01 0.13229149952E+01 0.13119488782E+01
 0.12963671395E+01 0.12770733175E+01 0.12550823817E+01 0.12314218907E+01 0.12070603614E+01
 0.11828676692E+01 0.11596030532E+01 0.11379228453E+01 0.11183994690E+01 0.11015416476E+01
 0.10878032845E+01 0.10775688425E+01 0.10711087821E+01 0.10685087240E+01 0.10695875542E+01
 0.10738298229E+01 0.10803631865E+01 0.10880080480E+01 0.10954111002E+01 0.11012492190E+01
 0.11044631804E+01 0.11044631804E+01 0.11012492190E+01 0.10954111002E+01 0.10880080480E+01
 0.10803631865E+01 0.10738298229E+01 0.10695875542E+01 0.10685087240E+01 0.10711087821E+01
 0.10940619105E+01 0.11032663826E+01 0.11153709917E+01 0.11302745255E+01 0.11477845665E+01
 0.11675560238E+01 0.11890360988E+01 0.12114469195E+01 0.12338209338E+01 0.12550823817E+01
 0.12741526515E+01 0.12900532079E+01 0.13019846509E+01 0.13093707813E+01 0.13118702356E+01
 0.13093707813E+01 0.13019846509E+01 0.12900532079E+01 0.12741526515E+01 0.12550823817E+01
 0.12338209338E+01 0.12114469195E+01 0.11890360988E+01 0.11675560238E+01 0.11477845665E+01
 0.11302745255E+01 0.11153709917E+01 0.11032663826E+01 0.10940619105E+01 0.10878032845E+01
 0.10844726454E+01 0.10839403339E+01 0.10858998119E+01 0.10898196242E+01 0.10949435505E+01
 0.11003546602E+01 0.11050971003E+01 0.11083298688E+01 0.11094759286E+01 0.11083298688E+01
 0.11050971003E+01 0.11003546602E+01 0.10949435505E+01 0.10898196242E+01 0.10858998119E+01
 0.10839403339E+01 0.10844726454E+01 0.10878032845E+01 0.11075386083E+01 0.11145719194E+01
 0.11245188973E+01 0.11374219555E+01 0.11531327528E+01 0.11712334979E+01 0.11910016075E+01
 0.12114469195E+01 0.12314218907E+01 0.12497744889E+01 0.12654962848E+01 0.12778213851E+01
 0.12862526627E+01 0.12905223074E+01 0.12905223074E+01 0.12862526627E+01 0.12778213851E+01
 0.12654962848E+01 0.12497744889E+01 0.12314218907E+01 0.12114469195E+01 0.11910016075E+01
 0.11712334979E+01 0.11531327528E+01 0.11374219555E+01 0.11245188973E+01 0.11145719194E+01
 0.11075386083E+01 0.11032663826E+01 0.11015416476E+01 0.11020955740E+01 0.11045778631E+01
 0.11085253410E+01 0.11133538669E+01 0.11183897975E+01 0.11229384352E+01 0.11263721663E+01
 0.11282165387E+01 0.11282165387E+01 0.11263721663E+01 0.11229384352E+01 0.11183897975E+01
 0.11133538669E+01 0.11085253410E+01 0.11045778631E+01 0.11020955740E+01 0.11015416476E+01
 0.11032663826E+01 0.11164374988E+01 0.11213047780E+01 0.11293716148E+01 0.11406295568E+01
 0.11547891809E+01 0.11712334979E+01 0.11890360988E+01 0.12070603614E+01 0.12241216778E+01
 0.12391640615E+01 0.12513925136E+01 0.12603191641E+01 0.12657175928E+01 0.12675200521E+01
 0.12657175928E+01 0.12603191641E+01 0.12513925136E+01 0.12391640615E+01 0.12241216778E+01
 0.12070603614E+01 0.11890360988E+01 0.11712334979E+01 0.11547891809E+01 0.11406295568E+01
 0.11293716148E+01 0.11213047780E+01 0.11164374988E+01 0.11145719194E+01 0.11153709917E+01
 0.11183994690E+01 0.11231412816E+01 0.11290102730E+01 0.11353730382E+01 0.11415918690E+01
 0.11470800524E+01 0.11513521978E+01 0.11540554497E+01 0.11549796339E+01 0.11540554497E+01
 0.11513521978E+01 0.11470800524E+01 0.11415918690E+01 0.11353730382E+01 0.11290102730E+01
 0.11231412816E+01 0.11183994690E+01 0.11153709917E+01 0.11145719194E+01 0.11211240551E+01
 0.11242789817E+01 0.11308454803E+01 0.11406295568E+01 0.11531327528E+01 0.11675560238E+01
 0.11828676692E+01 0.11979372631E+01 0.12117046853E+01 0.12233302409E+01 0.12322736556E+01
 0.12382780736E+01 0.12412770309E+01 0.12412770309E+01 0.12382780736E+01 0.12322736556E+01
 0.12233302409E+01 0.12117046853E+01 0.11979372631E+01 0.11828676692E+01 0.11675560238E+01
 0.11531327528E+01 0.11406295568E+01 0.11308454803E+01 0.11242789817E+01 0.11211240551E+01
 0.11213047780E+01 0.11245188973E+01 0.11302745255E+01 0.11379228453E+01 0.11467013283E+01
 0.11557995019E+01 0.11644443206E+01 0.11719843952E+01 0.11779446843E+01 0.11820332214E+01
 0.11841043182E+01 0.11841043182E+01 0.11820332214E+01 0.11779446843E+01 0.11719843952E+01
 0.11644443206E+01 0.11557995019E+01 0.11467013283E+01 0.11379228453E+01 0.11302745255E+01
 0.11245188973E+01 0.11213047780E+01 0.11225376562E+01 0.11242789817E+01 0.11293716148E+01
 0.11374219555E+01 0.11477845665E+01 0.11596030532E+01 0.11718965827E+01 0.11836859225E+01
 0.11941273821E+01 0.12026100038E+01 0.12087816058E+01 0.12124997128E+01 0.12137380993E+01
 0.12124997128E+01 0.12087816058E+01 0.12026100038E+01 0.11941273821E+01 0.11836859225E+01
 0.11718965827E+01 0.11596030532E+01 0.11477845665E+01 0.11374219555E+01 0.11293716148E+01
 0.11242789817E+01 0.11225376562E+01 0.11242789817E+01 0.11293716148E+01 0.11374219555E+01
 0.11477845665E+01 0.11596030532E+01 0.11718965827E+01 0.11836859225E+01 0.11941273821E+01
 0.12026100038E+01 0.12087816058E+01 0.12124997128E+01 0.12137380993E+01 0.12124997128E+01
 0.12087816058E+01 0.12026100038E+01 0.11941273821E+01 0.11836859225E+01 0.11718965827E+01
 0.11596030532E+01 0.11477845665E+01 0.11374219555E+01 0.11293716148E+01 0.11242789817E+01
 0.11211240551E+01 0.11213047780E+01 0.11245188973E+01 0.11302745255E+01 0.11379228453E+01
 0.11467013283E+01 0.11557995019E+01 0.11644443206E+01 0.11719843952E+01 0.11779446843E+01
 0.11820332214E+01 0.11841043182E+01 0.11841043182E+01 0.11820332214E+01 0.11779446843E+01
 0.11719843952E+01 0.11644443206E+01 0.11557995019E+01 0.11467013283E+01 0.11379228453E+01
 0.11302745255E+01 0.11245188973E+01 0.11213047780E+01 0.11211240551E+01 0.11242789817E+01
 0.11308454803E+01 0.11406295568E+01 0.11531327528E+01 0.11675560238E+01 0.11828676692E+01
 0.11979372631E+01 0.12117046853E+01 0.12233302409E+01 0.12322736556E+01 0.12382780736E+01
 0.12412770309E+01 0.12412770309E+01 0.12382780736E+01 0.12322736556E+01 0.12233302409E+01
 0.12117046853E+01 0.11979372631E+01 0.11828676692E+01 0.11675560238E+01 0.11531327528E+01
 0.11406295568E+01 0.11308454803E+01 0.11242789817E+01 0.11164374988E+01 0.11145719194E+01
 0.11153709917E+01 0.11183994690E+01 0.11231412816E+01 0.11290102730E+01 0.11353730382E+01
 0.11415918690E+01 0.11470800524E+01 0.11513521978E+01 0.11540554497E+01 0.11549796339E+01
 0.11540554497E+01 0.11513521978E+01 0.11470800524E+01 0.11415918690E+01 0.11353730382E+01
 0.11290102730E+01 0.11231412816E+01 0.11183994690E+01 0.11153709917E+01 0.11145719194E+01
 0.11164374988E+01 0.11213047780E+01 0.11293716148E+01 0.11406295568E+01 0.11547891809E+01
 0.11712334979E+01 0.11890360988E+01 0.12070603614E+01 0.12241216778E+01 0.12391640615E+01
 0.12513925136E+01 0.12603191641E+01 0.12657175928E+01 0.12675200521E+01 0.12657175928E+01
 0.12603191641E+01 0.12513925136E+01 0.12391640615E+01 0.12241216778E+01 0.12070603614E+01
 0.11890360988E+01 0.11712334979E+01 0.11547891809E+01 0.11406295568E+01 0.11293716148E+01
 0.11213047780E+01 0.11075386083E+01 0.11032663826E+01 0.11015416476E+01 0.11020955740E+01
 0.11045778631E+01 0.11085253410E+01 0.11133538669E+01 0.11183897975E+01 0.11229384352E+01
 0.11263721663E+01 0.11282165387E+01 0.11282165387E+01 0.11263721663E+01 0.11229384352E+01
 0.11183897975E+01 0.11133538669E+01 0.11085253410E+01 0.11045778631E+01 0.11020955740E+01
 0.11015416476E+01 0.11032663826E+01 0.11075386083E+01 0.11145719194E+01 0.11245188973E+01
 0.11374219555E+01 0.11531327528E+01 0.11712334979E+01 0.11910016075E+01 0.12114469195E+01
 0.12314218907E+01 0.12497744889E+01 0.12654962848E+01 0.12778213851E+01 0.12862526627E+01
 0.12905223074E+01 0.12905223074E+01 0.12862526627E+01 0.12778213851E+01 0.12654962848E+01
 0.12497744889E+01 0.12314218907E+01 0.12114469195E+01 0.11910016075E+01 0.11712334979E+01
 0.11531327528E+01 0.11374219555E+01 0.11245188973E+01 0.11145719194E+01 0.10940619105E+01
 0.10878032845E+01 0.10844726454E+01 0.10839403339E+01 0.10858998119E+01 0.10898196242E+01
 0.10949435505E+01 0.11003546602E+01 0.11050971003E+01 0.11083298688E+01 0.11094759286E+01
 0.11083298688E+01 0.11050971003E+01 0.11003546602E+01 0.10949435505E+01 0.10898196242E+01
 0.10858998119E+01 0.10839403339E+01 0.10844726454E+01 0.10878032845E+01 0.10940619105E+01
 0.11032663826E+01 0.11153709917E+01 0.11302745255E+01 0.11477845665E+01 0.11675560238E+01
 0.11890360988E+01 0.12114469195E+01 0.12338209338E+01 0.12550823817E+01 0.12741526515E+01
 0.12900532079E+01 0.13019846509E+01 0.13093707813E+01 0.13118702356E+01 0.13093707813E+01
 0.13019846509E+01 0.12900532079E+01 0.12741526515E+01 0.12550823817E+01 0.12338209338E+01
 0.12114469195E+01 0.11890360988E+01 0.11675560238E+01 0.11477845665E+01 0.11302745255E+01
 0.11153709917E+01 0.11032663826E+01 0.10775688425E+01 0.10711087821E+01 0.10685087240E+01
 0.10695875542E+01 0.10738298229E+01 0.10803631865E+01 0.10880080480E+01 0.10954111002E+01
 0.11012492190E+01 0.11044631804E+01 0.11044631804E+01 0.11012492190E+01 0.10954111002E+01
 0.10880080480E+01 0.10803631865E+01 0.10738298229E+01 0.10695875542E+01 0.10685087240E+01
 0.10711087821E+01 0.10775688425E+01 0.10878032845E+01 0.11015416476E+01 0.11183994690E+01
 0.11379228453E+01 0.11596030532E+01 0.11828676692E+01 0.12070603614E+01 0.12314218907E+01
 0.12550823817E+01 0.12770733175E+01 0.12963671395E+01 0.13119488782E+01 0.13229149952E+01
 0.13285824076E+01 0.13285824076E+01 0.13229149952E+01 0.13119488782E+01 0.12963671395E+01
 0.12770733175E+01 0.12550823817E+01 0.12314218907E+01 0.12070603614E+01 0.11828676692E+01
 0.11596030532E+01 0.11379228453E+01 0.11183994690E+01 0.11015416476E+01 0.10878032845E+01
 0.10626511400E+01 0.10594448687E+01 0.10614349955E+01 0.10680915569E+01 0.10783741388E+01
 0.10907634230E+01 0.11033897242E+01 0.11142703769E+01 0.11216294312E+01 0.11242303727E+01
 0.11216294312E+01 0.11142703769E+01 0.11033897242E+01 0.10907634230E+01 0.10783741388E+01
 0.10680915569E+01 0.10614349955E+01 0.10594448687E+01 0.10626511400E+01 0.10711087821E+01
 0.10844726454E+01 0.11020955740E+01 0.11231412816E+01 0.11467013283E+01 0.11718965827E+01
 0.11979372631E+01 0.12241216778E+01 0.12497744889E+01 0.12741526515E+01 0.12963671395E+01
 0.13153699831E+01 0.13300358574E+01 0.13393305755E+01 0.13425179638E+01 0.13393305755E+01
 0.13300358574E+01 0.13153699831E+01 0.12963671395E+01 0.12741526515E+01 0.12497744889E+01
 0.12241216778E+01 0.11979372631E+01 0.11718965827E+01 0.11467013283E+01 0.11231412816E+01
 0.11020955740E+01 0.10844726454E+01 0.10711087821E+01 0.10574761511E+01 0.10627627982E+01
 0.10748069517E+01 0.10923952199E+01 0.11135935158E+01 0.11358427850E+01 0.11562077601E+01
 0.11717899584E+01 0.11802408586E+01 0.11802408586E+01 0.11717899584E+01 0.11562077601E+01
 0.11358427850E+01 0.11135935158E+01 0.10923952199E+01 0.10748069517E+01 0.10627627982E+01
 0.10574761511E+01 0.10594448687E+01 0.10685087240E+01 0.10839403339E+01 0.11045778631E+01
 0.11290102730E+01 0.11557995019E+01 0.11836859225E+01 0.12117046853E+01 0.12391640615E+01
 0.12654962848E+01 0.12900532079E+01 0.13119488782E+01 0.13300358574E+01 0.13430495005E+01
 0.13498820277E+01 0.13498820277E+01 0.13430495005E+01 0.13300358574E+01 0.13119488782E+01
 0.12900532079E+01 0.12654962848E+01 0.12391640615E+01 0.12117046853E+01 0.11836859225E+01
 0.11557995019E+01 0.11290102730E+01 0.11045778631E+01 0.10839403339E+01 0.10685087240E+01
 0.10594448687E+01 0.10741715667E+01 0.10954047984E+01 0.11252283850E+01 0.11613285097E+01
 0.12002986469E+01 0.12378334658E+01 0.12692232336E+01 0.12901300921E+01 0.12974717208E+01
 0.12901300921E+01 0.12692232336E+01 0.12378334658E+01 0.12002986469E+01 0.11613285097E+01
 0.11252283850E+01 0.10954047984E+01 0.10741715667E+01 0.10627627982E+01 0.10614349955E+01
 0.10695875542E+01 0.10858998119E+01 0.11085253410E+01 0.11353730382E+01 0.11644443206E+01
 0.11941273821E+01 0.12233302409E+01 0.12513925136E+01 0.12778213851E+01 0.13019846509E+01
 0.13229149952E+01 0.13393305755E+01 0.13498820277E+01 0.13535297372E+01 0.13498820277E+01
 0.13393305755E+01 0.13229149952E+01 0.13019846509E+01 0.12778213851E+01 0.12513925136E+01
 0.12233302409E+01 0.11941273821E+01 0.11644443206E+01 0.11353730382E+01 0.11085253410E+01
 0.10858998119E+01 0.10695875542E+01 0.10614349955E+01 0.10627627982E+01 0.11303245832E+01
 0.11787665691E+01 0.12383752901E+01 0.13049467525E+01 0.13723802604E+01 0.14331376616E+01
 0.14793418090E+01 0.15043531186E+01 0.15043531186E+01 0.14793418090E+01 0.14331376616E+01
 0.13723802604E+01 0.13049467525E+01 0.12383752901E+01 0.11787665691E+01 0.11303245832E+01
 0.10954047984E+01 0.10748069517E+01 0.10680915569E+01 0.10738298229E+01 0.10898196242E+01
 0.11133538669E+01 0.11415918690E+01 0.11719843952E+01 0.12026100038E+01 0.12322736556E+01
 0.12603191641E+01 0.12862526627E+01 0.13093707813E+01 0.13285824076E+01 0.13425179638E+01
 0.13498820277E+01 0.13498820277E+01 0.13425179638E+01 0.13285824076E+01 0.13093707813E+01
 0.12862526627E+01 0.12603191641E+01 0.12322736556E+01 0.12026100038E+01 0.11719843952E+01
 0.11415918690E+01 0.11133538669E+01 0.10898196242E+01 0.10738298229E+01 0.10680915569E+01