 vasp.6.0.8 29Jun18 (build Jun 13 2019 12:54:44) complex                        
  
 executed on      IFC18_CrayMPICH date 2019.12.19  12:58:59
 running   32 mpi-ranks, with    4 threads/rank
 distrk:  each k-point on   32 cores,    1 groups
 distr:  one band on NCORES_PER_BAND=   1 cores,   32 groups


--------------------------------------------------------------------------------------------------------


 INCAR:
 POTCAR:    PAW_PBE Li_sv 10Sep2004               
 POTCAR:    PAW_PBE H 15Jun2001                   
 POTCAR:    PAW_PBE Li_sv 10Sep2004               
   VRHFIN =Li: 1s2s2p                                                           
   LEXCH  = PE                                                                  
   EATOM  =   202.7858 eV,   14.9043 Ry                                         
                                                                                
   TITEL  = PAW_PBE Li_sv 10Sep2004                                             
   LULTRA =        F    use ultrasoft PP ?                                      
   IUNSCR =        0    unscreen: 0-lin 1-nonlin 2-no                           
   RPACOR =    0.000    partial core radius                                     
   POMASS =    7.010; ZVAL   =    3.000    mass and valenz                      
   RCORE  =    1.700    outmost cutoff radius                                   
   RWIGS  =    2.050; RWIGS  =    1.085    wigner-seitz radius (au A)           
   ENMAX  =  499.034; ENMIN  =  374.276 eV                                      
   ICORE  =        2    local potential                                         
   LCOR   =        T    correct aug charges                                     
   LPAW   =        T    paw PP                                                  
   EAUG   =  628.945                                                            
   RMAX   =    1.732    core radius for proj-oper                               
   RAUG   =    1.300    factor for augmentation sphere                          
   RDEP   =    1.728    radius for radial grids                                 
   RDEPT  =    1.329    core radius for aug-charge                              
                                                                                
   Atomic configuration                                                         
    4 entries                                                                   
     n  l   j            E        occ.                                          
     1  0  0.50       -51.8549   2.0000                                         
     2  0  0.50        -2.8742   1.0000                                         
     2  1  0.50        -1.3606   0.0000                                         
     3  2  1.50        -1.3606   0.0000                                         
   Description                                                                  
     l       E           TYP  RCUT    TYP  RCUT                                 
     0    -51.8548813     23  1.400                                             
     0     -2.8742052     23  1.700                                             
     1     -1.3605826     23  1.400                                             
     2     -1.3605826     23  1.400                                             
  local pseudopotential read in
  atomic valenz-charges read in
  non local Contribution for L=           0  read in
    real space projection operators read in
  non local Contribution for L=           0  read in
    real space projection operators read in
  non local Contribution for L=           1  read in
    real space projection operators read in
    PAW grid and wavefunctions read in
 
   number of l-projection  operators is LMAX  =           3
   number of lm-projection operators is LMMAX =           5
 
 POTCAR:    PAW_PBE H 15Jun2001                   
   VRHFIN =H: ultrasoft test                                                    
   LEXCH  = PE                                                                  
   EATOM  =    12.4884 eV,    0.9179 Ry                                         
                                                                                
   TITEL  = PAW_PBE H 15Jun2001                                                 
   LULTRA =        F    use ultrasoft PP ?                                      
   IUNSCR =        0    unscreen: 0-lin 1-nonlin 2-no                           
   RPACOR =    0.000    partial core radius                                     
   POMASS =    1.000; ZVAL   =    1.000    mass and valenz                      
   RCORE  =    1.100    outmost cutoff radius                                   
   RWIGS  =    0.700; RWIGS  =    0.370    wigner-seitz radius (au A)           
   ENMAX  =  250.000; ENMIN  =  200.000 eV                                      
   RCLOC  =    0.701    cutoff for local pot                                    
   LCOR   =        T    correct aug charges                                     
   LPAW   =        T    paw PP                                                  
   EAUG   =  400.000                                                            
   RMAX   =    1.123    core radius for proj-oper                               
   RAUG   =    1.200    factor for augmentation sphere                          
   RDEP   =    1.112    radius for radial grids                                 
   RDEPT  =    0.926    core radius for aug-charge                              
                                                                                
   Atomic configuration                                                         
    2 entries                                                                   
     n  l   j            E        occ.                                          
     1  0  0.50        -6.4927   1.0000                                         
     2  1  0.50        -3.4015   0.0000                                         
   Description                                                                  
     l       E           TYP  RCUT    TYP  RCUT                                 
     0     -6.4927494     23  1.100                                             
     0      6.8029130     23  1.100                                             
     1     -4.0817478     23  1.100                                             
  local pseudopotential read in
  atomic valenz-charges read in
  non local Contribution for L=           0  read in
    real space projection operators read in
  non local Contribution for L=           0  read in
    real space projection operators read in
  non local Contribution for L=           1  read in
    real space projection operators read in
    PAW grid and wavefunctions read in
 
   number of l-projection  operators is LMAX  =           3
   number of lm-projection operators is LMMAX =           5
 
  PAW_PBE Li_sv 10Sep2004               :
 energy of atom  1       EATOM= -202.7858
 kinetic energy error for atom=    0.0055 (will be added to EATOM!!)
  PAW_PBE H 15Jun2001                   :
 energy of atom  2       EATOM=  -12.4884
 kinetic energy error for atom=    0.0002 (will be added to EATOM!!)
 
 
 POSCAR: Li1 H1
  positions in direct lattice
  No initial velocities read in
 exchange correlation table for  LEXCH =        8
   RHO(1)=    0.500       N(1)  =     2000
   RHO(2)=  100.500       N(2)  =     4000
 


--------------------------------------------------------------------------------------------------------


 ion  position               nearest neighbor table
   1  0.000  0.000  0.000-
   2  0.500  0.500  0.500-
 
  LATTYP: Found a face centered cubic cell.
 ALAT       =     4.0172390869
  
  Lattice vectors:
  
 A1 = (   2.4600460000,   0.0000000000,   1.4203080000)
 A2 = (   0.8200150000,   2.3193540000,   1.4203080000)
 A3 = (   0.0000000000,   0.0000000000,   2.8406170000)


Analysis of symmetry for initial positions (statically):
=====================================================================
 Subroutine PRICEL returns:
 Original cell was already a primitive cell.
 

 Routine SETGRP: Setting up the symmetry group for a 
 face centered cubic supercell.


 Subroutine GETGRP returns: Found 48 space group operations
 (whereof 48 operations were pure point group operations)
 out of a pool of 48 trial point group operations.


The static configuration has the point symmetry O_h .


Analysis of symmetry for dynamics (positions and initial velocities):
=====================================================================
 Subroutine PRICEL returns:
 Original cell was already a primitive cell.
 

 Routine SETGRP: Setting up the symmetry group for a 
 face centered cubic supercell.


 Subroutine GETGRP returns: Found 48 space group operations
 (whereof 48 operations were pure point group operations)
 out of a pool of 48 trial point group operations.


The dynamic configuration has the point symmetry O_h .


Analysis of structural, dynamic, and magnetic symmetry:
=====================================================================
 Subroutine PRICEL returns:
 Original cell was already a primitive cell.
 

 Routine SETGRP: Setting up the symmetry group for a 
 face centered cubic supercell.


 Subroutine GETGRP returns: Found 48 space group operations
 (whereof 48 operations were pure point group operations)
 out of a pool of 48 trial point group operations.


The magnetic configuration has the point symmetry O_h .


 Subroutine INISYM returns: Found 48 space group operations
 (whereof 48 operations are pure point group operations),
 and found     1 'primitive' translations


----------------------------------------------------------------------------------------

                                     Primitive cell                                     

  volume of cell :      16.2078

  direct lattice vectors                    reciprocal lattice vectors
     2.460046000  0.000000000  1.420308000     0.406496464 -0.143718121  0.000000000
     0.820015000  2.319354000  1.420308000     0.000000000  0.431154537  0.000000000
     0.000000000  0.000000000  2.840617000    -0.203248160 -0.143718158  0.352036195

  length of vectors
     2.840616330  2.840616551  2.840617000     0.431154582  0.431154537  0.431154504

  position of ions in fractional coordinates (direct lattice)
     0.000000000  0.000000000  0.000000000
     0.500000000  0.500000000  0.500000000

  ion indices of the primitive-cell ions
   primitive index   ion index
                 1           1
                 2           2

----------------------------------------------------------------------------------------

 
 

Automatic generation of k-mesh.
 generate k-points for:   13   13   13
Space group operators:
 irot       det(A)        alpha          n_x          n_y          n_z        tau_x        tau_y        tau_z
    1     1.000000     0.000000     1.000000     0.000000     0.000000     0.000000     0.000000     0.000000
    2    -1.000000     0.000000     1.000000     0.000000     0.000000     0.000000     0.000000     0.000000
    3     1.000000   120.000000    -0.471405    -0.333333    -0.816497     0.000000     0.000000     0.000000
    4    -1.000000   120.000000    -0.471405    -0.333333    -0.816497     0.000000     0.000000     0.000000
    5     1.000000   120.000000     0.471404     0.333334     0.816496     0.000000     0.000000     0.000000
    6    -1.000000   120.000000     0.471404     0.333334     0.816496     0.000000     0.000000     0.000000
    7     1.000000    90.000000    -0.816496    -0.577350     0.000000     0.000000     0.000000     0.000000
    8    -1.000000    90.000000    -0.816496    -0.577350     0.000000     0.000000     0.000000     0.000000
    9     1.000000   180.000000     0.866025     0.000000     0.500000     0.000000     0.000000     0.000000
   10    -1.000000   180.000000     0.866025     0.000000     0.500000     0.000000     0.000000     0.000000
   11     1.000000    90.000000     0.408248    -0.577350     0.707107     0.000000     0.000000     0.000000
   12    -1.000000    90.000000     0.408248    -0.577350     0.707107     0.000000     0.000000     0.000000
   13     1.000000   180.000000     0.816497     0.577350     0.000000     0.000000     0.000000     0.000000
   14    -1.000000   180.000000     0.816497     0.577350     0.000000     0.000000     0.000000     0.000000
   15     1.000000   120.000000     0.942809    -0.333333     0.000000     0.000000     0.000000     0.000000
   16    -1.000000   120.000000     0.942809    -0.333333     0.000000     0.000000     0.000000     0.000000
   17     1.000000   120.000000     0.000000    -1.000000    -0.000000     0.000000     0.000000     0.000000
   18    -1.000000   120.000000     0.000000    -1.000000    -0.000000     0.000000     0.000000     0.000000
   19     1.000000    90.000000     0.816497     0.577350    -0.000000     0.000000     0.000000     0.000000
   20    -1.000000    90.000000     0.816497     0.577350    -0.000000     0.000000     0.000000     0.000000
   21     1.000000    90.000000     0.408248    -0.577350    -0.707107     0.000000     0.000000     0.000000
   22    -1.000000    90.000000     0.408248    -0.577350    -0.707107     0.000000     0.000000     0.000000
   23     1.000000   180.000000     0.288675     0.816497     0.500000     0.000000     0.000000     0.000000
   24    -1.000000   180.000000     0.288675     0.816497     0.500000     0.000000     0.000000     0.000000
   25     1.000000   120.000000     0.000000     1.000000    -0.000000     0.000000     0.000000     0.000000
   26    -1.000000   120.000000     0.000000     1.000000    -0.000000     0.000000     0.000000     0.000000
   27     1.000000   120.000000     0.471404     0.333333    -0.816497     0.000000     0.000000     0.000000
   28    -1.000000   120.000000     0.471404     0.333333    -0.816497     0.000000     0.000000     0.000000
   29     1.000000   180.000000    -0.408248     0.577350     0.707107     0.000000     0.000000     0.000000
   30    -1.000000   180.000000    -0.408248     0.577350     0.707107     0.000000     0.000000     0.000000
   31     1.000000    90.000000    -0.408248     0.577350    -0.707107     0.000000     0.000000     0.000000
   32    -1.000000    90.000000    -0.408248     0.577350    -0.707107     0.000000     0.000000     0.000000
   33     1.000000   180.000000     0.000000     0.000000     1.000000     0.000000     0.000000     0.000000
   34    -1.000000   180.000000     0.000000     0.000000     1.000000     0.000000     0.000000     0.000000
   35     1.000000    90.000000    -0.408248     0.577350     0.707107     0.000000     0.000000     0.000000
   36    -1.000000    90.000000    -0.408248     0.577350     0.707107     0.000000     0.000000     0.000000
   37     1.000000   120.000000    -0.942809     0.333333     0.000000     0.000000     0.000000     0.000000
   38    -1.000000   120.000000    -0.942809     0.333333     0.000000     0.000000     0.000000     0.000000
   39     1.000000   180.000000    -0.408249     0.577350    -0.707107     0.000000     0.000000     0.000000
   40    -1.000000   180.000000    -0.408249     0.577350    -0.707107     0.000000     0.000000     0.000000
   41     1.000000   120.000000    -0.471404    -0.333333     0.816497     0.000000     0.000000     0.000000
   42    -1.000000   120.000000    -0.471404    -0.333333     0.816497     0.000000     0.000000     0.000000
   43     1.000000   180.000000     0.288675     0.816497    -0.500000     0.000000     0.000000     0.000000
   44    -1.000000   180.000000     0.288675     0.816497    -0.500000     0.000000     0.000000     0.000000
   45     1.000000   180.000000     0.577350    -0.816497     0.000000     0.000000     0.000000     0.000000
   46    -1.000000   180.000000     0.577350    -0.816497     0.000000     0.000000     0.000000     0.000000
   47     1.000000   180.000000     0.866025     0.000000    -0.500000     0.000000     0.000000     0.000000
   48    -1.000000   180.000000     0.866025     0.000000    -0.500000     0.000000     0.000000     0.000000
 
 Subroutine IBZKPT returns following result:
 ===========================================
 
 Found     84 irreducible k-points:
 
 Following reciprocal coordinates:
            Coordinates               Weight
  0.000000  0.000000  0.000000      1.000000
  0.076923 -0.000000  0.000000      8.000000
  0.153846 -0.000000  0.000000      8.000000
  0.230769  0.000000  0.000000      8.000000
  0.307692 -0.000000  0.000000      8.000000
  0.384615  0.000000  0.000000      8.000000
  0.461538 -0.000000  0.000000      8.000000
  0.076923  0.076923  0.000000      6.000000
  0.153846  0.076923  0.000000     24.000000
  0.230769  0.076923  0.000000     24.000000
  0.307692  0.076923  0.000000     24.000000
  0.384615  0.076923  0.000000     24.000000
  0.461538  0.076923  0.000000     24.000000
 -0.461538  0.076923  0.000000     24.000000
 -0.384615  0.076923  0.000000     24.000000
 -0.307692  0.076923  0.000000     24.000000
 -0.230769  0.076923  0.000000     24.000000
 -0.153846  0.076923  0.000000     24.000000
 -0.076923  0.076923  0.000000     12.000000
  0.153846  0.153846  0.000000      6.000000
  0.230769  0.153846  0.000000     24.000000
  0.307692  0.153846  0.000000     24.000000
  0.384615  0.153846  0.000000     24.000000
  0.461538  0.153846  0.000000     24.000000
 -0.461538  0.153846  0.000000     24.000000
 -0.384615  0.153846  0.000000     24.000000
 -0.307692  0.153846  0.000000     24.000000
 -0.230769  0.153846  0.000000     24.000000
 -0.153846  0.153846  0.000000     12.000000
  0.230769  0.230769  0.000000      6.000000
  0.307692  0.230769  0.000000     24.000000
  0.384615  0.230769  0.000000     24.000000
  0.461538  0.230769  0.000000     24.000000
 -0.461538  0.230769  0.000000     24.000000
 -0.384615  0.230769  0.000000     24.000000
 -0.307692  0.230769  0.000000     24.000000
 -0.230769  0.230769  0.000000     12.000000
  0.307692  0.307692  0.000000      6.000000
  0.384615  0.307692  0.000000     24.000000
  0.461538  0.307692  0.000000     24.000000
 -0.461538  0.307692  0.000000     24.000000
 -0.384615  0.307692  0.000000     24.000000
 -0.307692  0.307692  0.000000     12.000000
  0.384615  0.384615  0.000000      6.000000
  0.461538  0.384615  0.000000     24.000000
 -0.461538  0.384615  0.000000     24.000000
 -0.384615  0.384615  0.000000     12.000000
  0.461538  0.461538  0.000000      6.000000
 -0.461538  0.461538  0.000000     12.000000
  0.230769  0.153846  0.076923     24.000000
  0.307692  0.153846  0.076923     48.000000
  0.384615  0.153846  0.076923     48.000000
  0.461538  0.153846  0.076923     48.000000
 -0.461538  0.153846  0.076923     48.000000
  0.307692  0.230769  0.076923     24.000000
  0.384615  0.230769  0.076923     48.000000
  0.461538  0.230769  0.076923     48.000000
 -0.461538  0.230769  0.076923     48.000000
 -0.384615  0.230769  0.076923     48.000000
 -0.307692  0.230769  0.076923     48.000000
 -0.230769  0.230769  0.076923     48.000000
 -0.153846  0.230769  0.076923     24.000000
  0.384615  0.307692  0.076923     24.000000
  0.461538  0.307692  0.076923     48.000000
 -0.461538  0.307692  0.076923     48.000000
 -0.384615  0.307692  0.076923     48.000000
 -0.307692  0.307692  0.076923     48.000000
 -0.230769  0.307692  0.076923     24.000000
  0.461538  0.384615  0.076923     24.000000
 -0.461538  0.384615  0.076923     48.000000
 -0.384615  0.384615  0.076923     48.000000
 -0.307692  0.384615  0.076923     24.000000
 -0.461538  0.461538  0.076923     24.000000
 -0.384615  0.461538  0.076923     24.000000
  0.461538  0.307692  0.153846     24.000000
 -0.461538  0.307692  0.153846     48.000000
 -0.384615  0.307692  0.153846     48.000000
 -0.461538  0.384615  0.153846     24.000000
 -0.384615  0.384615  0.153846     48.000000
 -0.307692  0.384615  0.153846     48.000000
 -0.230769  0.384615  0.153846     24.000000
 -0.384615  0.461538  0.153846     24.000000
 -0.307692  0.461538  0.153846     24.000000
 -0.307692  0.461538  0.230769     24.000000
 
 Following cartesian coordinates:
            Coordinates               Weight
  0.000000  0.000000  0.000000      1.000000
  0.031269 -0.011055  0.000000      8.000000
  0.062538 -0.022110  0.000000      8.000000
  0.093807 -0.033166  0.000000      8.000000
  0.125076 -0.044221  0.000000      8.000000
  0.156345 -0.055276  0.000000      8.000000
  0.187614 -0.066331  0.000000      8.000000
  0.031269  0.022110  0.000000      6.000000
  0.062538  0.011055  0.000000     24.000000
  0.093807  0.000000  0.000000     24.000000
  0.125076 -0.011055  0.000000     24.000000
  0.156345 -0.022110  0.000000     24.000000
  0.187614 -0.033166  0.000000     24.000000
 -0.187614  0.099497  0.000000     24.000000
 -0.156345  0.088442  0.000000     24.000000
 -0.125076  0.077387  0.000000     24.000000
 -0.093807  0.066331  0.000000     24.000000
 -0.062538  0.055276  0.000000     24.000000
 -0.031269  0.044221  0.000000     12.000000
  0.062538  0.044221  0.000000      6.000000
  0.093807  0.033166  0.000000     24.000000
  0.125076  0.022111  0.000000     24.000000
  0.156345  0.011055  0.000000     24.000000
  0.187614  0.000000  0.000000     24.000000
 -0.187614  0.132663  0.000000     24.000000
 -0.156345  0.121608  0.000000     24.000000
 -0.125076  0.110552  0.000000     24.000000
 -0.093807  0.099497  0.000000     24.000000
 -0.062538  0.088442  0.000000     12.000000
  0.093807  0.066331  0.000000      6.000000
  0.125076  0.055276  0.000000     24.000000
  0.156345  0.044221  0.000000     24.000000
  0.187614  0.033166  0.000000     24.000000
 -0.187614  0.165829  0.000000     24.000000
 -0.156345  0.154773  0.000000     24.000000
 -0.125076  0.143718  0.000000     24.000000
 -0.093807  0.132663  0.000000     12.000000
  0.125076  0.088442  0.000000      6.000000
  0.156345  0.077387  0.000000     24.000000
  0.187614  0.066331  0.000000     24.000000
 -0.187614  0.198994  0.000000     24.000000
 -0.156345  0.187939  0.000000     24.000000
 -0.125076  0.176884  0.000000     12.000000
  0.156345  0.110552  0.000000      6.000000
  0.187614  0.099497  0.000000     24.000000
 -0.187614  0.232160  0.000000     24.000000
 -0.156345  0.221105  0.000000     12.000000
  0.187614  0.132663  0.000000      6.000000
 -0.187614  0.265326  0.000000     12.000000
  0.078172  0.022111  0.027080     24.000000
  0.109441  0.011055  0.027080     48.000000
  0.140710  0.000000  0.027080     48.000000
  0.171979 -0.011055  0.027080     48.000000
 -0.203248  0.121608  0.027080     48.000000
  0.109441  0.044221  0.027080     24.000000
  0.140710  0.033166  0.027080     48.000000
  0.171979  0.022111  0.027080     48.000000
 -0.203248  0.154773  0.027080     48.000000
 -0.171979  0.143718  0.027080     48.000000
 -0.140710  0.132663  0.027080     48.000000
 -0.109441  0.121608  0.027080     48.000000
 -0.078172  0.110552  0.027080     24.000000
  0.140710  0.066331  0.027080     24.000000
  0.171979  0.055276  0.027080     48.000000
 -0.203248  0.187939  0.027080     48.000000
 -0.171979  0.176884  0.027080     48.000000
 -0.140710  0.165829  0.027080     48.000000
 -0.109441  0.154773  0.027080     24.000000
  0.171979  0.088442  0.027080     24.000000
 -0.203248  0.221105  0.027080     48.000000
 -0.171979  0.210050  0.027080     48.000000
 -0.140710  0.198994  0.027080     24.000000
 -0.203248  0.254271  0.027080     24.000000
 -0.171979  0.243215  0.027080     24.000000
  0.156345  0.044221  0.054159     24.000000
 -0.218883  0.176884  0.054159     48.000000
 -0.187614  0.165829  0.054159     48.000000
 -0.218883  0.210050  0.054159     24.000000
 -0.187614  0.198994  0.054159     48.000000
 -0.156345  0.187939  0.054159     48.000000
 -0.125076  0.176884  0.054159     24.000000
 -0.187614  0.232160  0.054159     24.000000
 -0.156345  0.221105  0.054159     24.000000
 -0.171979  0.210050  0.081239     24.000000
 


--------------------------------------------------------------------------------------------------------




 Dimension of arrays:
   k-points           NKPTS =     84   k-points in BZ     NKDIM =     84   number of bands    NBANDS=     32
   number of dos      NEDOS =    301   number of ions     NIONS =      2
   non local maximal  LDIM  =      3   non local SUM 2l+1 LMDIM =      5
   total plane-waves  NPLWV =  13824
   max r-space proj   IRMAX =      1   max aug-charges    IRDMAX=  83790
   dimension x,y,z NGX =    24 NGY =   24 NGZ =   24
   dimension x,y,z NGXF=    48 NGYF=   48 NGZF=   48
   support grid    NGXF=    96 NGYF=   96 NGZF=   96
   ions per type =               1   1
   NGX,Y,Z   is equivalent  to a cutoff of  14.05, 14.05, 14.05 a.u.
   NGXF,Y,Z  is equivalent  to a cutoff of  28.09, 28.09, 28.09 a.u.

 SYSTEM =  unknown system                          
 POSCAR =  Li1 H1                                  

 Startparameter for this run:
   NWRITE =      2    write-flag & timer
   PREC   = accura    normal or accurate (medium, high low for compatibility)
   ISTART =      0    job   : 0-new  1-cont  2-samecut
   ICHARG =      2    charge: 1-file 2-atom 10-const
   ISPIN  =      2    spin polarized calculation?
   LNONCOLLINEAR =      F non collinear calculations
   LSORBIT =      F    spin-orbit coupling
   INIWAV =      1    electr: 0-lowe 1-rand  2-diag
   LASPH  =      T    aspherical Exc in radial PAW
   METAGGA=      F    non-selfconsistent MetaGGA calc.

 Electronic Relaxation 1
   ENCUT  =  680.0 eV  49.98 Ry    7.07 a.u.   6.04  6.04  6.04*2*pi/ulx,y,z
   ENINI  =  680.0     initial cutoff
   ENAUG  =  628.9 eV  augmentation charge cutoff
   NELM   =    200;   NELMIN=  2; NELMDL= -5     # of ELM steps 
   EDIFF  = 0.1E-04   stopping-criterion for ELM
   LREAL  =      F    real-space projection
   NLSPLINE    = F    spline interpolate recip. space projectors
   LCOMPAT=      F    compatible to vasp.4.4
   GGA_COMPAT  = T    GGA compatible to vasp.4.4-vasp.4.6
   LMAXPAW     = -100 max onsite density
   LMAXMIX     =    2 max onsite mixed and CHGCAR
   VOSKOWN=      0    Vosko Wilk Nusair interpolation
   ROPT   =    0.00000   0.00000
 Ionic relaxation
   EDIFFG = -.5E-01   stopping-criterion for IOM
   NSW    =     99    number of steps for IOM
   NBLOCK =      1;   KBLOCK =     99    inner block; outer block 
   IBRION =      2    ionic relax: 0-MD 1-quasi-New 2-CG
   NFREE  =      1    steps in history (QN), initial steepest desc. (CG)
   ISIF   =      3    stress and relaxation
   IWAVPR =     11    prediction:  0-non 1-charg 2-wave 3-comb
   ISYM   =      2    0-nonsym 1-usesym 2-fastsym
   LCORR  =      T    Harris-Foulkes like correction to forces

   POTIM  = 0.5000    time-step for ionic-motion
   TEIN   =    0.0    initial temperature
   TEBEG  =    0.0;   TEEND  =   0.0 temperature during run
   SMASS  =  -3.00    Nose mass-parameter (am)
   estimated Nose-frequenzy (Omega)   =  0.10E-29 period in steps = 0.13E+47 mass=  -0.184E-27a.u.
   SCALEE = 1.0000    scale energy and forces
   NPACO  =    256;   APACO  = 16.0  distance and # of slots for P.C.
   PSTRESS=    0.0 pullay stress

  Mass of Ions in am
   POMASS =   7.01  1.00
  Ionic Valenz
   ZVAL   =   3.00  1.00
  Atomic Wigner-Seitz radii
   RWIGS  =  -1.00 -1.00
  virtual crystal weights 
   VCA    =   1.00  1.00
   NELECT =       4.0000    total number of electrons
   NUPDOWN=      -1.0000    fix difference up-down

 DOS related values:
   EMIN   =  10.00;   EMAX   =-10.00  energy-range for DOS
   EFERMI =   0.00
   ISMEAR =     2;   SIGMA  =   0.20  broadening in eV -4-tet -1-fermi 0-gaus

 Electronic relaxation 2 (details)
   IALGO  =     58    algorithm
   LDIAG  =      T    sub-space diagonalisation (order eigenvalues)
   LSUBROT=      F    optimize rotation matrix (better conditioning)
   TURBO    =      0    0=normal 1=particle mesh
   IRESTART =      0    0=no restart 2=restart with 2 vectors
   NREBOOT  =      0    no. of reboots
   NMIN     =      0    reboot dimension
   EREF     =   0.00    reference energy to select bands
   IMIX   =      4    mixing-type and parameters
     AMIX     =   0.40;   BMIX     =  1.00
     AMIX_MAG =   1.60;   BMIX_MAG =  1.00
     AMIN     =   0.10
     WC   =   100.;   INIMIX=   1;  MIXPRE=   1;  MAXMIX= -45

 Intra band minimization:
   WEIMIN = 0.0010     energy-eigenvalue tresh-hold
   EBREAK =  0.78E-07  absolut break condition
   DEPER  =   0.30     relativ break condition  

   TIME   =   0.40     timestep for ELM

  volume/ion in A,a.u.               =       8.10        54.69
  Fermi-wavevector in a.u.,A,eV,Ry     =   1.026882  1.940525 14.347160  1.054486
  Thomas-Fermi vector in A             =   2.160798
 
 Write flags
   LWAVE        =      T    write WAVECAR
   LDOWNSAMPLE  =      F    k-point downsampling of WAVECAR
   LCHARG       =      T    write CHGCAR
   LVTOT        =      T    write LOCPOT, total local potential
   LVHAR        =      F    write LOCPOT, Hartree potential only
   LELF         =      T    write electronic localiz. function (ELF)
   LORBIT       =     11    0 simple, 1 ext, 2 COOP (PROOUT), +10 PAW based schemes


 Dipole corrections
   LMONO  =      F    monopole corrections only (constant potential shift)
   LDIPOL =      F    correct potential (dipole corrections)
   IDIPOL =      0    1-x, 2-y, 3-z, 4-all directions 
   EPSILON=  1.0000000 bulk dielectric constant

 Exchange correlation treatment:
   GGA     =    --    GGA type
   LEXCH   =     8    internal setting for exchange type
   VOSKOWN=      0    Vosko Wilk Nusair interpolation
   LHFCALC =     F    Hartree Fock is set to
   LHFONE  =     F    Hartree Fock one center treatment
   AEXX    =    0.0000 exact exchange contribution

 Linear response parameters
   LEPSILON=     F    determine dielectric tensor
   LRPA    =     F    only Hartree local field effects (RPA)
   LNABLA  =     F    use nabla operator in PAW spheres
   LVEL    =     F    velocity operator in full k-point grid
   LINTERFAST=   F  fast interpolation
   KINTER  =     0    interpolate to denser k-point grid
   CSHIFT  =0.1000    complex shift for real part using Kramers Kronig
   OMEGAMAX=  -1.0    maximum frequency
   DEG_THRESHOLD= 0.2000000E-02 threshold for treating states as degnerate
   RTIME   =   -0.100 relaxation time in fs
  (WPLASMAI=    0.000 imaginary part of plasma frequency in eV, 0.658/RTIME)
   DFIELD  = 0.0000000 0.0000000 0.0000000 field for delta impulse in time
 
 Orbital magnetization related:
   ORBITALMAG=     F  switch on orbital magnetization
   LCHIMAG   =     F  perturbation theory with respect to B field
   DQ        =  0.001000  dq finite difference perturbation B field
   LLRAUG    =     F  two centre corrections for induced B field



--------------------------------------------------------------------------------------------------------


 conjugate gradient relaxation of ions
 charge density and potential will be updated during run
 spin polarized calculation
 Conjugate gradient for all bands (Freysoldt, et al. PRB 79, 241103 (2009))
 preconditioned conjugated gradient                                        
 perform sub-space diagonalisation
    before iterative eigenvector-optimisation
 modified Broyden-mixing scheme, WC =      100.0
 initial mixing is a Kerker type mixing with AMIX =  0.4000 and BMIX =      1.0000
 Hartree-type preconditioning will be used
 using additional bands           30
 reciprocal scheme for non local part
 no Harris-corrections to forces 
 use gradient corrections 
 use of overlap-Matrix (Vanderbilt PP)
 Methfessel and Paxton  Order N= 2 SIGMA  =   0.20


--------------------------------------------------------------------------------------------------------


  energy-cutoff  :      680.00
  volume of cell :       16.21
      direct lattice vectors                 reciprocal lattice vectors
     2.460046000  0.000000000  1.420308000     0.406496464 -0.143718121  0.000000000
     0.820015000  2.319354000  1.420308000     0.000000000  0.431154537  0.000000000
     0.000000000  0.000000000  2.840617000    -0.203248160 -0.143718158  0.352036195

  length of vectors
     2.840616330  2.840616551  2.840617000     0.431154582  0.431154537  0.431154504


 
 k-points in units of 2pi/SCALE and weight: read from INCAR                         
   0.00000000  0.00000000  0.00000000       0.000
   0.03126896 -0.01105524  0.00000000       0.004
   0.06253792 -0.02211048  0.00000000       0.004
   0.09380688 -0.03316572  0.00000000       0.004
   0.12507584 -0.04422096  0.00000000       0.004
   0.15634479 -0.05527620  0.00000000       0.004
   0.18761375 -0.06633144  0.00000000       0.004
   0.03126896  0.02211049  0.00000000       0.003
   0.06253792  0.01105525  0.00000000       0.011
   0.09380688  0.00000001  0.00000000       0.011
   0.12507584 -0.01105523  0.00000000       0.011
   0.15634479 -0.02211047  0.00000000       0.011
   0.18761375 -0.03316571  0.00000000       0.011
  -0.18761375  0.09949717  0.00000000       0.011
  -0.15634479  0.08844193  0.00000000       0.011
  -0.12507584  0.07738669  0.00000000       0.011
  -0.09380688  0.06633145  0.00000000       0.011
  -0.06253792  0.05527621  0.00000000       0.011
  -0.03126896  0.04422097  0.00000000       0.005
   0.06253792  0.04422099  0.00000000       0.003
   0.09380688  0.03316575  0.00000000       0.011
   0.12507584  0.02211051  0.00000000       0.011
   0.15634479  0.01105527  0.00000000       0.011
   0.18761375  0.00000003  0.00000000       0.011
  -0.18761375  0.13266291  0.00000000       0.011
  -0.15634479  0.12160767  0.00000000       0.011
  -0.12507584  0.11055243  0.00000000       0.011
  -0.09380688  0.09949719  0.00000000       0.011
  -0.06253792  0.08844195  0.00000000       0.005
   0.09380688  0.06633148  0.00000000       0.003
   0.12507584  0.05527624  0.00000000       0.011
   0.15634479  0.04422100  0.00000000       0.011
   0.18761375  0.03316576  0.00000000       0.011
  -0.18761375  0.16582864  0.00000000       0.011
  -0.15634479  0.15477340  0.00000000       0.011
  -0.12507584  0.14371816  0.00000000       0.011
  -0.09380688  0.13266292  0.00000000       0.005
   0.12507584  0.08844197  0.00000000       0.003
   0.15634479  0.07738673  0.00000000       0.011
   0.18761375  0.06633149  0.00000000       0.011
  -0.18761375  0.19899437  0.00000000       0.011
  -0.15634479  0.18793913  0.00000000       0.011
  -0.12507584  0.17688389  0.00000000       0.005
   0.15634479  0.11055247  0.00000000       0.003
   0.18761375  0.09949723  0.00000000       0.011
  -0.18761375  0.23216011  0.00000000       0.011
  -0.15634479  0.22110487  0.00000000       0.005
   0.18761375  0.13266296  0.00000000       0.003
  -0.18761375  0.26532584  0.00000000       0.005
   0.07817240  0.02211050  0.02707971       0.011
   0.10944136  0.01105526  0.02707971       0.022
   0.14071032  0.00000002  0.02707971       0.022
   0.17197928 -0.01105522  0.02707971       0.022
  -0.20324823  0.12160766  0.02707971       0.022
   0.10944136  0.04422100  0.02707971       0.011
   0.14071032  0.03316576  0.02707971       0.022
   0.17197928  0.02211052  0.02707971       0.022
  -0.20324823  0.15477340  0.02707971       0.022
  -0.17197927  0.14371816  0.02707971       0.022
  -0.14071031  0.13266292  0.02707971       0.022
  -0.10944135  0.12160768  0.02707971       0.022
  -0.07817239  0.11055244  0.02707971       0.011
   0.14071032  0.06633149  0.02707971       0.011
   0.17197928  0.05527625  0.02707971       0.022
  -0.20324823  0.18793913  0.02707971       0.022
  -0.17197927  0.17688389  0.02707971       0.022
  -0.14071031  0.16582865  0.02707971       0.022
  -0.10944135  0.15477341  0.02707971       0.011
   0.17197928  0.08844198  0.02707971       0.011
  -0.20324823  0.22110487  0.02707971       0.022
  -0.17197927  0.21004963  0.02707971       0.022
  -0.14071031  0.19899439  0.02707971       0.011
  -0.20324823  0.25427060  0.02707971       0.011
  -0.17197927  0.24321536  0.02707971       0.011
   0.15634480  0.04422101  0.05415941       0.011
  -0.21888270  0.17688389  0.05415941       0.022
  -0.18761374  0.16582865  0.05415941       0.022
  -0.21888270  0.21004962  0.05415941       0.011
  -0.18761374  0.19899438  0.05415941       0.022
  -0.15634478  0.18793914  0.05415941       0.022
  -0.12507582  0.17688390  0.05415941       0.011
  -0.18761374  0.23216012  0.05415941       0.011
  -0.15634478  0.22110488  0.05415941       0.011
  -0.17197926  0.21004963  0.08123912       0.011
 
 k-points in reciprocal lattice and weights: read from INCAR                         
   0.00000000  0.00000000  0.00000000       0.000
   0.07692308 -0.00000000  0.00000000       0.004
   0.15384615 -0.00000000  0.00000000       0.004
   0.23076923  0.00000000  0.00000000       0.004
   0.30769231 -0.00000000  0.00000000       0.004
   0.38461538  0.00000000  0.00000000       0.004
   0.46153846 -0.00000000  0.00000000       0.004
   0.07692308  0.07692308  0.00000000       0.003
   0.15384615  0.07692308  0.00000000       0.011
   0.23076923  0.07692308  0.00000000       0.011
   0.30769231  0.07692308  0.00000000       0.011
   0.38461538  0.07692308  0.00000000       0.011
   0.46153846  0.07692308  0.00000000       0.011
  -0.46153846  0.07692308  0.00000000       0.011
  -0.38461538  0.07692308  0.00000000       0.011
  -0.30769231  0.07692308  0.00000000       0.011
  -0.23076923  0.07692308  0.00000000       0.011
  -0.15384615  0.07692308  0.00000000       0.011
  -0.07692308  0.07692308  0.00000000       0.005
   0.15384615  0.15384615  0.00000000       0.003
   0.23076923  0.15384615  0.00000000       0.011
   0.30769231  0.15384615  0.00000000       0.011
   0.38461538  0.15384615  0.00000000       0.011
   0.46153846  0.15384615  0.00000000       0.011
  -0.46153846  0.15384615  0.00000000       0.011
  -0.38461538  0.15384615  0.00000000       0.011
  -0.30769231  0.15384615  0.00000000       0.011
  -0.23076923  0.15384615  0.00000000       0.011
  -0.15384615  0.15384615  0.00000000       0.005
   0.23076923  0.23076923  0.00000000       0.003
   0.30769231  0.23076923  0.00000000       0.011
   0.38461538  0.23076923  0.00000000       0.011
   0.46153846  0.23076923  0.00000000       0.011
  -0.46153846  0.23076923  0.00000000       0.011
  -0.38461538  0.23076923  0.00000000       0.011
  -0.30769231  0.23076923  0.00000000       0.011
  -0.23076923  0.23076923  0.00000000       0.005
   0.30769231  0.30769231  0.00000000       0.003
   0.38461538  0.30769231  0.00000000       0.011
   0.46153846  0.30769231  0.00000000       0.011
  -0.46153846  0.30769231  0.00000000       0.011
  -0.38461538  0.30769231  0.00000000       0.011
  -0.30769231  0.30769231  0.00000000       0.005
   0.38461538  0.38461538  0.00000000       0.003
   0.46153846  0.38461538  0.00000000       0.011
  -0.46153846  0.38461538  0.00000000       0.011
  -0.38461538  0.38461538  0.00000000       0.005
   0.46153846  0.46153846  0.00000000       0.003
  -0.46153846  0.46153846  0.00000000       0.005
   0.23076923  0.15384615  0.07692308       0.011
   0.30769231  0.15384615  0.07692308       0.022
   0.38461538  0.15384615  0.07692308       0.022
   0.46153846  0.15384615  0.07692308       0.022
  -0.46153846  0.15384615  0.07692308       0.022
   0.30769231  0.23076923  0.07692308       0.011
   0.38461538  0.23076923  0.07692308       0.022
   0.46153846  0.23076923  0.07692308       0.022
  -0.46153846  0.23076923  0.07692308       0.022
  -0.38461538  0.23076923  0.07692308       0.022
  -0.30769231  0.23076923  0.07692308       0.022
  -0.23076923  0.23076923  0.07692308       0.022
  -0.15384615  0.23076923  0.07692308       0.011
   0.38461538  0.30769231  0.07692308       0.011
   0.46153846  0.30769231  0.07692308       0.022
  -0.46153846  0.30769231  0.07692308       0.022
  -0.38461538  0.30769231  0.07692308       0.022
  -0.30769231  0.30769231  0.07692308       0.022
  -0.23076923  0.30769231  0.07692308       0.011
   0.46153846  0.38461538  0.07692308       0.011
  -0.46153846  0.38461538  0.07692308       0.022
  -0.38461538  0.38461538  0.07692308       0.022
  -0.30769231  0.38461538  0.07692308       0.011
  -0.46153846  0.46153846  0.07692308       0.011
  -0.38461538  0.46153846  0.07692308       0.011
   0.46153846  0.30769231  0.15384615       0.011
  -0.46153846  0.30769231  0.15384615       0.022
  -0.38461538  0.30769231  0.15384615       0.022
  -0.46153846  0.38461538  0.15384615       0.011
  -0.38461538  0.38461538  0.15384615       0.022
  -0.30769231  0.38461538  0.15384615       0.022
  -0.23076923  0.38461538  0.15384615       0.011
  -0.38461538  0.46153846  0.15384615       0.011
  -0.30769231  0.46153846  0.15384615       0.011
  -0.30769231  0.46153846  0.23076923       0.011
 
 position of ions in fractional coordinates (direct lattice) 
   0.00000000  0.00000000  0.00000000
   0.50000000  0.50000000  0.50000000
 
 position of ions in cartesian coordinates  (Angst):
   0.00000000  0.00000000  0.00000000
   1.64003050  1.15967700  2.84061650
 


--------------------------------------------------------------------------------------------------------


 k-point  1 :   0.0000 0.0000 0.0000  plane waves:     645
 k-point  2 :   0.0769-0.0000 0.0000  plane waves:     634
 k-point  3 :   0.1538-0.0000 0.0000  plane waves:     646
 k-point  4 :   0.2308 0.0000 0.0000  plane waves:     646
 k-point  5 :   0.3077-0.0000 0.0000  plane waves:     646
 k-point  6 :   0.3846 0.0000 0.0000  plane waves:     640
 k-point  7 :   0.4615-0.0000 0.0000  plane waves:     646
 k-point  8 :   0.0769 0.0769 0.0000  plane waves:     645
 k-point  9 :   0.1538 0.0769 0.0000  plane waves:     653
 k-point 10 :   0.2308 0.0769 0.0000  plane waves:     648
 k-point 11 :   0.3077 0.0769 0.0000  plane waves:     643
 k-point 12 :   0.3846 0.0769 0.0000  plane waves:     641
 k-point 13 :   0.4615 0.0769 0.0000  plane waves:     645
 k-point 14 :  -0.4615 0.0769 0.0000  plane waves:     647
 k-point 15 :  -0.3846 0.0769 0.0000  plane waves:     648
 k-point 16 :  -0.3077 0.0769 0.0000  plane waves:     636
 k-point 17 :  -0.2308 0.0769 0.0000  plane waves:     641
 k-point 18 :  -0.1538 0.0769 0.0000  plane waves:     647
 k-point 19 :  -0.0769 0.0769 0.0000  plane waves:     642
 k-point 20 :   0.1538 0.1538 0.0000  plane waves:     653
 k-point 21 :   0.2308 0.1538 0.0000  plane waves:     657
 k-point 22 :   0.3077 0.1538 0.0000  plane waves:     646
 k-point 23 :   0.3846 0.1538 0.0000  plane waves:     642
 k-point 24 :   0.4615 0.1538 0.0000  plane waves:     647
 k-point 25 :  -0.4615 0.1538 0.0000  plane waves:     662
 k-point 26 :  -0.3846 0.1538 0.0000  plane waves:     653
 k-point 27 :  -0.3077 0.1538 0.0000  plane waves:     647
 k-point 28 :  -0.2308 0.1538 0.0000  plane waves:     641
 k-point 29 :  -0.1538 0.1538 0.0000  plane waves:     644
 k-point 30 :   0.2308 0.2308 0.0000  plane waves:     649
 k-point 31 :   0.3077 0.2308 0.0000  plane waves:     651
 k-point 32 :   0.3846 0.2308 0.0000  plane waves:     649
 k-point 33 :   0.4615 0.2308 0.0000  plane waves:     653
 k-point 34 :  -0.4615 0.2308 0.0000  plane waves:     654
 k-point 35 :  -0.3846 0.2308 0.0000  plane waves:     654
 k-point 36 :  -0.3077 0.2308 0.0000  plane waves:     654
 k-point 37 :  -0.2308 0.2308 0.0000  plane waves:     648
 k-point 38 :   0.3077 0.3077 0.0000  plane waves:     644
 k-point 39 :   0.3846 0.3077 0.0000  plane waves:     650
 k-point 40 :   0.4615 0.3077 0.0000  plane waves:     658
 k-point 41 :  -0.4615 0.3077 0.0000  plane waves:     656
 k-point 42 :  -0.3846 0.3077 0.0000  plane waves:     655
 k-point 43 :  -0.3077 0.3077 0.0000  plane waves:     666
 k-point 44 :   0.3846 0.3846 0.0000  plane waves:     660
 k-point 45 :   0.4615 0.3846 0.0000  plane waves:     656
 k-point 46 :  -0.4615 0.3846 0.0000  plane waves:     654
 k-point 47 :  -0.3846 0.3846 0.0000  plane waves:     660
 k-point 48 :   0.4615 0.4615 0.0000  plane waves:     652
 k-point 49 :  -0.4615 0.4615 0.0000  plane waves:     648
 k-point 50 :   0.2308 0.1538 0.0769  plane waves:     646
 k-point 51 :   0.3077 0.1538 0.0769  plane waves:     645
 k-point 52 :   0.3846 0.1538 0.0769  plane waves:     645
 k-point 53 :   0.4615 0.1538 0.0769  plane waves:     647
 k-point 54 :  -0.4615 0.1538 0.0769  plane waves:     653
 k-point 55 :   0.3077 0.2308 0.0769  plane waves:     654
 k-point 56 :   0.3846 0.2308 0.0769  plane waves:     642
 k-point 57 :   0.4615 0.2308 0.0769  plane waves:     650
 k-point 58 :  -0.4615 0.2308 0.0769  plane waves:     657
 k-point 59 :  -0.3846 0.2308 0.0769  plane waves:     658
 k-point 60 :  -0.3077 0.2308 0.0769  plane waves:     656
 k-point 61 :  -0.2308 0.2308 0.0769  plane waves:     648
 k-point 62 :  -0.1538 0.2308 0.0769  plane waves:     646
 k-point 63 :   0.3846 0.3077 0.0769  plane waves:     651
 k-point 64 :   0.4615 0.3077 0.0769  plane waves:     656
 k-point 65 :  -0.4615 0.3077 0.0769  plane waves:     659
 k-point 66 :  -0.3846 0.3077 0.0769  plane waves:     660
 k-point 67 :  -0.3077 0.3077 0.0769  plane waves:     663
 k-point 68 :  -0.2308 0.3077 0.0769  plane waves:     654
 k-point 69 :   0.4615 0.3846 0.0769  plane waves:     656
 k-point 70 :  -0.4615 0.3846 0.0769  plane waves:     661
 k-point 71 :  -0.3846 0.3846 0.0769  plane waves:     655
 k-point 72 :  -0.3077 0.3846 0.0769  plane waves:     661
 k-point 73 :  -0.4615 0.4615 0.0769  plane waves:     658
 k-point 74 :  -0.3846 0.4615 0.0769  plane waves:     656
 k-point 75 :   0.4615 0.3077 0.1538  plane waves:     647
 k-point 76 :  -0.4615 0.3077 0.1538  plane waves:     657
 k-point 77 :  -0.3846 0.3077 0.1538  plane waves:     657
 k-point 78 :  -0.4615 0.3846 0.1538  plane waves:     658
 k-point 79 :  -0.3846 0.3846 0.1538  plane waves:     661
 k-point 80 :  -0.3077 0.3846 0.1538  plane waves:     656
 k-point 81 :  -0.2308 0.3846 0.1538  plane waves:     657
 k-point 82 :  -0.3846 0.4615 0.1538  plane waves:     660
 k-point 83 :  -0.3077 0.4615 0.1538  plane waves:     660
 k-point 84 :  -0.3077 0.4615 0.2308  plane waves:     662

 maximum and minimum number of plane-waves per node :       666      634

 maximum number of plane-waves:       666
 maximum index in each direction: 
   IXMAX=    6   IYMAX=    6   IZMAX=    6
   IXMIN=   -6   IYMIN=   -6   IZMIN=   -6


 serial   3D FFT for wavefunctions
 parallel 3D FFT for charge:
    minimum data exchange during FFTs selected (reduces bandwidth)


 total amount of memory used by VASP MPI-rank0    42310. kBytes
=======================================================================

   base      :      30000. kBytes
   nonl-proj :       4537. kBytes
   fftplans  :        588. kBytes
   grid      :       1505. kBytes
   one-center:          4. kBytes
   wavefun   :       5676. kBytes
 
     INWAV:  cpu time    0.0125: real time    0.0008
 Broyden mixing: mesh for mixing (old mesh)
   NGX = 13   NGY = 13   NGZ = 13
  (NGX  = 48   NGY  = 48   NGZ  = 48)
  gives a total of   2197 points

 initial charge density was supplied:
 charge density of overlapping atoms calculated
 number of electron       4.0000000 magnetization       0.0000000
 keeping initial charge density in first step


--------------------------------------------------------------------------------------------------------


 Maximum index for augmentation-charges         2077 (set IRDMAX)


--------------------------------------------------------------------------------------------------------


 First call to EWALD:  gamma=   0.700
 Maximum number of real-space cells 3x 3x 3
 Maximum number of reciprocal cells 3x 3x 3

    FEWALD:  cpu time    0.0199: real time    0.0050


--------------------------------------- Iteration      1(   1)  ---------------------------------------


    POTLOK:  cpu time    0.1414: real time    0.0356
    SETDIJ:  cpu time    1.2987: real time    0.7275
    TRIAL :  cpu time   20.8916: real time    5.2370
    CORREC:  cpu time    0.0139: real time    0.0035
    --------------------------------------------
      LOOP:  cpu time   22.5944: real time    6.0847

 eigenvalue-minimisations  : 11424
 total energy-change (2. order) :-0.5560104E+01  (-0.3631051E+03)
 number of electron       4.0000000 magnetization       0.0000000
 augmentation part        4.0000000 magnetization       0.0000000

 Free energy of the ion-electron system (eV)
  ---------------------------------------------------
  alpha Z        PSCENC =         2.49496780
  Ewald energy   TEWEN  =       -93.89059935
  -Hartree energ DENC   =       -37.22552835
  -exchange      EXHF   =         0.00000000
  -V(xc)+E(xc)   XCENC  =        14.94181651
  PAW double counting   =        81.89565328      -97.30997178
  entropy T*S    EENTRO =         0.00038465
  eigenvalues    EBANDS =       -91.73526148
  atomic energy  EATOM  =       215.26843501
  ---------------------------------------------------
  free energy    TOTEN  =        -5.56010372 eV

  energy without entropy =       -5.56048837  energy(sigma->0) =       -5.56019988


--------------------------------------------------------------------------------------------------------




--------------------------------------- Iteration      1(   2)  ---------------------------------------


    TRIAL :  cpu time   31.6833: real time    7.9213
    CORREC:  cpu time    0.0131: real time    0.0033
    --------------------------------------------
      LOOP:  cpu time   31.7059: real time    7.9270

 eigenvalue-minimisations  : 16160
 total energy-change (2. order) :-0.8091519E+00  (-0.8088284E+00)
 number of electron       4.0000000 magnetization       0.0000000
 augmentation part        4.0000000 magnetization       0.0000000

 Free energy of the ion-electron system (eV)
  ---------------------------------------------------
  alpha Z        PSCENC =         2.49496780
  Ewald energy   TEWEN  =       -93.89059935
  -Hartree energ DENC   =       -37.22552835
  -exchange      EXHF   =         0.00000000
  -V(xc)+E(xc)   XCENC  =        14.94181651
  PAW double counting   =        81.89565328      -97.30997178
  entropy T*S    EENTRO =         0.00008189
  eigenvalues    EBANDS =       -92.54411061
  atomic energy  EATOM  =       215.26843501
  ---------------------------------------------------
  free energy    TOTEN  =        -6.36925561 eV

  energy without entropy =       -6.36933750  energy(sigma->0) =       -6.36927608


--------------------------------------------------------------------------------------------------------




--------------------------------------- Iteration      1(   3)  ---------------------------------------


    TRIAL :  cpu time   19.2619: real time    4.8158
    CORREC:  cpu time    0.0074: real time    0.0019
    --------------------------------------------
      LOOP:  cpu time   19.2788: real time    4.8203

 eigenvalue-minimisations  : 10848
 total energy-change (2. order) :-0.3615952E-03  (-0.3187985E-03)
 number of electron       4.0000000 magnetization       0.0000000
 augmentation part        4.0000000 magnetization       0.0000000

 Free energy of the ion-electron system (eV)
  ---------------------------------------------------
  alpha Z        PSCENC =         2.49496780
  Ewald energy   TEWEN  =       -93.89059935
  -Hartree energ DENC   =       -37.22552835
  -exchange      EXHF   =         0.00000000
  -V(xc)+E(xc)   XCENC  =        14.94181651
  PAW double counting   =        81.89565328      -97.30997178
  entropy T*S    EENTRO =        -0.00000000
  eigenvalues    EBANDS =       -92.54439032
  atomic energy  EATOM  =       215.26843501
  ---------------------------------------------------
  free energy    TOTEN  =        -6.36961721 eV

  energy without entropy =       -6.36961721  energy(sigma->0) =       -6.36961721


--------------------------------------------------------------------------------------------------------




--------------------------------------- Iteration      1(   4)  ---------------------------------------


    TRIAL :  cpu time   41.2160: real time   10.3051
    CORREC:  cpu time    0.0018: real time    0.0018
    --------------------------------------------
      LOOP:  cpu time   41.2262: real time   10.3093

 eigenvalue-minimisations  : 19264
 total energy-change (2. order) :-0.2192544E-07  (-0.2192545E-07)
 number of electron       4.0000000 magnetization       0.0000000
 augmentation part        4.0000000 magnetization       0.0000000

 Free energy of the ion-electron system (eV)
  ---------------------------------------------------
  alpha Z        PSCENC =         2.49496780
  Ewald energy   TEWEN  =       -93.89059935
  -Hartree energ DENC   =       -37.22552835
  -exchange      EXHF   =         0.00000000
  -V(xc)+E(xc)   XCENC  =        14.94181651
  PAW double counting   =        81.89565328      -97.30997178
  entropy T*S    EENTRO =        -0.00000000
  eigenvalues    EBANDS =       -92.54439034
  atomic energy  EATOM  =       215.26843501
  ---------------------------------------------------
  free energy    TOTEN  =        -6.36961723 eV

  energy without entropy =       -6.36961723  energy(sigma->0) =       -6.36961723


--------------------------------------------------------------------------------------------------------




--------------------------------------- Iteration      1(   5)  ---------------------------------------


    TRIAL :  cpu time   19.0906: real time    4.7715
    CORREC:  cpu time    0.0080: real time    0.0020
    CHARGE:  cpu time    0.2691: real time    0.0674
    --------------------------------------------
      LOOP:  cpu time   19.3792: real time    4.8433

 eigenvalue-minimisations  : 10784
 total energy-change (2. order) : 0.1421085E-13  ( 0.8994373E-14)
 number of electron       4.0000000 magnetization       0.0000000
 augmentation part        1.0030589 magnetization       0.0000000

 Free energy of the ion-electron system (eV)
  ---------------------------------------------------
  alpha Z        PSCENC =         2.49496780
  Ewald energy   TEWEN  =       -93.89059935
  -Hartree energ DENC   =       -37.22552835
  -exchange      EXHF   =         0.00000000
  -V(xc)+E(xc)   XCENC  =        14.94181651
  PAW double counting   =        81.89565328      -97.30997178
  entropy T*S    EENTRO =        -0.00000000
  eigenvalues    EBANDS =       -92.54439034
  atomic energy  EATOM  =       215.26843501
  ---------------------------------------------------
  free energy    TOTEN  =        -6.36961723 eV

  energy without entropy =       -6.36961723  energy(sigma->0) =       -6.36961723


--------------------------------------------------------------------------------------------------------




--------------------------------------- Iteration      1(   6)  ---------------------------------------


    POTLOK:  cpu time    0.1254: real time    0.0314
    SETDIJ:  cpu time    1.3380: real time    0.7687
    TRIAL :  cpu time   12.0352: real time    3.0116
    CORREC:  cpu time   10.2051: real time    2.9859
    CHARGE:  cpu time    0.2554: real time    0.0639
    --------------------------------------------
      LOOP:  cpu time   23.9695: real time    6.8642

 eigenvalue-minimisations  :     0
 total energy-change (2. order) : 0.3395852E+00  (-0.9196150E-01)
 number of electron       4.0000000 magnetization       0.0000000
 augmentation part        0.9764945 magnetization       0.0000000

 Free energy of the ion-electron system (eV)
  ---------------------------------------------------
  alpha Z        PSCENC =         2.49496780
  Ewald energy   TEWEN  =       -93.89059935
  -Hartree energ DENC   =       -36.55150235
  -exchange      EXHF   =         0.00000000
  -V(xc)+E(xc)   XCENC  =        15.22793715
  PAW double counting   =        83.32103806      -99.01979445
  entropy T*S    EENTRO =         0.00001320
  eigenvalues    EBANDS =       -92.88051384
  atomic energy  EATOM  =       215.26843501
  ---------------------------------------------------
  free energy    TOTEN  =        -6.03003199 eV

  energy without entropy =       -6.03004519  energy(sigma->0) =       -6.03003529


--------------------------------------------------------------------------------------------------------




--------------------------------------- Iteration      1(   7)  ---------------------------------------


    POTLOK:  cpu time    0.1218: real time    0.0304
    SETDIJ:  cpu time    1.3371: real time    0.7679
    TRIAL :  cpu time   11.9360: real time    2.9852
    CORREC:  cpu time   10.1805: real time    2.9796
    CHARGE:  cpu time    0.2547: real time    0.0637
    --------------------------------------------
      LOOP:  cpu time   23.8392: real time    6.8294

 eigenvalue-minimisations  :     0
 total energy-change (2. order) :-0.9332019E-01  (-0.3322542E-02)
 number of electron       4.0000000 magnetization       0.0000000
 augmentation part        0.9746761 magnetization       0.0000000

 Free energy of the ion-electron system (eV)
  ---------------------------------------------------
  alpha Z        PSCENC =         2.49496780
  Ewald energy   TEWEN  =       -93.89059935
  -Hartree energ DENC   =       -36.53467005
  -exchange      EXHF   =         0.00000000
  -V(xc)+E(xc)   XCENC  =        15.14267994
  PAW double counting   =        85.49174860     -101.18288255
  entropy T*S    EENTRO =         0.00001594
  eigenvalues    EBANDS =       -92.91304479
  atomic energy  EATOM  =       215.26843501
  ---------------------------------------------------
  free energy    TOTEN  =        -6.12335218 eV

  energy without entropy =       -6.12336812  energy(sigma->0) =       -6.12335617


--------------------------------------------------------------------------------------------------------




--------------------------------------- Iteration      1(   8)  ---------------------------------------


    POTLOK:  cpu time    0.1214: real time    0.0304
    SETDIJ:  cpu time    1.3368: real time    0.7676
    TRIAL :  cpu time   11.9332: real time    2.9846
    CORREC:  cpu time   10.1843: real time    2.9807
    CHARGE:  cpu time    0.2547: real time    0.0637
    --------------------------------------------
      LOOP:  cpu time   23.8403: real time    6.8296

 eigenvalue-minimisations  :     0
 total energy-change (2. order) :-0.3336579E-02  (-0.4477005E-04)
 number of electron       4.0000000 magnetization       0.0000000
 augmentation part        0.9746550 magnetization       0.0000000

 Free energy of the ion-electron system (eV)
  ---------------------------------------------------
  alpha Z        PSCENC =         2.49496780
  Ewald energy   TEWEN  =       -93.89059935
  -Hartree energ DENC   =       -36.53495089
  -exchange      EXHF   =         0.00000000
  -V(xc)+E(xc)   XCENC  =        15.13562656
  PAW double counting   =        85.36250730     -101.05842009
  entropy T*S    EENTRO =         0.00001602
  eigenvalues    EBANDS =       -92.90427104
  atomic energy  EATOM  =       215.26843501
  ---------------------------------------------------
  free energy    TOTEN  =        -6.12668876 eV

  energy without entropy =       -6.12670478  energy(sigma->0) =       -6.12669277


--------------------------------------------------------------------------------------------------------




--------------------------------------- Iteration      1(   9)  ---------------------------------------


    POTLOK:  cpu time    0.1214: real time    0.0303
    SETDIJ:  cpu time    1.3373: real time    0.7679
    TRIAL :  cpu time   11.9456: real time    2.9875
    CORREC:  cpu time   10.1727: real time    2.9782
    CHARGE:  cpu time    0.2543: real time    0.0637
    --------------------------------------------
      LOOP:  cpu time   23.8397: real time    6.8303

 eigenvalue-minimisations  :     0
 total energy-change (2. order) :-0.4488764E-04  (-0.8512713E-05)
 number of electron       4.0000000 magnetization       0.0000000
 augmentation part        0.9746963 magnetization       0.0000000

 Free energy of the ion-electron system (eV)
  ---------------------------------------------------
  alpha Z        PSCENC =         2.49496780
  Ewald energy   TEWEN  =       -93.89059935
  -Hartree energ DENC   =       -36.53488760
  -exchange      EXHF   =         0.00000000
  -V(xc)+E(xc)   XCENC  =        15.13516313
  PAW double counting   =        85.36655617     -101.06209104
  entropy T*S    EENTRO =         0.00001601
  eigenvalues    EBANDS =       -92.90429379
  atomic energy  EATOM  =       215.26843501
  ---------------------------------------------------
  free energy    TOTEN  =        -6.12673365 eV

  energy without entropy =       -6.12674966  energy(sigma->0) =       -6.12673765


--------------------------------------------------------------------------------------------------------




--------------------------------------- Iteration      1(  10)  ---------------------------------------


    POTLOK:  cpu time    0.1300: real time    0.0305
    SETDIJ:  cpu time    1.3373: real time    0.7680
    TRIAL :  cpu time   11.9374: real time    2.9856
    CORREC:  cpu time   10.1844: real time    2.9806
    EDDIAG:  cpu time    7.7568: real time    1.9393
    CHARGE:  cpu time    0.2681: real time    0.0671
    --------------------------------------------
      LOOP:  cpu time   31.6164: real time    8.7736

 eigenvalue-minimisations  :     0
 total energy-change (2. order) :-0.8974348E-05  (-0.1459537E-05)
 number of electron       4.0000000 magnetization       0.0000000
 augmentation part        0.9746124 magnetization       0.0000000

 Free energy of the ion-electron system (eV)
  ---------------------------------------------------
  alpha Z        PSCENC =         2.49496780
  Ewald energy   TEWEN  =       -93.89059935
  -Hartree energ DENC   =       -36.53382800
  -exchange      EXHF   =         0.00000000
  -V(xc)+E(xc)   XCENC  =        15.13461532
  PAW double counting   =        85.38337455     -101.07629552
  entropy T*S    EENTRO =         0.00001597
  eigenvalues    EBANDS =       -92.90742844
  atomic energy  EATOM  =       215.26843501
  ---------------------------------------------------
  free energy    TOTEN  =        -6.12674262 eV

  energy without entropy =       -6.12675859  energy(sigma->0) =       -6.12674661


--------------------------------------------------------------------------------------------------------


  average scaling for gradient   1.1916


 average (electrostatic) potential at core
  the test charge radii are     0.7079  0.5201
  (the norm of the test charge is              1.0000)
       1 -63.2729       2 -33.9858
 
 
 
 E-fermi :   0.1330     XC(G=0):  -8.4920     alpha+bet :-10.9325


 spin component 1

 k-point     1 :       0.0000    0.0000    0.0000
  band No.  band energies     occupation 
      1     -44.2306      1.00000
      2      -5.3540      1.00000
      3      16.0577      0.00000
      4      17.8837      0.00000
      5      17.8837      0.00000
      6      17.8837      0.00000
      7      22.5872      0.00000
      8      22.5872      0.00000
      9      22.5872      0.00000
     10      24.0896      0.00000
     11      28.6699      0.00000
     12      28.6699      0.00000
     13      28.6699      0.00000
     14      30.8775      0.00000
     15      30.8775      0.00000
     16      44.1577      0.00000
     17      62.0710      0.00000
     18      62.0710      0.00000
     19      62.0711      0.00000
     20      66.6943      0.00000
     21      66.6943      0.00000
     22      66.6943      0.00000
     23      67.2416      0.00000
     24      68.0565      0.00000
     25      68.0565      0.00000
     26      68.4653      0.00000
     27      68.4653      0.00000
     28      68.4653      0.00000
     29      84.3206      0.00000
     30      84.3206      0.00000
     31      84.3206      0.00000
     32      90.4438      0.00000

 k-point     2 :       0.0769   -0.0000    0.0000
  band No.  band energies     occupation 
      1     -44.2280      1.00000
      2      -5.2489      1.00000
      3      15.1908      0.00000
      4      17.1992      0.00000
      5      17.6368      0.00000
      6      17.6368      0.00000
      7      22.0111      0.00000
      8      23.1111      0.00000
      9      23.1112      0.00000
     10      26.4126      0.00000
     11      26.9735      0.00000
     12      26.9735      0.00000
     13      29.2834      0.00000
     14      32.9457      0.00000
     15      32.9457      0.00000
     16      43.9240      0.00000
     17      59.8008      0.00000
     18      60.3557      0.00000
     19      60.3557      0.00000
     20      64.5821      0.00000
     21      64.5821      0.00000
     22      66.7956      0.00000
     23      67.5592      0.00000
     24      67.5592      0.00000
     25      68.6304      0.00000
     26      69.4822      0.00000
     27      73.4161      0.00000
     28      73.4161      0.00000
     29      82.5095      0.00000
     30      82.5104      0.00000
     31      83.8029      0.00000
     32      89.4168      0.00000

 k-point     3 :       0.1538   -0.0000    0.0000
  band No.  band energies     occupation 
      1     -44.2209      1.00000
      2      -4.9396      1.00000
      3      12.9286      0.00000
      4      16.1776      0.00000
      5      17.1478      0.00000
      6      17.1478      0.00000
      7      22.3481      0.00000
      8      23.9335      0.00000
      9      23.9335      0.00000
     10      25.3925      0.00000
     11      25.3925      0.00000
     12      29.4734      0.00000
     13      31.5458      0.00000
     14      36.1373      0.00000
     15      36.1373      0.00000
     16      43.2202      0.00000
     17      55.9492      0.00000
     18      55.9492      0.00000
     19      56.7042      0.00000
     20      64.4022      0.00000
     21      64.4022      0.00000
     22      65.8417      0.00000
     23      68.0318      0.00000
     24      68.0318      0.00000
     25      69.1255      0.00000
     26      73.6247      0.00000
     27      78.3619      0.00000
     28      78.3623      0.00000
     29      79.5573      0.00000
     30      79.5574      0.00000
     31      81.7740      0.00000
     32      85.1129      0.00000

 k-point     4 :       0.2308    0.0000    0.0000
  band No.  band energies     occupation 
      1     -44.2108      1.00000
      2      -4.4410      1.00000
      3      10.3612      0.00000
      4      15.2649      0.00000
      5      16.7228      0.00000
      6      16.7228      0.00000
      7      22.5474      0.00000
      8      22.5474      0.00000
      9      23.2742      0.00000
     10      26.8600      0.00000
     11      26.8600      0.00000
     12      31.5783      0.00000
     13      35.7354      0.00000
     14      39.7063      0.00000
     15      39.7063      0.00000
     16      42.1872      0.00000
     17      51.2994      0.00000
     18      51.2994      0.00000
     19      54.0972      0.00000
     20      64.5362      0.00000
     21      64.9384      0.00000
     22      64.9384      0.00000
     23      68.8391      0.00000
     24      68.8391      0.00000
     25      69.9502      0.00000
     26      73.5740      0.00000
     27      73.5741      0.00000
     28      75.8759      0.00000
     29      79.0753      0.00000
     30      80.6981      0.00000
     31      81.1397      0.00000
     32      81.1397      0.00000

 k-point     5 :       0.3077   -0.0000    0.0000
  band No.  band energies     occupation 
      1     -44.2000      1.00000
      2      -3.7967      1.00000
      3       8.0311      0.00000
      4      14.5101      0.00000
      5      16.4816      0.00000
      6      16.4816      0.00000
      7      21.0129      0.00000
      8      21.0129      0.00000
      9      24.5300      0.00000
     10      29.2471      0.00000
     11      29.2471      0.00000
     12      33.0759      0.00000
     13      40.2105      0.00000
     14      41.8522      0.00000
     15      43.4826      0.00000
     16      43.4826      0.00000
     17      46.9970      0.00000
     18      46.9970      0.00000
     19      51.8859      0.00000
     20      63.2197      0.00000
     21      65.3673      0.00000
     22      65.3673      0.00000
     23      68.7486      0.00000
     24      68.7486      0.00000
     25      70.0003      0.00000
     26      70.0005      0.00000
     27      71.1033      0.00000
     28      71.9839      0.00000
     29      73.9861      0.00000
     30      77.9853      0.00000
     31      77.9854      0.00000
     32      80.7985      0.00000

 k-point     6 :       0.3846    0.0000    0.0000
  band No.  band energies     occupation 
      1     -44.1911      1.00000
      2      -3.1135      1.00000
      3       6.1858      0.00000
      4      13.9752      0.00000
      5      16.4324      0.00000
      6      16.4324      0.00000
      7      19.8375      0.00000
      8      19.8375      0.00000
      9      25.9304      0.00000
     10      32.0453      0.00000
     11      32.0453      0.00000
     12      33.3176      0.00000
     13      41.4759      0.00000
     14      42.4909      0.00000
     15      42.4909      0.00000
     16      46.3692      0.00000
     17      48.0740      0.00000
     18      48.0741      0.00000
     19      49.8132      0.00000
     20      62.1608      0.00000
     21      62.2478      0.00000
     22      62.2478      0.00000
     23      65.2036      0.00000
     24      67.7631      0.00000
     25      67.7631      0.00000
     26      71.4155      0.00000
     27      71.4163      0.00000
     28      71.9401      0.00000
     29      72.5804      0.00000
     30      75.4196      0.00000
     31      75.4197      0.00000
     32      78.0659      0.00000

 k-point     7 :       0.4615   -0.0000    0.0000
  band No.  band energies     occupation 
      1     -44.1861      1.00000
      2      -2.6231      1.00000
      3       5.1051      0.00000
      4      13.6990      0.00000
      5      16.4877      0.00000
      6      16.4877      0.00000
      7      19.1627      0.00000
      8      19.1627      0.00000
      9      27.0543      0.00000
     10      32.6730      0.00000
     11      35.1836      0.00000
     12      35.1836      0.00000
     13      38.7481      0.00000
     14      38.7481      0.00000
     15      42.9023      0.00000
     16      47.7493      0.00000
     17      52.3007      0.00000
     18      52.5157      0.00000
     19      52.5157      0.00000
     20      57.3771      0.00000
     21      57.3771      0.00000
     22      58.4342      0.00000
     23      61.9215      0.00000
     24      68.6037      0.00000
     25      68.6037      0.00000
     26      70.8264      0.00000
     27      73.0191      0.00000
     28      73.0230      0.00000
     29      73.7050      0.00000
     30      73.7050      0.00000
     31      74.3436      0.00000
     32      75.8085      0.00000

 k-point     8 :       0.0769    0.0769    0.0000
  band No.  band energies     occupation 
      1     -44.2272      1.00000
      2      -5.2135      1.00000
      3      15.2306      0.00000
      4      16.7877      0.00000
      5      16.7877      0.00000
      6      18.4812      0.00000
      7      20.5945      0.00000
      8      24.0541      0.00000
      9      24.0541      0.00000
     10      25.8299      0.00000
     11      26.5232      0.00000
     12      28.9447      0.00000
     13      28.9447      0.00000
     14      31.0957      0.00000
     15      34.7905      0.00000
     16      43.8689      0.00000
     17      59.5201      0.00000
     18      59.5201      0.00000
     19      60.5037      0.00000
     20      62.7575      0.00000
     21      65.7461      0.00000
     22      65.7461      0.00000
     23      66.9074      0.00000
     24      66.9665      0.00000
     25      69.9499      0.00000
     26      72.5735      0.00000
     27      72.5735      0.00000
     28      74.2038      0.00000
     29      81.6358      0.00000
     30      83.1181      0.00000
     31      83.1186      0.00000
     32      88.1175      0.00000

 k-point     9 :       0.1538    0.0769    0.0000
  band No.  band energies     occupation 
      1     -44.2216      1.00000
      2      -4.9694      1.00000
      3      13.6896      0.00000
      4      15.7555      0.00000
      5      15.9885      0.00000
      6      18.4889      0.00000
      7      20.4486      0.00000
      8      24.1167      0.00000
      9      25.1107      0.00000
     10      25.3351      0.00000
     11      27.6812      0.00000
     12      28.9495      0.00000
     13      30.3912      0.00000
     14      33.3883      0.00000
     15      37.5830      0.00000
     16      43.4068      0.00000
     17      55.7776      0.00000
     18      56.4273      0.00000
     19      59.3584      0.00000
     20      61.8046      0.00000
     21      62.6557      0.00000
     22      66.0179      0.00000
     23      66.5285      0.00000
     24      70.0045      0.00000
     25      71.4871      0.00000
     26      73.5916      0.00000
     27      76.9414      0.00000
     28      78.8615      0.00000
     29      79.3148      0.00000
     30      80.6003      0.00000
     31      80.7827      0.00000
     32      84.1379      0.00000

 k-point    10 :       0.2308    0.0769    0.0000
  band No.  band energies     occupation 
      1     -44.2125      1.00000
      2      -4.5274      1.00000
      3      11.2203      0.00000
      4      14.7827      0.00000
      5      15.3958      0.00000
      6      18.0656      0.00000
      7      21.4879      0.00000
      8      22.6601      0.00000
      9      24.8832      0.00000
     10      26.2407      0.00000
     11      28.1257      0.00000
     12      30.9808      0.00000
     13      34.3175      0.00000
     14      36.7875      0.00000
     15      40.3908      0.00000
     16      42.9137      0.00000
     17      51.1011      0.00000
     18      53.2755      0.00000
     19      56.2057      0.00000
     20      61.4549      0.00000
     21      62.2652      0.00000
     22      65.9058      0.00000
     23      66.6504      0.00000
     24      70.5536      0.00000
     25      74.2619      0.00000
     26      74.3835      0.00000
     27      75.1153      0.00000
     28      76.6500      0.00000
     29      77.6453      0.00000
     30      79.7533      0.00000
     31      81.7484      0.00000
     32      81.8929      0.00000

 k-point    11 :       0.3077    0.0769    0.0000
  band No.  band energies     occupation 
      1     -44.2019      1.00000
      2      -3.9190      1.00000
      3       8.7952      0.00000
      4      13.9439      0.00000
      5      15.0672      0.00000
      6      17.5070      0.00000
      7      21.3328      0.00000
      8      23.1744      0.00000
      9      23.2957      0.00000
     10      27.9263      0.00000
     11      30.3455      0.00000
     12      32.7860      0.00000
     13      39.0083      0.00000
     14      40.5275      0.00000
     15      40.8186      0.00000
     16      45.0162      0.00000
     17      46.6234      0.00000
     18      50.1938      0.00000
     19      52.9421      0.00000
     20      60.9882      0.00000
     21      63.1512      0.00000
     22      65.0635      0.00000
     23      67.4481      0.00000
     24      69.2088      0.00000
     25      71.8655      0.00000
     26      72.1727      0.00000
     27      72.6681      0.00000
     28      74.6285      0.00000
     29      75.5141      0.00000
     30      76.0256      0.00000
     31      78.4510      0.00000
     32      80.7344      0.00000

 k-point    12 :       0.3846    0.0769    0.0000
  band No.  band energies     occupation 
      1     -44.1924      1.00000
      2      -3.2237      1.00000
      3       6.7622      0.00000
      4      13.2904      0.00000
      5      15.0222      0.00000
      6      16.9077      0.00000
      7      20.6927      0.00000
      8      21.9003      0.00000
      9      24.8789      0.00000
     10      29.9652      0.00000
     11      33.0381      0.00000
     12      33.6865      0.00000
     13      40.4850      0.00000
     14      42.0216      0.00000
     15      44.5188      0.00000
     16      45.0093      0.00000
     17      45.8675      0.00000
     18      49.6287      0.00000
     19      50.4154      0.00000
     20      60.4334      0.00000
     21      62.4076      0.00000
     22      64.0696      0.00000
     23      66.3075      0.00000
     24      67.3333      0.00000
     25      67.6720      0.00000
     26      69.4239      0.00000
     27      70.0155      0.00000
     28      72.9272      0.00000
     29      73.0669      0.00000
     30      76.6813      0.00000
     31      76.7445      0.00000
     32      77.9687      0.00000

 k-point    13 :       0.4615    0.0769    0.0000
  band No.  band energies     occupation 
      1     -44.1862      1.00000
      2      -2.6271      1.00000
      3       5.3848      0.00000
      4      12.8635      0.00000
      5      15.2615      0.00000
      6      16.3380      0.00000
      7      20.5693      0.00000
      8      20.8152      0.00000
      9      26.5232      0.00000
     10      31.4447      0.00000
     11      34.1124      0.00000
     12      36.0561      0.00000
     13      38.3009      0.00000
     14      41.1789      0.00000
     15      43.3573      0.00000
     16      47.6776      0.00000
     17      49.2686      0.00000
     18      50.4284      0.00000
     19      53.6147      0.00000
     20      57.5263      0.00000
     21      60.5300      0.00000
     22      60.8865      0.00000
     23      61.1635      0.00000
     24      66.0920      0.00000
     25      67.2722      0.00000
     26      68.5012      0.00000
     27      70.0303      0.00000
     28      71.1951      0.00000
     29      73.6904      0.00000
     30      75.4052      0.00000
     31      75.4440      0.00000
     32      78.5157      0.00000

 k-point    14 :      -0.4615    0.0769    0.0000
  band No.  band energies     occupation 
      1     -44.1845      1.00000
      2      -2.4392      1.00000
      3       5.0014      0.00000
      4      12.6803      0.00000
      5      15.7654      0.00000
      6      15.9050      0.00000
      7      20.0808      0.00000
      8      20.9155      0.00000
      9      27.2321      0.00000
     10      31.5829      0.00000
     11      34.6339      0.00000
     12      36.2065      0.00000
     13      39.0353      0.00000
     14      39.5357      0.00000
     15      43.2894      0.00000
     16      46.7204      0.00000
     17      52.7360      0.00000
     18      53.8937      0.00000
     19      54.6176      0.00000
     20      56.1911      0.00000
     21      56.3753      0.00000
     22      58.3659      0.00000
     23      60.7377      0.00000
     24      66.6630      0.00000
     25      67.0749      0.00000
     26      68.4297      0.00000
     27      69.5225      0.00000
     28      71.4850      0.00000
     29      73.7799      0.00000
     30      74.4613      0.00000
     31      75.2148      0.00000
     32      79.0715      0.00000

 k-point    15 :      -0.3846    0.0769    0.0000
  band No.  band energies     occupation 
      1     -44.1878      1.00000
      2      -2.8006      1.00000
      3       5.7584      0.00000
      4      12.7379      0.00000
      5      15.7008      0.00000
      6      16.4723      0.00000
      7      19.7575      0.00000
      8      21.6580      0.00000
      9      26.3037      0.00000
     10      31.3990      0.00000
     11      32.3153      0.00000
     12      35.6813      0.00000
     13      39.4924      0.00000
     14      42.0025      0.00000
     15      43.2145      0.00000
     16      47.2052      0.00000
     17      49.1883      0.00000
[...]
  161          overl                                 0.022869                       1680   4
  162          redis_proj                            0.513133                       5040   4
  163            M_alltoall_d                          0.442317                     5040   5
  164          orth1_distri                          0.404292                       1680   4
  165            orth1_nosubindex                      0.069284                     1680   5
  166            m_sum_g                               0.278109                     1680   5
  167              M_sumb_d                              0.259365                   1680   6
  168            distri_slice                          0.009849                     1680   5
  169          choleski                              0.567113                       1680   4
  170            bg_ppotrf_trtri                       0.547179                     1680   5
  171          lincom_distri                         0.481615                       1680   4
  172            recon_slice                           0.011237                     1680   5
  173            m_sum_g                               0.318065                     1680   5
  174              M_sumb_d                              0.299147                   1680   6
  175            lincom_slice                          0.103306                     1680   5
  176        redis_pw_over_bands                   0.329382                           10   3
  177          redis_pw_all                          0.329258                         10   4
  178            redis_pw                              0.315047                     1680   5
  179              M_alltoall_d                          0.289408                   1680   6
  180      eddiag                                2.164820                              6   2
  181        fftwav_mpi                            0.243731                         1008   3
  182          fftwav                                0.232306                       1008   4
  183            fft3d                                 0.196532                     1008   5
  184        eccp                                  0.022747                          840   3
  185        M_sumb_d                              0.072072                          341   3
  186        overl                                 0.004584                          168   3
  187        redis_proj                            0.062647                          504   3
  188          M_alltoall_d                          0.054691                        504   4
  189        hamilt_local                          0.054344                          168   3
  190          vhamil                                0.005386                        168   4
  191          kinhamil                              0.045598                        168   4
  192            fftext_mpi                            0.042353                      168   5
  193              fft3d_mpi                             0.038908                    168   6
  194                fft3d                                 0.036746                  168   7
  195        redis_pw                              0.109659                          504   3
  196          M_alltoall_d                          0.098623                        504   4
  197        orth1                                 0.017065                          168   3
  198        shift_bands_between_low_high          0.000685                          168   3
  199        pdssyex_zheevx                        1.504031                          168   3
  200        lincom                                0.018605                          168   3
  201      rotate_active_occupied_orbital        0.000015                              1   2
  202      sphpro_fast                           0.830927                              2   2
  203        M_sumb_d                              0.003836                            5   3
  204      force_and_stress                      1.255240                              1   2
  205        forloc                                0.001154                            1   3
  206          M_sumb_d                              0.000851                          1   4
  207        fornl                                 0.010751                            1   3
  208          phase                                 0.003075                         84   4
  209          M_sumb_d                              0.000126                          2   4
  210        fordep                                0.044561                            1   3
  211          setdij_                               0.044418                          6   4
  212            fft3d_mpi                             0.029680                       24   5
  213              fftbas_plan_mpi                       0.028412                     24   6
  214                dfftw_execute                         0.003839                   72   7
  215                map_backward                          0.008277                   24   7
  216                  map_gather                            0.000168                 12   8
  217                  m_alltoallv_z                         0.007400                 12   8
  218                  map_scatter                           0.000278                 12   8
  219                map_forward                           0.010351                   24   7
  220                  map_gather                            0.000512                 12   8
  221                  m_alltoallv_z                         0.008648                 12   8
  222                  map_scatter                           0.000705                 12   8
  223            M_sumb_d                              0.002061                        6   5
  224        setdij_                               0.144984                           20   3
  225          fft3d_mpi                             0.096461                         80   4
  226            fftbas_plan_mpi                       0.092130                       80   5
  227              dfftw_execute                         0.012717                    240   6
  228              map_backward                          0.027175                     80   6
  229                map_gather                            0.000554                   40   7
  230                m_alltoallv_z                         0.024274                   40   7
  231                map_scatter                           0.000907                   40   7
  232              map_forward                           0.033674                     80   6
  233                map_gather                            0.001667                   40   7
  234                m_alltoallv_z                         0.028230                   40   7
  235                map_scatter                           0.002240                   40   7
  236          M_sumb_d                              0.006860                         20   4
  237        set_dd_magatom                        0.000008                            1   3
  238        set_dd_paw                            0.760746                            1   3
  239          set_rsgf_all                          0.000004                          1   4
  240          M_sumb_d                              0.760586                          7   4
  241        strkin                                0.000932                            1   3
  242          M_sumb_d                              0.000185                          1   4
  243        strelo                                0.000569                            1   3
  244          M_sumb_d                              0.000313                          2   4
  245        strenl                                0.275658                            1   3
  246          spher                                 0.178482                         19   4
  247          phase                                 0.029010                        756   4
  248          proj1                                 0.046470                       1512   4
  249            crexp_mul_wave                        0.011266                     1512   5
  250          M_sumb_d                              0.000076                          1   4
  251        M_bcast_d                             0.000129                            2   3
  252      set_dd_magatom                        0.000004                              1   2
  253      fftwav_mpi                            0.115424                            504   2
  254        fftwav                                0.109893                          504   3
  255          fft3d                                 0.091627                        504   4
  256      lprj_proall                           0.000007                              1   2
 
 Flat profile
 ============
 
             routine name                   CPU           calls
 ---------------------------------------------------------------
 eddav                                  20.497633           5
 pdssyex_zheevx                         17.090568        1848
 M_sumb_d                               15.437906       23116
 total_time                             12.934089           1
 M_alltoall_d                            7.785621       52108
 fft3d                                   2.996486       12008
 edwav                                   1.720034          10
 M_bcast_z                               0.902216        8356
 sphpro_fast                             0.827091           2
 orth1                                   0.802633        9108
 bg_ppotrf_trtri                         0.621621        1848
 redis_proj                              0.546975       33928
 redis_pw                                0.409596       18180
 fftwav                                  0.338247        8020
 m_alltoallv_z                           0.319354         642
 lincom                                  0.279090        3528
 M_bcast_d                               0.195213        3011
 spher                                   0.193626          20
 hamiltmu                                0.183648        2980
 w1_copy                                 0.163318        8940
 fftext_mpi                              0.163135        3988
 proj1                                   0.162063        4660
 overl                                   0.158837        9656
 eccp                                    0.156548        4200
 set_charge                              0.154354          11
 vnlac0                                  0.149018        3820
 gemm                                    0.129745        7640
 vhamil                                  0.128541        3988
 potlok                                  0.125503          13
 fftbas_plan_mpi                         0.122796         574
 orthch                                  0.118720          11
 phase                                   0.116836        2605
 lincom_slice                            0.116707        1848
 dfftw_execute                           0.111904        1722
 fftwav_mpi                              0.096429        8020
 work_mul_crexp                          0.089330        7640
 fft3d_mpi                               0.086701        4562
 setdij_                                 0.085858          39
 orth1_nosubindex                        0.080246        1848
 kinhamil                                0.076997        3988
 apply_precond                           0.069704        2140
 crexp_mul_wave                          0.058864        4660
 crpa_reader                             0.057843           1
 eddiag                                  0.054652           6
 lincom_distri                           0.054078        1848
 orth1_distri                            0.052039        1848
 overl1                                  0.041671        2980
 m_sum_g                                 0.041478        3696
 soft_charge                             0.037336          11
 densta                                  0.034972          22
 pw_charge                               0.034412        1848
 w1_projall                              0.027838        2140
 setup_precond                           0.022177         840
 choleski                                0.022135        1848
 strenl                                  0.021621           1
 hamilt_local                            0.020585        1008
 w1_dscal                                0.018094         840
 map_scatter                             0.017274         642
 force_and_stress                        0.015748           1
 redis_pw_all                            0.014211          10
 truncate_high_frequency_w1              0.014206        3820
 recon_slice                             0.012496        1848
 distri_slice                            0.011034        1848
 map_gather                              0.010963         642
 map_backward                            0.010823         584
 map_forward                             0.010668         564
 fornl                                   0.007550           1
 depsum                                  0.004762          11
 set_dd_paw                              0.002525          13
 proj                                    0.002320          84
 strkin                                  0.000747           1
 shift_bands_between_low_high            0.000685         168
 brgrid                                  0.000322           1
 forloc                                  0.000303           1
 strelo                                  0.000256           1
 fordep                                  0.000143           1
 redis_pw_over_bands                     0.000127          11
 set_rsgf_all                            0.000066          13
 potlok_metagga                          0.000053          13
 set_kineden                             0.000041          11
 vectorpot                               0.000021           1
 rotate_active_occupied_orbital          0.000015           1
 set_dd_magatom                          0.000012           2
 lprj_proall                             0.000007           1
 ---------------------------------------------------------------
  summed up times    87.4821088314056     
 
 Accumulative profile
 ====================
 
             routine name                   CPU           calls
 ---------------------------------------------------------------
 total_time                             87.482109           1
 eddav                                  33.037417           5
 edwav                                  25.276474          10
 pdssyex_zheevx                         17.090568        1848
 M_sumb_d                               15.437906       23116
 set_dd_paw                              9.852000          13
 M_alltoall_d                            7.785621       52108
 redis_proj                              4.447725       33928
 redis_pw                                4.294467       18180
 fft3d                                   2.996486       12008
 fftwav_mpi                              2.446433        8020
 orthch                                  2.437833          11
 fftwav                                  2.350004        8020
 eddiag                                  2.164820           6
 fft3d_mpi                               1.675211        4562
 hamiltmu                                1.616439        2980
 kinhamil                                1.281563        3988
 force_and_stress                        1.255240           1
 fftext_mpi                              1.204566        3988
 M_bcast_z                               0.902216        8356
 sphpro_fast                             0.830927           2
 orth1                                   0.802633        9108
 set_charge                              0.714736          11
 m_sum_g                                 0.666719        3696
 choleski                                0.643756        1848
 bg_ppotrf_trtri                         0.621621        1848
 fftbas_plan_mpi                         0.603781         574
 lincom_distri                           0.535428        1848
 soft_charge                             0.499889          11
 orth1_distri                            0.457892        1848
 potlok                                  0.402633          13
 vnlac0                                  0.368093        3820
 redis_pw_over_bands                     0.329385          11
 redis_pw_all                            0.329258          10
 hamilt_local                            0.323733        1008
 m_alltoallv_z                           0.319354         642
 setdij_                                 0.287408          39
 lincom                                  0.279090        3528
 strenl                                  0.275658           1
 proj1                                   0.220927        4660
 M_bcast_d                               0.195213        3011
 map_backward                            0.194815         584
 spher                                   0.193626          20
 map_forward                             0.174266         564
 w1_copy                                 0.163318        8940
 overl                                   0.158837        9656
 eccp                                    0.156548        4200
 w1_projall                              0.156411        2140
 gemm                                    0.129745        7640
 vhamil                                  0.128541        3988
 phase                                   0.116836        2605
 lincom_slice                            0.116707        1848
 dfftw_execute                           0.111904        1722
 work_mul_crexp                          0.089330        7640
 orth1_nosubindex                        0.080246        1848
 apply_precond                           0.069704        2140
 densta                                  0.061702          22
 crexp_mul_wave                          0.058864        4660
 crpa_reader                             0.057843           1
 fordep                                  0.044561           1
 overl1                                  0.041671        2980
 pw_charge                               0.034412        1848
 setup_precond                           0.022177         840
 w1_dscal                                0.018094         840
 map_scatter                             0.017274         642
 truncate_high_frequency_w1              0.014206        3820
 recon_slice                             0.012496        1848
 distri_slice                            0.011034        1848
 map_gather                              0.010963         642
 fornl                                   0.010751           1
 proj                                    0.007847          84
 depsum                                  0.006142          11
 forloc                                  0.001154           1
 strkin                                  0.000932           1
 shift_bands_between_low_high            0.000685         168
 strelo                                  0.000569           1
 brgrid                                  0.000322           1
 set_rsgf_all                            0.000066          13
 potlok_metagga                          0.000053          13
 set_kineden                             0.000041          11
 vectorpot                               0.000021           1
 rotate_active_occupied_orbital          0.000015           1
 set_dd_magatom                          0.000012           2
 lprj_proall                             0.000007           1
 ---------------------------------------------------------------
 
Profiling took   0.760024  0.913244  0.005456  0.004277 seconds
Profiling took   0.749534 seconds
