<?xml version="1.0" encoding="ISO-8859-1"?>
<modeling>
 <generator>
  <i name="program" type="string">vasp </i>
  <i name="version" type="string">6.0.8  </i>
  <i name="subversion" type="string">29Jun18 (build Jun 13 2019 12:54:44) complex                          parallel </i>
  <i name="platform" type="string">IFC18_CrayMPICH </i>
  <i name="date" type="string">2019 12 19 </i>
  <i name="time" type="string">12:58:59 </i>
 </generator>
 <incar>
  <i type="string" name="PREC"> Accurate</i>
  <i type="string" name="ALGO"> All</i>
  <i type="logical" name="ADDGRID"> T  </i>
  <i type="int" name="ISPIN">     2</i>
  <i type="int" name="ICHARG">     2</i>
  <i type="int" name="NELM">   200</i>
  <i type="int" name="IBRION">     2</i>
  <i name="EDIFF">      0.00001000</i>
  <i name="EDIFFG">     -0.05000000</i>
  <i type="int" name="NSW">    99</i>
  <i type="int" name="ISIF">     3</i>
  <i name="ENCUT">    680.00000000</i>
  <v name="MAGMOM">      0.00000000      0.00000000</v>
  <i type="logical" name="LREAL"> F  </i>
  <i type="int" name="ISMEAR">     2</i>
  <i name="SIGMA">      0.20000000</i>
  <i name="KSPACING">      0.22000000</i>
  <i type="logical" name="LWAVE"> T  </i>
  <i type="logical" name="LCHARG"> T  </i>
  <i type="logical" name="LVTOT"> T  </i>
  <i type="logical" name="LELF"> T  </i>
  <i type="logical" name="LASPH"> T  </i>
  <i type="logical" name="LAECHG"> T  </i>
  <i type="string" name="ALGO"> All</i>
  <i type="int" name="NELM">   200</i>
  <i name="EDIFF">      0.00001000</i>
  <i type="string" name="METAGGA"> None</i>
  <i type="logical" name="LASPH"> T  </i>
  <i type="logical" name="LMIXTAU"> T  </i>
  <i type="int" name="ISPIN">     2</i>
 </incar>
 <structure name="primitive_cell" >
  <crystal>
   <varray name="basis" >
    <v>       2.46004600       0.00000000       1.42030800 </v>
    <v>       0.82001500       2.31935400       1.42030800 </v>
    <v>       0.00000000       0.00000000       2.84061700 </v>
   </varray>
   <i name="volume">     16.20775821 </i>
   <varray name="rec_basis" >
    <v>       0.40649646      -0.14371812       0.00000000 </v>
    <v>       0.00000000       0.43115454       0.00000000 </v>
    <v>      -0.20324816      -0.14371816       0.35203619 </v>
   </varray>
  </crystal>
  <varray name="positions" >
   <v>       0.00000000       0.00000000       0.00000000 </v>
   <v>       0.50000000       0.50000000       0.50000000 </v>
  </varray>
 </structure>
 <varray name="primitive_index" >
  <v type="int" >        1 </v>
  <v type="int" >        2 </v>
 </varray>
 <kpoints>
  <generation param="Gamma">
   <v type="int" name="divisions">      13       13       13 </v>
   <v name="usershift">      0.00000000       0.00000000       0.00000000 </v>
   <v name="genvec1">      0.07692308      -0.00000000       0.00000000 </v>
   <v name="genvec2">      0.00000000       0.07692308       0.00000000 </v>
   <v name="genvec3">     -0.00000000       0.00000000       0.07692308 </v>
   <v name="shift">      0.00000000       0.00000000       0.00000000 </v>
  </generation>
  <varray name="kpointlist" >
   <v>       0.00000000       0.00000000       0.00000000 </v>
   <v>       0.07692308      -0.00000000       0.00000000 </v>
   <v>       0.15384615      -0.00000000       0.00000000 </v>
   <v>       0.23076923       0.00000000       0.00000000 </v>
   <v>       0.30769231      -0.00000000       0.00000000 </v>
   <v>       0.38461538       0.00000000       0.00000000 </v>
   <v>       0.46153846      -0.00000000       0.00000000 </v>
   <v>       0.07692308       0.07692308       0.00000000 </v>
   <v>       0.15384615       0.07692308       0.00000000 </v>
   <v>       0.23076923       0.07692308       0.00000000 </v>
   <v>       0.30769231       0.07692308       0.00000000 </v>
   <v>       0.38461538       0.07692308       0.00000000 </v>
   <v>       0.46153846       0.07692308       0.00000000 </v>
   <v>      -0.46153846       0.07692308       0.00000000 </v>
   <v>      -0.38461538       0.07692308       0.00000000 </v>
   <v>      -0.30769231       0.07692308       0.00000000 </v>
   <v>      -0.23076923       0.07692308       0.00000000 </v>
   <v>      -0.15384615       0.07692308       0.00000000 </v>
   <v>      -0.07692308       0.07692308       0.00000000 </v>
   <v>       0.15384615       0.15384615       0.00000000 </v>
   <v>       0.23076923       0.15384615       0.00000000 </v>
   <v>       0.30769231       0.15384615       0.00000000 </v>
   <v>       0.38461538       0.15384615       0.00000000 </v>
   <v>       0.46153846       0.15384615       0.00000000 </v>
   <v>      -0.46153846       0.15384615       0.00000000 </v>
   <v>      -0.38461538       0.15384615       0.00000000 </v>
   <v>      -0.30769231       0.15384615       0.00000000 </v>
   <v>      -0.23076923       0.15384615       0.00000000 </v>
   <v>      -0.15384615       0.15384615       0.00000000 </v>
   <v>       0.23076923       0.23076923       0.00000000 </v>
   <v>       0.30769231       0.23076923       0.00000000 </v>
   <v>       0.38461538       0.23076923       0.00000000 </v>
   <v>       0.46153846       0.23076923       0.00000000 </v>
   <v>      -0.46153846       0.23076923       0.00000000 </v>
   <v>      -0.38461538       0.23076923       0.00000000 </v>
   <v>      -0.30769231       0.23076923       0.00000000 </v>
   <v>      -0.23076923       0.23076923       0.00000000 </v>
   <v>       0.30769231       0.30769231       0.00000000 </v>
   <v>       0.38461538       0.30769231       0.00000000 </v>
   <v>       0.46153846       0.30769231       0.00000000 </v>
   <v>      -0.46153846       0.30769231       0.00000000 </v>
   <v>      -0.38461538       0.30769231       0.00000000 </v>
   <v>      -0.30769231       0.30769231       0.00000000 </v>
   <v>       0.38461538       0.38461538       0.00000000 </v>
   <v>       0.46153846       0.38461538       0.00000000 </v>
   <v>      -0.46153846       0.38461538       0.00000000 </v>
   <v>      -0.38461538       0.38461538       0.00000000 </v>
   <v>       0.46153846       0.46153846       0.00000000 </v>
   <v>      -0.46153846       0.46153846       0.00000000 </v>
   <v>       0.23076923       0.15384615       0.07692308 </v>
   <v>       0.30769231       0.15384615       0.07692308 </v>
   <v>       0.38461538       0.15384615       0.07692308 </v>
   <v>       0.46153846       0.15384615       0.07692308 </v>
   <v>      -0.46153846       0.15384615       0.07692308 </v>
   <v>       0.30769231       0.23076923       0.07692308 </v>
   <v>       0.38461538       0.23076923       0.07692308 </v>
   <v>       0.46153846       0.23076923       0.07692308 </v>
   <v>      -0.46153846       0.23076923       0.07692308 </v>
   <v>      -0.38461538       0.23076923       0.07692308 </v>
   <v>      -0.30769231       0.23076923       0.07692308 </v>
   <v>      -0.23076923       0.23076923       0.07692308 </v>
   <v>      -0.15384615       0.23076923       0.07692308 </v>
   <v>       0.38461538       0.30769231       0.07692308 </v>
   <v>       0.46153846       0.30769231       0.07692308 </v>
   <v>      -0.46153846       0.30769231       0.07692308 </v>
   <v>      -0.38461538       0.30769231       0.07692308 </v>
   <v>      -0.30769231       0.30769231       0.07692308 </v>
   <v>      -0.23076923       0.30769231       0.07692308 </v>
   <v>       0.46153846       0.38461538       0.07692308 </v>
   <v>      -0.46153846       0.38461538       0.07692308 </v>
   <v>      -0.38461538       0.38461538       0.07692308 </v>
   <v>      -0.30769231       0.38461538       0.07692308 </v>
   <v>      -0.46153846       0.46153846       0.07692308 </v>
   <v>      -0.38461538       0.46153846       0.07692308 </v>
   <v>       0.46153846       0.30769231       0.15384615 </v>
   <v>      -0.46153846       0.30769231       0.15384615 </v>
   <v>      -0.38461538       0.30769231       0.15384615 </v>
   <v>      -0.46153846       0.38461538       0.15384615 </v>
   <v>      -0.38461538       0.38461538       0.15384615 </v>
   <v>      -0.30769231       0.38461538       0.15384615 </v>
   <v>      -0.23076923       0.38461538       0.15384615 </v>
   <v>      -0.38461538       0.46153846       0.15384615 </v>
   <v>      -0.30769231       0.46153846       0.15384615 </v>
   <v>      -0.30769231       0.46153846       0.23076923 </v>
  </varray>
  <varray name="weights" >
   <v>       0.00045517 </v>
   <v>       0.00364133 </v>
   <v>       0.00364133 </v>
   <v>       0.00364133 </v>
   <v>       0.00364133 </v>
   <v>       0.00364133 </v>
   <v>       0.00364133 </v>
   <v>       0.00273100 </v>
   <v>       0.01092399 </v>
   <v>       0.01092399 </v>
   <v>       0.01092399 </v>
   <v>       0.01092399 </v>
   <v>       0.01092399 </v>
   <v>       0.01092399 </v>
   <v>       0.01092399 </v>
   <v>       0.01092399 </v>
   <v>       0.01092399 </v>
   <v>       0.01092399 </v>
   <v>       0.00546199 </v>
   <v>       0.00273100 </v>
   <v>       0.01092399 </v>
   <v>       0.01092399 </v>
   <v>       0.01092399 </v>
   <v>       0.01092399 </v>
   <v>       0.01092399 </v>
   <v>       0.01092399 </v>
   <v>       0.01092399 </v>
   <v>       0.01092399 </v>
   <v>       0.00546199 </v>
   <v>       0.00273100 </v>
   <v>       0.01092399 </v>
   <v>       0.01092399 </v>
   <v>       0.01092399 </v>
   <v>       0.01092399 </v>
   <v>       0.01092399 </v>
   <v>       0.01092399 </v>
   <v>       0.00546199 </v>
   <v>       0.00273100 </v>
   <v>       0.01092399 </v>
   <v>       0.01092399 </v>
   <v>       0.01092399 </v>
   <v>       0.01092399 </v>
   <v>       0.00546199 </v>
   <v>       0.00273100 </v>
   <v>       0.01092399 </v>
   <v>       0.01092399 </v>
   <v>       0.00546199 </v>
   <v>       0.00273100 </v>
   <v>       0.00546199 </v>
   <v>       0.01092399 </v>
   <v>       0.02184797 </v>
   <v>       0.02184797 </v>
   <v>       0.02184797 </v>
   <v>       0.02184797 </v>
   <v>       0.01092399 </v>
   <v>       0.02184797 </v>
   <v>       0.02184797 </v>
   <v>       0.02184797 </v>
   <v>       0.02184797 </v>
   <v>       0.02184797 </v>
   <v>       0.02184797 </v>
   <v>       0.01092399 </v>
   <v>       0.01092399 </v>
   <v>       0.02184797 </v>
   <v>       0.02184797 </v>
   <v>       0.02184797 </v>
   <v>       0.02184797 </v>
   <v>       0.01092399 </v>
   <v>       0.01092399 </v>
   <v>       0.02184797 </v>
   <v>       0.02184797 </v>
   <v>       0.01092399 </v>
   <v>       0.01092399 </v>
   <v>       0.01092399 </v>
   <v>       0.01092399 </v>
   <v>       0.02184797 </v>
   <v>       0.02184797 </v>
   <v>       0.01092399 </v>
   <v>       0.02184797 </v>
   <v>       0.02184797 </v>
   <v>       0.01092399 </v>
   <v>       0.01092399 </v>
   <v>       0.01092399 </v>
   <v>       0.01092399 </v>
  </varray>
 </kpoints>
 <parameters>
  <separator name="general" >
   <i type="string" name="SYSTEM">unknown system</i>
   <i type="logical" name="LCOMPAT"> F  </i>
  </separator>
  <separator name="electronic" >
   <i type="string" name="PREC">accura</i>
   <i name="ENMAX">    680.00000000</i>
   <i name="ENAUG">    628.94500000</i>
   <i name="EDIFF">      0.00001000</i>
   <i type="int" name="IALGO">    58</i>
   <i type="int" name="IWAVPR">    11</i>
   <i type="int" name="NBANDS">    32</i>
   <i type="int" name="NBANDSLOW">    -1</i>
   <i type="int" name="NBANDSHIGH">    -1</i>
   <i name="NELECT">      4.00000000</i>
   <i type="int" name="TURBO">     0</i>
   <i type="int" name="IRESTART">     0</i>
   <i type="int" name="NREBOOT">     0</i>
   <i type="int" name="NMIN">     0</i>
   <i name="EREF">      0.00000000</i>
   <separator name="electronic smearing" >
    <i type="int" name="ISMEAR">     2</i>
    <i name="SIGMA">      0.20000000</i>
    <i name="KSPACING">      0.22000000</i>
    <i type="logical" name="KGAMMA"> T  </i>
    <i type="logical" name="KBLOWUP"> T  </i>
   </separator>
   <separator name="electronic projectors" >
    <i type="logical" name="LREAL"> F  </i>
    <v name="ROPT">      0.00000000      0.00000000</v>
    <i type="int" name="LMAXPAW">  -100</i>
    <i type="int" name="LMAXMIX">     2</i>
    <i type="logical" name="NLSPLINE"> F  </i>
   </separator>
   <separator name="electronic startup" >
    <i type="int" name="ISTART">     0</i>
    <i type="int" name="ICHARG">     2</i>
    <i type="int" name="INIWAV">     1</i>
   </separator>
   <separator name="electronic spin" >
    <i type="int" name="ISPIN">     2</i>
    <i type="logical" name="LNONCOLLINEAR"> F  </i>
    <v name="MAGMOM">      0.00000000      0.00000000</v>
    <i name="NUPDOWN">     -1.00000000</i>
    <i type="logical" name="LSORBIT"> F  </i>
    <v name="SAXIS">      0.00000000      0.00000000      1.00000000</v>
    <i type="logical" name="LSPIRAL"> F  </i>
    <v name="QSPIRAL">      0.00000000      0.00000000      0.00000000</v>
    <i type="logical" name="LZEROZ"> F  </i>
   </separator>
   <separator name="electronic exchange-correlation" >
    <i type="logical" name="LASPH"> T  </i>
    <i type="logical" name="LMETAGGA"> F  </i>
   </separator>
   <separator name="electronic convergence" >
    <i type="int" name="NELM">   200</i>
    <i type="int" name="NELMDL">    -5</i>
    <i type="int" name="NELMIN">     2</i>
    <i name="ENINI">    680.00000000</i>
    <separator name="electronic convergence detail" >
     <i type="logical" name="LDIAG"> T  </i>
     <i type="logical" name="LSUBROT"> F  </i>
     <i name="WEIMIN">      0.00100000</i>
     <i name="EBREAK">      0.00000008</i>
     <i name="DEPER">      0.30000000</i>
     <i type="int" name="NRMM">     4</i>
     <i name="TIME">      0.40000000</i>
    </separator>
   </separator>
   <separator name="electronic mixer" >
    <i name="AMIX">      0.40000000</i>
    <i name="BMIX">      1.00000000</i>
    <i name="AMIN">      0.10000000</i>
    <i name="AMIX_MAG">      1.60000000</i>
    <i name="BMIX_MAG">      1.00000000</i>
    <separator name="electronic mixer details" >
     <i type="int" name="IMIX">     4</i>
     <i type="logical" name="MIXFIRST"> F  </i>
     <i type="int" name="MAXMIX">   -45</i>
     <i name="WC">    100.00000000</i>
     <i type="int" name="INIMIX">     1</i>
     <i type="int" name="MIXPRE">     1</i>
     <i type="int" name="MREMOVE">     5</i>
    </separator>
   </separator>
   <separator name="electronic dipolcorrection" >
    <i type="logical" name="LDIPOL"> F  </i>
    <i type="logical" name="LMONO"> F  </i>
    <i type="int" name="IDIPOL">     0</i>
    <i name="EPSILON">      1.00000000</i>
    <v name="DIPOL">   -100.00000000   -100.00000000   -100.00000000</v>
    <i name="EFIELD">      0.00000000</i>
   </separator>
  </separator>
  <separator name="grids" >
   <i type="int" name="NGX">    24</i>
   <i type="int" name="NGY">    24</i>
   <i type="int" name="NGZ">    24</i>
   <i type="int" name="NGXF">    48</i>
   <i type="int" name="NGYF">    48</i>
   <i type="int" name="NGZF">    48</i>
   <i type="logical" name="ADDGRID"> T  </i>
  </separator>
  <separator name="ionic" >
   <i type="int" name="NSW">    99</i>
   <i type="int" name="IBRION">     2</i>
   <i type="int" name="MDALGO">     0</i>
   <i type="int" name="ISIF">     3</i>
   <i name="PSTRESS">      0.00000000</i>
   <i name="EDIFFG">     -0.05000000</i>
   <i type="int" name="NFREE">     1</i>
   <i name="POTIM">      0.50000000</i>
   <i name="SMASS">     -3.00000000</i>
   <i name="SCALEE">      1.00000000</i>
  </separator>
  <separator name="ionic md" >
   <i name="TEBEG">      0.00010000</i>
   <i name="TEEND">      0.00010000</i>
   <i type="int" name="NBLOCK">     1</i>
   <i type="int" name="KBLOCK">    99</i>
   <i type="int" name="NPACO">   256</i>
   <i name="APACO">     16.00000000</i>
  </separator>
  <separator name="symmetry" >
   <i type="int" name="ISYM">     2</i>
   <i name="SYMPREC">      0.00001000</i>
  </separator>
  <separator name="dos" >
   <i type="int" name="LORBIT">    11</i>
   <v name="RWIGS">     -1.00000000     -1.00000000</v>
   <i type="int" name="NEDOS">   301</i>
   <i name="EMIN">     10.00000000</i>
   <i name="EMAX">    -10.00000000</i>
   <i name="EFERMI">      0.00000000</i>
  </separator>
  <separator name="writing" >
   <i type="int" name="NWRITE">     2</i>
   <i type="logical" name="LWAVE"> T  </i>
   <i type="logical" name="LDOWNSAMPLE"> F  </i>
   <i type="logical" name="LCHARG"> T  </i>
   <i type="logical" name="LPARD"> F  </i>
   <i type="logical" name="LVTOT"> T  </i>
   <i type="logical" name="LVHAR"> F  </i>
   <i type="logical" name="LELF"> T  </i>
   <i type="logical" name="LOPTICS"> F  </i>
   <v name="STM">      0.00000000      0.00000000      0.00000000      0.00000000      0.00000000      0.00000000      0.00000000</v>
  </separator>
  <separator name="performance" >
   <i type="int" name="NPAR">    32</i>
   <i type="int" name="NSIM">     4</i>
   <i type="int" name="NBLK">    -1</i>
   <i type="logical" name="LPLANE"> T  </i>
   <i type="logical" name="LSCALAPACK"> T  </i>
   <i type="logical" name="LSCAAWARE"> T  </i>
   <i type="logical" name="LSCALU"> F  </i>
   <i type="logical" name="LASYNC"> F  </i>
   <i type="logical" name="LORBITALREAL"> F  </i>
  </separator>
  <separator name="miscellaneous" >
   <i type="int" name="IDIOT">     3</i>
   <i type="int" name="PHON_NSTRUCT">    -1</i>
   <i type="logical" name="LMUSIC"> F  </i>
   <v name="POMASS">      7.01000000      1.00000000</v>
   <v name="DARWINR">      0.00000000      0.00000000</v>
   <v name="DARWINV">      1.00000000      1.00000000</v>
   <i type="logical" name="LCORR"> T  </i>
  </separator>
  <i type="logical" name="GGA_COMPAT"> T  </i>
  <i type="logical" name="LBERRY"> F  </i>
  <i type="int" name="ICORELEVEL">     0</i>
  <i type="logical" name="LDAU"> F  </i>
  <i type="int" name="I_CONSTRAINED_M">     0</i>
  <separator name="electronic exchange-correlation" >
   <i type="string" name="GGA">--</i>
   <i type="int" name="VOSKOWN">     0</i>
   <i type="logical" name="LHFCALC"> F  </i>
   <i type="string" name="PRECFOCK"></i>
   <i type="logical" name="LSYMGRAD"> F  </i>
   <i type="logical" name="LHFONE"> F  </i>
   <i type="logical" name="LRHFCALC"> F  </i>
   <i type="logical" name="LTHOMAS"> F  </i>
   <i type="logical" name="LMODELHF"> F  </i>
   <i type="logical" name="LFOCKACE"> F  </i>
   <i name="ENCUT4O">     -1.00000000</i>
   <i type="int" name="EXXOEP">     0</i>
   <i type="int" name="FOURORBIT">     0</i>
   <i name="AEXX">      0.00000000</i>
   <i name="HFALPHA">      0.00000000</i>
   <i name="MCALPHA">      0.00000000</i>
   <i name="ALDAX">      1.00000000</i>
   <i name="AGGAX">      1.00000000</i>
   <i name="ALDAC">      1.00000000</i>
   <i name="AGGAC">      1.00000000</i>
   <i type="int" name="NKREDX">     1</i>
   <i type="int" name="NKREDY">     1</i>
   <i type="int" name="NKREDZ">     1</i>
   <i type="logical" name="SHIFTRED"> F  </i>
   <i type="logical" name="ODDONLY"> F  </i>
   <i type="logical" name="EVENONLY"> F  </i>
   <i type="int" name="LMAXFOCK">     0</i>
   <i type="int" name="NMAXFOCKAE">     0</i>
   <i type="logical" name="LFOCKAEDFT"> F  </i>
   <i name="HFSCREEN">      0.00000000</i>
   <i name="HFSCREENC">      0.00000000</i>
   <i type="int" name="NBANDSGWLOW">     0</i>
  </separator>
  <separator name="vdW DFT" >
   <i type="logical" name="LUSE_VDW"> F  </i>
   <i name="Zab_VDW">     -0.84910000</i>
   <i name="PARAM1">      0.12340000</i>
   <i name="PARAM2">      1.00000000</i>
   <i name="PARAM3">      0.00000000</i>
  </separator>
  <separator name="model GW" >
   <i type="int" name="MODEL_GW">     0</i>
   <i name="MODEL_EPS0">      4.86232746</i>
   <i name="MODEL_ALPHA">      1.00000000</i>
  </separator>
  <separator name="linear response parameters" >
   <i type="logical" name="LEPSILON"> F  </i>
   <i type="logical" name="LRPA"> F  </i>
   <i type="logical" name="LNABLA"> F  </i>
   <i type="logical" name="LVEL"> F  </i>
   <i type="int" name="KINTER">     0</i>
   <i name="CSHIFT">      0.10000000</i>
   <i name="OMEGAMAX">     -1.00000000</i>
   <i name="DEG_THRESHOLD">      0.00200000</i>
   <i name="RTIME">     -0.10000000</i>
   <i name="WPLASMAI">      0.00000000</i>
   <v name="DFIELD">      0.00000000      0.00000000      0.00000000</v>
   <v name="WPLASMA">      0.00000000      0.00000000      0.00000000      0.00000000      0.00000000      0.00000000      0.00000000      0.00000000      0.00000000</v>
  </separator>
  <separator name="orbital magnetization" >
   <i type="logical" name="NUCIND"> F  </i>
   <v name="MAGPOS">      0.00000000      0.00000000      0.00000000</v>
   <i type="logical" name="LNICSALL"> T  </i>
   <i type="logical" name="ORBITALMAG"> F  </i>
   <i type="logical" name="LMAGBLOCH"> F  </i>
   <i type="logical" name="LCHIMAG"> F  </i>
   <i type="logical" name="LGAUGE"> T  </i>
   <i type="int" name="MAGATOM">     0</i>
   <v name="MAGDIPOL">      0.00000000      0.00000000      0.00000000</v>
   <v name="AVECCONST">      0.00000000      0.00000000      0.00000000</v>
  </separator>
  <separator name="response functions" >
   <i type="logical" name="LFINITE_TEMPERATURE"> F  </i>
   <i type="logical" name="LADDER"> F  </i>
   <i type="logical" name="LRPAFORCE"> F  </i>
   <i type="logical" name="LFXC"> F  </i>
   <i type="logical" name="LHARTREE"> T  </i>
   <i type="int" name="IBSE">     0</i>
   <v type="int" name="KPOINT">    -1     0     0     0</v>
   <i type="logical" name="LTCTC"> F  </i>
   <i type="logical" name="LTCTE"> F  </i>
   <i type="logical" name="LTETE"> F  </i>
   <i type="logical" name="LTRIPLET"> F  </i>
   <i type="logical" name="LFXCEPS"> F  </i>
   <i type="logical" name="LFXHEG"> F  </i>
   <i type="int" name="NATURALO">     2</i>
   <i type="logical" name="L2ORDER"> F  </i>
   <i type="logical" name="LDMP1"> F  </i>
   <i type="logical" name="LMP2LT"> F  </i>
   <i type="logical" name="LSMP2LT"> F  </i>
   <i type="logical" name="LUSEW"> F  </i>
   <i name="ENCUTGW">     -2.00000000</i>
   <i name="ENCUTGWSOFT">     -2.00000000</i>
   <i name="ENCUTLF">     -1.00000000</i>
   <i type="int" name="LMAXMP2">    -1</i>
   <i name="SCISSOR">      0.00000000</i>
   <i type="int" name="NOMEGA">     0</i>
   <i type="int" name="NOMEGAR">     0</i>
   <i type="int" name="NBANDSGW">    -1</i>
   <i type="int" name="NBANDSO">    -1</i>
   <i type="int" name="NBANDSV">    -1</i>
   <i type="int" name="NELM">   200</i>
   <i type="int" name="NELMHF">     1</i>
   <i type="int" name="DIM">     3</i>
   <i type="int" name="IESPILON">     4</i>
   <i type="int" name="ANTIRES">     0</i>
   <i name="OMEGAMAX">    -30.00000000</i>
   <i name="OMEGAMIN">    -30.00000000</i>
   <i name="OMEGATL">   -200.00000000</i>
   <i type="int" name="OMEGAGRID">   145</i>
   <i name="CSHIFT">     -0.10000000</i>
   <i type="logical" name="LSELFENERGY"> F  </i>
   <i type="logical" name="LSPECTRAL"> F  </i>
   <i type="logical" name="LSPECTRALGW"> F  </i>
   <i type="logical" name="LSINGLES"> F  </i>
   <i type="logical" name="LFERMIGW"> F  </i>
   <i type="logical" name="ODDONLYGW"> F  </i>
   <i type="logical" name="EVENONLYGW"> F  </i>
   <i type="int" name="NKREDLFX">     1</i>
   <i type="int" name="NKREDLFY">     1</i>
   <i type="int" name="NKREDLFZ">     1</i>
   <i type="int" name="MAXMEM">  2800</i>
   <i type="int" name="TELESCOPE">     0</i>
   <i type="int" name="NTAUPAR">     1</i>
   <i type="int" name="NOMEGAPAR">    -1</i>
   <i name="LAMBDA">      1.00000000</i>
  </separator>
  <separator name="External order field" >
   <i name="OFIELD_KAPPA">      0.00000000</i>
   <v name="OFIELD_K">      0.00000000      0.00000000      0.00000000</v>
   <i name="OFIELD_Q6_NEAR">      0.00000000</i>
   <i name="OFIELD_Q6_FAR">      0.00000000</i>
   <i name="OFIELD_A">      0.00000000</i>
  </separator>
 </parameters>
 <atominfo>
  <atoms>       2 </atoms>
  <types>       2 </types>
  <array name="atoms" >
   <dimension dim="1">ion</dimension>
   <field type="string">element</field>
   <field type="int">atomtype</field>
   <set>
    <rc><c>Li</c><c>   1</c></rc>
    <rc><c>H </c><c>   2</c></rc>
   </set>
  </array>
  <array name="atomtypes" >
   <dimension dim="1">type</dimension>
   <field type="int">atomspertype</field>
   <field type="string">element</field>
   <field>mass</field>
   <field>valence</field>
   <field type="string">pseudopotential</field>
   <set>
    <rc><c>   1</c><c>Li</c><c>      7.01000000</c><c>      3.00000000</c><c>  PAW_PBE Li_sv 10Sep2004               </c></rc>
    <rc><c>   1</c><c>H </c><c>      1.00000000</c><c>      1.00000000</c><c>  PAW_PBE H 15Jun2001                   </c></rc>
   </set>
  </array>
 </atominfo>
 <structure name="initialpos" >
  <crystal>
   <varray name="basis" >
    <v>       2.46004600       0.00000000       1.42030800 </v>
    <v>       0.82001500       2.31935400       1.42030800 </v>
    <v>       0.00000000       0.00000000       2.84061700 </v>
   </varray>
   <i name="volume">     16.20775821 </i>
   <varray name="rec_basis" >
    <v>       0.40649646      -0.14371812       0.00000000 </v>
    <v>       0.00000000       0.43115454       0.00000000 </v>
    <v>      -0.20324816      -0.14371816       0.35203619 </v>
   </varray>
  </crystal>
  <varray name="positions" >
   <v>       0.00000000       0.00000000       0.00000000 </v>
   <v>       0.50000000       0.50000000       0.50000000 </v>
  </varray>
 </structure>
 <calculation>
  <scstep>
   <time name="total">   22.59    6.08</time>
   <energy>
    <i name="alphaZ">      2.49496780 </i>
    <i name="ewald">    -93.89059935 </i>
    <i name="hartreedc">    -37.22552835 </i>
    <i name="XCdc">     14.94181651 </i>
    <i name="pawpsdc">     81.89565328 </i>
    <i name="pawaedc">    -97.30997178 </i>
    <i name="eentropy">      0.00038465 </i>
    <i name="bandstr">    -91.73526148 </i>
    <i name="atom">    215.26843501 </i>
    <i name="e_fr_energy">     -5.56010372 </i>
    <i name="e_wo_entrp">     -5.56048837 </i>
    <i name="e_0_energy">     -5.56019988 </i>
   </energy>
  </scstep>
  <scstep>
   <time name="total">   31.71    7.93</time>
   <energy>
    <i name="e_fr_energy">     -6.36925561 </i>
    <i name="e_wo_entrp">     -6.36933750 </i>
    <i name="e_0_energy">     -6.36927608 </i>
   </energy>
  </scstep>
  <scstep>
   <time name="total">   19.28    4.82</time>
   <energy>
    <i name="e_fr_energy">     -6.36961721 </i>
    <i name="e_wo_entrp">     -6.36961721 </i>
    <i name="e_0_energy">     -6.36961721 </i>
   </energy>
  </scstep>
  <scstep>
   <time name="total">   41.23   10.31</time>
   <energy>
    <i name="e_fr_energy">     -6.36961723 </i>
    <i name="e_wo_entrp">     -6.36961723 </i>
    <i name="e_0_energy">     -6.36961723 </i>
   </energy>
  </scstep>
  <scstep>
   <time name="total">   19.38    4.84</time>
   <energy>
    <i name="e_fr_energy">     -6.36961723 </i>
    <i name="e_wo_entrp">     -6.36961723 </i>
    <i name="e_0_energy">     -6.36961723 </i>
   </energy>
  </scstep>
  <scstep>
   <time name="total">   23.97    6.86</time>
   <energy>
    <i name="e_fr_energy">     -6.03003199 </i>
    <i name="e_wo_entrp">     -6.03004519 </i>
    <i name="e_0_energy">     -6.03003529 </i>
   </energy>
  </scstep>
  <scstep>
   <time name="total">   23.84    6.83</time>
   <energy>
    <i name="e_fr_energy">     -6.12335218 </i>
    <i name="e_wo_entrp">     -6.12336812 </i>
    <i name="e_0_energy">     -6.12335617 </i>
   </energy>
  </scstep>
  <scstep>
   <time name="total">   23.84    6.83</time>
   <energy>
    <i name="e_fr_energy">     -6.12668876 </i>
    <i name="e_wo_entrp">     -6.12670478 </i>
    <i name="e_0_energy">     -6.12669277 </i>
   </energy>
  </scstep>
  <scstep>
   <time name="total">   23.84    6.83</time>
   <energy>
    <i name="e_fr_energy">     -6.12673365 </i>
    <i name="e_wo_entrp">     -6.12674966 </i>
    <i name="e_0_energy">     -6.12673765 </i>
   </energy>
  </scstep>
  <scstep>
   <time name="total">   31.62    8.77</time>
   <energy>
    <i name="alphaZ">      2.49496780 </i>
    <i name="ewald">    -93.89059935 </i>
    <i name="hartreedc">    -36.53382800 </i>
    <i name="XCdc">     15.13461532 </i>
    <i name="pawpsdc">     85.38337455 </i>
    <i name="pawaedc">   -101.07629552 </i>
    <i name="eentropy">      0.00001597 </i>
    <i name="bandstr">    -92.90742844 </i>
    <i name="atom">    215.26843501 </i>
    <i name="e_fr_energy">     -6.12674262 </i>
    <i name="e_wo_entrp">     -6.12675859 </i>
    <i name="e_0_energy">     -6.12674661 </i>
   </energy>
  </scstep>
  <structure>
   <crystal>
    <varray name="basis" >
     <v>       2.46004600       0.00000000       1.42030800 </v>
     <v>       0.82001500       2.31935400       1.42030800 </v>
     <v>       0.00000000       0.00000000       2.84061700 </v>
    </varray>
    <i name="volume">     16.20775821 </i>
    <varray name="rec_basis" >
     <v>       0.40649646      -0.14371812       0.00000000 </v>
     <v>       0.00000000       0.43115454       0.00000000 </v>
     <v>      -0.20324816      -0.14371816       0.35203619 </v>
    </varray>
   </crystal>
   <varray name="positions" >
    <v>       0.00000000       0.00000000       0.00000000 </v>
    <v>       0.50000000       0.50000000       0.50000000 </v>
   </varray>
  </structure>
  <varray name="forces" >
   <v>      -0.00000000      -0.00000000       0.00000000 </v>
   <v>       0.00000000       0.00000000      -0.00000000 </v>
  </varray>
  <varray name="stress" >
   <v>      -5.34426209       0.00000077       0.00000109 </v>
   <v>       0.00000077      -5.34426388       0.00000077 </v>
   <v>       0.00000109       0.00000077      -5.34426419 </v>
  </varray>
  <energy>
   <i name="e_fr_energy">     -6.12674262 </i>
   <i name="e_wo_entrp">     -6.12674661 </i>
   <i name="e_0_energy">      0.00001597 </i>
  </energy>
  <time name="totalsc">  270.21   75.03</time>
  <eigenvalues>
   <array>
    <dimension dim="1">band</dimension>
    <dimension dim="2">kpoint</dimension>
    <dimension dim="3">spin</dimension>
    <field>eigene</field>
    <field>occ</field>
    <set>
     <set comment="spin 1">
      <set comment="kpoint 1">
       <r>  -44.2306    1.0000 </r>
       <r>   -5.3540    1.0000 </r>
       <r>   16.0577    0.0000 </r>
       <r>   17.8837    0.0000 </r>
       <r>   17.8837    0.0000 </r>
       <r>   17.8837    0.0000 </r>
       <r>   22.5872    0.0000 </r>
       <r>   22.5872    0.0000 </r>
       <r>   22.5872    0.0000 </r>
       <r>   24.0896    0.0000 </r>
       <r>   28.6699    0.0000 </r>
       <r>   28.6699    0.0000 </r>
       <r>   28.6699    0.0000 </r>
       <r>   30.8775    0.0000 </r>
       <r>   30.8775    0.0000 </r>
       <r>   44.1577    0.0000 </r>
       <r>   62.0710    0.0000 </r>
       <r>   62.0710    0.0000 </r>
       <r>   62.0711    0.0000 </r>
       <r>   66.6943    0.0000 </r>
       <r>   66.6943    0.0000 </r>
       <r>   66.6943    0.0000 </r>
       <r>   67.2416    0.0000 </r>
       <r>   68.0565    0.0000 </r>
       <r>   68.0565    0.0000 </r>
       <r>   68.4653    0.0000 </r>
       <r>   68.4653    0.0000 </r>
       <r>   68.4653    0.0000 </r>
       <r>   84.3206    0.0000 </r>
       <r>   84.3206    0.0000 </r>
       <r>   84.3206    0.0000 </r>
       <r>   90.4438    0.0000 </r>
      </set>
      <set comment="kpoint 2">
       <r>  -44.2280    1.0000 </r>
       <r>   -5.2489    1.0000 </r>
       <r>   15.1908    0.0000 </r>
       <r>   17.1992    0.0000 </r>
       <r>   17.6368    0.0000 </r>
       <r>   17.6368    0.0000 </r>
       <r>   22.0111    0.0000 </r>
       <r>   23.1111    0.0000 </r>
       <r>   23.1112    0.0000 </r>
       <r>   26.4126    0.0000 </r>
       <r>   26.9735    0.0000 </r>
       <r>   26.9735    0.0000 </r>
       <r>   29.2834    0.0000 </r>
       <r>   32.9457    0.0000 </r>
       <r>   32.9457    0.0000 </r>
       <r>   43.9240    0.0000 </r>
       <r>   59.8008    0.0000 </r>
       <r>   60.3557    0.0000 </r>
       <r>   60.3557    0.0000 </r>
       <r>   64.5821    0.0000 </r>
       <r>   64.5821    0.0000 </r>
       <r>   66.7956    0.0000 </r>
       <r>   67.5592    0.0000 </r>
       <r>   67.5592    0.0000 </r>
       <r>   68.6304    0.0000 </r>
       <r>   69.4822    0.0000 </r>
       <r>   73.4161    0.0000 </r>
       <r>   73.4161    0.0000 </r>
       <r>   82.5095    0.0000 </r>
       <r>   82.5104    0.0000 </r>
       <r>   83.8029    0.0000 </r>
       <r>   89.4168    0.0000 </r>
      </set>
      <set comment="kpoint 3">
       <r>  -44.2209    1.0000 </r>
       <r>   -4.9396    1.0000 </r>
       <r>   12.9286    0.0000 </r>
       <r>   16.1776    0.0000 </r>
       <r>   17.1478    0.0000 </r>
       <r>   17.1478    0.0000 </r>
       <r>   22.3481    0.0000 </r>
       <r>   23.9335    0.0000 </r>
       <r>   23.9335    0.0000 </r>
       <r>   25.3925    0.0000 </r>
       <r>   25.3925    0.0000 </r>
       <r>   29.4734    0.0000 </r>
       <r>   31.5458    0.0000 </r>
       <r>   36.1373    0.0000 </r>
       <r>   36.1373    0.0000 </r>
       <r>   43.2202    0.0000 </r>
       <r>   55.9492    0.0000 </r>
       <r>   55.9492    0.0000 </r>
       <r>   56.7042    0.0000 </r>
       <r>   64.4022    0.0000 </r>
       <r>   64.4022    0.0000 </r>
       <r>   65.8417    0.0000 </r>
       <r>   68.0318    0.0000 </r>
       <r>   68.0318    0.0000 </r>
       <r>   69.1255    0.0000 </r>
       <r>   73.6247    0.0000 </r>
       <r>   78.3619    0.0000 </r>
       <r>   78.3623    0.0000 </r>
       <r>   79.5573    0.0000 </r>
       <r>   79.5574    0.0000 </r>
       <r>   81.7740    0.0000 </r>
       <r>   85.1129    0.0000 </r>
      </set>
      <set comment="kpoint 4">
       <r>  -44.2108    1.0000 </r>
       <r>   -4.4410    1.0000 </r>
       <r>   10.3612    0.0000 </r>
       <r>   15.2649    0.0000 </r>
       <r>   16.7228    0.0000 </r>
       <r>   16.7228    0.0000 </r>
       <r>   22.5474    0.0000 </r>
       <r>   22.5474    0.0000 </r>
       <r>   23.2742    0.0000 </r>
       <r>   26.8600    0.0000 </r>
       <r>   26.8600    0.0000 </r>
       <r>   31.5783    0.0000 </r>
       <r>   35.7354    0.0000 </r>
       <r>   39.7063    0.0000 </r>
       <r>   39.7063    0.0000 </r>
       <r>   42.1872    0.0000 </r>
       <r>   51.2994    0.0000 </r>
       <r>   51.2994    0.0000 </r>
       <r>   54.0972    0.0000 </r>
       <r>   64.5362    0.0000 </r>
       <r>   64.9384    0.0000 </r>
       <r>   64.9384    0.0000 </r>
       <r>   68.8391    0.0000 </r>
       <r>   68.8391    0.0000 </r>
       <r>   69.9502    0.0000 </r>
       <r>   73.5740    0.0000 </r>
       <r>   73.5741    0.0000 </r>
       <r>   75.8759    0.0000 </r>
       <r>   79.0753    0.0000 </r>
       <r>   80.6981    0.0000 </r>
       <r>   81.1397    0.0000 </r>
       <r>   81.1397    0.0000 </r>
      </set>
      <set comment="kpoint 5">
       <r>  -44.2000    1.0000 </r>
       <r>   -3.7967    1.0000 </r>
       <r>    8.0311    0.0000 </r>
       <r>   14.5101    0.0000 </r>
       <r>   16.4816    0.0000 </r>
       <r>   16.4816    0.0000 </r>
       <r>   21.0129    0.0000 </r>
       <r>   21.0129    0.0000 </r>
       <r>   24.5300    0.0000 </r>
       <r>   29.2471    0.0000 </r>
       <r>   29.2471    0.0000 </r>
       <r>   33.0759    0.0000 </r>
       <r>   40.2105    0.0000 </r>
       <r>   41.8522    0.0000 </r>
       <r>   43.4826    0.0000 </r>
       <r>   43.4826    0.0000 </r>
       <r>   46.9970    0.0000 </r>
       <r>   46.9970    0.0000 </r>
       <r>   51.8859    0.0000 </r>
       <r>   63.2197    0.0000 </r>
       <r>   65.3673    0.0000 </r>
       <r>   65.3673    0.0000 </r>
       <r>   68.7486    0.0000 </r>
       <r>   68.7486    0.0000 </r>
       <r>   70.0003    0.0000 </r>
       <r>   70.0005    0.0000 </r>
       <r>   71.1033    0.0000 </r>
       <r>   71.9839    0.0000 </r>
       <r>   73.9861    0.0000 </r>
       <r>   77.9853    0.0000 </r>
       <r>   77.9854    0.0000 </r>
       <r>   80.7985    0.0000 </r>
      </set>
      <set comment="kpoint 6">
       <r>  -44.1911    1.0000 </r>
       <r>   -3.1135    1.0000 </r>
       <r>    6.1858    0.0000 </r>
       <r>   13.9752    0.0000 </r>
       <r>   16.4324    0.0000 </r>
       <r>   16.4324    0.0000 </r>
       <r>   19.8375    0.0000 </r>
       <r>   19.8375    0.0000 </r>
       <r>   25.9304    0.0000 </r>
       <r>   32.0453    0.0000 </r>
       <r>   32.0453    0.0000 </r>
       <r>   33.3176    0.0000 </r>
       <r>   41.4759    0.0000 </r>
       <r>   42.4909    0.0000 </r>
       <r>   42.4909    0.0000 </r>
       <r>   46.3692    0.0000 </r>
       <r>   48.0740    0.0000 </r>
       <r>   48.0741    0.0000 </r>
       <r>   49.8132    0.0000 </r>
       <r>   62.1608    0.0000 </r>
       <r>   62.2478    0.0000 </r>
       <r>   62.2478    0.0000 </r>
       <r>   65.2036    0.0000 </r>
       <r>   67.7631    0.0000 </r>
       <r>   67.7631    0.0000 </r>
       <r>   71.4155    0.0000 </r>
       <r>   71.4163    0.0000 </r>
       <r>   71.9401    0.0000 </r>
       <r>   72.5804    0.0000 </r>
       <r>   75.4196    0.0000 </r>
       <r>   75.4197    0.0000 </r>
       <r>   78.0659    0.0000 </r>
      </set>
      <set comment="kpoint 7">
       <r>  -44.1861    1.0000 </r>
       <r>   -2.6231    1.0000 </r>
       <r>    5.1051    0.0000 </r>
       <r>   13.6990    0.0000 </r>
       <r>   16.4877    0.0000 </r>
       <r>   16.4877    0.0000 </r>
       <r>   19.1627    0.0000 </r>
       <r>   19.1627    0.0000 </r>
       <r>   27.0543    0.0000 </r>
       <r>   32.6730    0.0000 </r>
       <r>   35.1836    0.0000 </r>
       <r>   35.1836    0.0000 </r>
       <r>   38.7481    0.0000 </r>
       <r>   38.7481    0.0000 </r>
       <r>   42.9023    0.0000 </r>
       <r>   47.7493    0.0000 </r>
       <r>   52.3007    0.0000 </r>
       <r>   52.5157    0.0000 </r>
       <r>   52.5157    0.0000 </r>
       <r>   57.3771    0.0000 </r>
       <r>   57.3771    0.0000 </r>
       <r>   58.4342    0.0000 </r>
       <r>   61.9215    0.0000 </r>
       <r>   68.6037    0.0000 </r>
       <r>   68.6037    0.0000 </r>
       <r>   70.8264    0.0000 </r>
       <r>   73.0191    0.0000 </r>
       <r>   73.0230    0.0000 </r>
       <r>   73.7050    0.0000 </r>
       <r>   73.7050    0.0000 </r>
       <r>   74.3436    0.0000 </r>
       <r>   75.8085    0.0000 </r>
      </set>
      <set comment="kpoint 8">
       <r>  -44.2272    1.0000 </r>
       <r>   -5.2135    1.0000 </r>
       <r>   15.2306    0.0000 </r>
       <r>   16.7877    0.0000 </r>
       <r>   16.7877    0.0000 </r>
       <r>   18.4812    0.0000 </r>
       <r>   20.5945    0.0000 </r>
       <r>   24.0541    0.0000 </r>
       <r>   24.0541    0.0000 </r>
       <r>   25.8299    0.0000 </r>
       <r>   26.5232    0.0000 </r>
       <r>   28.9447    0.0000 </r>
       <r>   28.9447    0.0000 </r>
       <r>   31.0957    0.0000 </r>
       <r>   34.7905    0.0000 </r>
       <r>   43.8689    0.0000 </r>
       <r>   59.5201    0.0000 </r>
       <r>   59.5201    0.0000 </r>
       <r>   60.5037    0.0000 </r>
       <r>   62.7575    0.0000 </r>
       <r>   65.7461    0.0000 </r>
       <r>   65.7461    0.0000 </r>
       <r>   66.9074    0.0000 </r>
       <r>   66.9665    0.0000 </r>
       <r>   69.9499    0.0000 </r>
       <r>   72.5735    0.0000 </r>
       <r>   72.5735    0.0000 </r>
       <r>   74.2038    0.0000 </r>
       <r>   81.6358    0.0000 </r>
       <r>   83.1181    0.0000 </r>
       <r>   83.1186    0.0000 </r>
       <r>   88.1175    0.0000 </r>
      </set>
      <set comment="kpoint 9">
       <r>  -44.2216    1.0000 </r>
       <r>   -4.9694    1.0000 </r>
       <r>   13.6896    0.0000 </r>
       <r>   15.7555    0.0000 </r>
       <r>   15.9885    0.0000 </r>
       <r>   18.4889    0.0000 </r>
       <r>   20.4486    0.0000 </r>
       <r>   24.1167    0.0000 </r>
       <r>   25.1107    0.0000 </r>
       <r>   25.3351    0.0000 </r>
       <r>   27.6812    0.0000 </r>
       <r>   28.9495    0.0000 </r>
       <r>   30.3912    0.0000 </r>
       <r>   33.3883    0.0000 </r>
       <r>   37.5830    0.0000 </r>
       <r>   43.4068    0.0000 </r>
       <r>   55.7776    0.0000 </r>
       <r>   56.4273    0.0000 </r>
       <r>   59.3584    0.0000 </r>
       <r>   61.8046    0.0000 </r>
       <r>   62.6557    0.0000 </r>
       <r>   66.0179    0.0000 </r>
       <r>   66.5285    0.0000 </r>
       <r>   70.0045    0.0000 </r>
       <r>   71.4871    0.0000 </r>
       <r>   73.5916    0.0000 </r>
       <r>   76.9414    0.0000 </r>
       <r>   78.8615    0.0000 </r>
       <r>   79.3148    0.0000 </r>
       <r>   80.6003    0.0000 </r>
       <r>   80.7827    0.0000 </r>
       <r>   84.1379    0.0000 </r>
      </set>
      <set comment="kpoint 10">
       <r>  -44.2125    1.0000 </r>
       <r>   -4.5274    1.0000 </r>
       <r>   11.2203    0.0000 </r>
       <r>   14.7827    0.0000 </r>
       <r>   15.3958    0.0000 </r>
       <r>   18.0656    0.0000 </r>
       <r>   21.4879    0.0000 </r>
       <r>   22.6601    0.0000 </r>
       <r>   24.8832    0.0000 </r>
       <r>   26.2407    0.0000 </r>
       <r>   28.1257    0.0000 </r>
       <r>   30.9808    0.0000 </r>
       <r>   34.3175    0.0000 </r>
       <r>   36.7875    0.0000 </r>
       <r>   40.3908    0.0000 </r>
       <r>   42.9137    0.0000 </r>
       <r>   51.1011    0.0000 </r>
       <r>   53.2755    0.0000 </r>
       <r>   56.2057    0.0000 </r>
       <r>   61.4549    0.0000 </r>
       <r>   62.2652    0.0000 </r>
       <r>   65.9058    0.0000 </r>
       <r>   66.6504    0.0000 </r>
       <r>   70.5536    0.0000 </r>
       <r>   74.2619    0.0000 </r>
       <r>   74.3835    0.0000 </r>
       <r>   75.1153    0.0000 </r>
       <r>   76.6500    0.0000 </r>
       <r>   77.6453    0.0000 </r>
       <r>   79.7533    0.0000 </r>
       <r>   81.7484    0.0000 </r>
       <r>   81.8929    0.0000 </r>
      </set>
      <set comment="kpoint 11">
       <r>  -44.2019    1.0000 </r>
       <r>   -3.9190    1.0000 </r>
       <r>    8.7952    0.0000 </r>
       <r>   13.9439    0.0000 </r>
       <r>   15.0672    0.0000 </r>
       <r>   17.5070    0.0000 </r>
       <r>   21.3328    0.0000 </r>
       <r>   23.1744    0.0000 </r>
       <r>   23.2957    0.0000 </r>
       <r>   27.9263    0.0000 </r>
       <r>   30.3455    0.0000 </r>
       <r>   32.7860    0.0000 </r>
       <r>   39.0083    0.0000 </r>
       <r>   40.5275    0.0000 </r>
       <r>   40.8186    0.0000 </r>
       <r>   45.0162    0.0000 </r>
       <r>   46.6234    0.0000 </r>
       <r>   50.1938    0.0000 </r>
       <r>   52.9421    0.0000 </r>
       <r>   60.9882    0.0000 </r>
       <r>   63.1512    0.0000 </r>
       <r>   65.0635    0.0000 </r>
       <r>   67.4481    0.0000 </r>
       <r>   69.2088    0.0000 </r>
       <r>   71.8655    0.0000 </r>
       <r>   72.1727    0.0000 </r>
       <r>   72.6681    0.0000 </r>
       <r>   74.6285    0.0000 </r>
       <r>   75.5141    0.0000 </r>
       <r>   76.0256    0.0000 </r>
       <r>   78.4510    0.0000 </r>
       <r>   80.7344    0.0000 </r>
      </set>
      <set comment="kpoint 12">
       <r>  -44.1924    1.0000 </r>
       <r>   -3.2237    1.0000 </r>
       <r>    6.7622    0.0000 </r>
       <r>   13.2904    0.0000 </r>
       <r>   15.0222    0.0000 </r>
       <r>   16.9077    0.0000 </r>
       <r>   20.6927    0.0000 </r>
       <r>   21.9003    0.0000 </r>
       <r>   24.8789    0.0000 </r>
       <r>   29.9652    0.0000 </r>
       <r>   33.0381    0.0000 </r>
       <r>   33.6865    0.0000 </r>
       <r>   40.4850    0.0000 </r>
       <r>   42.0216    0.0000 </r>
       <r>   44.5188    0.0000 </r>
       <r>   45.0093    0.0000 </r>
       <r>   45.8675    0.0000 </r>
       <r>   49.6287    0.0000 </r>
       <r>   50.4154    0.0000 </r>
       <r>   60.4334    0.0000 </r>
       <r>   62.4076    0.0000 </r>
       <r>   64.0696    0.0000 </r>
       <r>   66.3075    0.0000 </r>
       <r>   67.3333    0.0000 </r>
       <r>   67.6720    0.0000 </r>
       <r>   69.4239    0.0000 </r>
       <r>   70.0155    0.0000 </r>
       <r>   72.9272    0.0000 </r>
       <r>   73.0669    0.0000 </r>
       <r>   76.6813    0.0000 </r>
       <r>   76.7445    0.0000 </r>
       <r>   77.9687    0.0000 </r>
      </set>
      <set comment="kpoint 13">
       <r>  -44.1862    1.0000 </r>
       <r>   -2.6271    1.0000 </r>
       <r>    5.3848    0.0000 </r>
       <r>   12.8635    0.0000 </r>
       <r>   15.2615    0.0000 </r>
       <r>   16.3380    0.0000 </r>
       <r>   20.5693    0.0000 </r>
       <r>   20.8152    0.0000 </r>
       <r>   26.5232    0.0000 </r>
       <r>   31.4447    0.0000 </r>
       <r>   34.1124    0.0000 </r>
       <r>   36.0561    0.0000 </r>
       <r>   38.3009    0.0000 </r>
       <r>   41.1789    0.0000 </r>
       <r>   43.3573    0.0000 </r>
       <r>   47.6776    0.0000 </r>
       <r>   49.2686    0.0000 </r>
       <r>   50.4284    0.0000 </r>
       <r>   53.6147    0.0000 </r>
       <r>   57.5263    0.0000 </r>
       <r>   60.5300    0.0000 </r>
       <r>   60.8865    0.0000 </r>
       <r>   61.1635    0.0000 </r>
       <r>   66.0920    0.0000 </r>
       <r>   67.2722    0.0000 </r>
       <r>   68.5012    0.0000 </r>
       <r>   70.0303    0.0000 </r>
       <r>   71.1951    0.0000 </r>
       <r>   73.6904    0.0000 </r>
       <r>   75.4052    0.0000 </r>
       <r>   75.4440    0.0000 </r>
       <r>   78.5157    0.0000 </r>
      </set>
      <set comment="kpoint 14">
       <r>  -44.1845    1.0000 </r>
       <r>   -2.4392    1.0000 </r>
       <r>    5.0014    0.0000 </r>
       <r>   12.6803    0.0000 </r>
       <r>   15.7654    0.0000 </r>
       <r>   15.9050    0.0000 </r>
       <r>   20.0808    0.0000 </r>
       <r>   20.9155    0.0000 </r>
       <r>   27.2321    0.0000 </r>
       <r>   31.5829    0.0000 </r>
       <r>   34.6339    0.0000 </r>
       <r>   36.2065    0.0000 </r>
       <r>   39.0353    0.0000 </r>
       <r>   39.5357    0.0000 </r>
       <r>   43.2894    0.0000 </r>
       <r>   46.7204    0.0000 </r>
       <r>   52.7360    0.0000 </r>
       <r>   53.8937    0.0000 </r>
       <r>   54.6176    0.0000 </r>
       <r>   56.1911    0.0000 </r>
       <r>   56.3753    0.0000 </r>
       <r>   58.3659    0.0000 </r>
       <r>   60.7377    0.0000 </r>
       <r>   66.6630    0.0000 </r>
       <r>   67.0749    0.0000 </r>
       <r>   68.4297    0.0000 </r>
       <r>   69.5225    0.0000 </r>
       <r>   71.4850    0.0000 </r>
       <r>   73.7799    0.0000 </r>
       <r>   74.4613    0.0000 </r>
       <r>   75.2148    0.0000 </r>
       <r>   79.0715    0.0000 </r>
      </set>
      <set comment="kpoint 15">
       <r>  -44.1878    1.0000 </r>
       <r>   -2.8006    1.0000 </r>
       <r>    5.7584    0.0000 </r>
       <r>   12.7379    0.0000 </r>
       <r>   15.7008    0.0000 </r>
       <r>   16.4723    0.0000 </r>
       <r>   19.7575    0.0000 </r>
       <r>   21.6580    0.0000 </r>
       <r>   26.3037    0.0000 </r>
       <r>   31.3990    0.0000 </r>
       <r>   32.3153    0.0000 </r>
       <r>   35.6813    0.0000 </r>
       <r>   39.4924    0.0000 </r>
       <r>   42.0025    0.0000 </r>
       <r>   43.2145    0.0000 </r>
       <r>   47.2052    0.0000 </r>
       <r>   49.1883    0.0000 </r>
       <r>   49.4328    0.0000 </r>
       <r>   51.5086    0.0000 </r>
       <r>   58.9154    0.0000 </r>
       <r>   60.2965    0.0000 </r>
       <r>   62.4294    0.0000 </r>
       <r>   63.4931    0.0000 </r>
       <r>   65.5541    0.0000 </r>
       <r>   67.5065    0.0000 </r>
       <r>   68.9747    0.0000 </r>
       <r>   69.9410    0.0000 </r>
       <r>   71.6628    0.0000 </r>
       <r>   73.5365    0.0000 </r>
       <r>   75.5089    0.0000 </r>
       <r>   75.8336    0.0000 </r>
       <r>   77.9999    0.0000 </r>
      </set>
      <set comment="kpoint 16">
       <r>  -44.1954    1.0000 </r>
       <r>   -3.4610    1.0000 </r>
       <r>    7.3955    0.0000 </r>
       <r>   13.0199    0.0000 </r>
       <r>   15.7758    0.0000 </r>
       <r>   17.2275    0.0000 </r>
       <r>   19.9822    0.0000 </r>
       <r>   22.7351    0.0000 </r>
       <r>   24.8056    0.0000 </r>
       <r>   28.5216    0.0000 </r>
       <r>   31.8056    0.0000 </r>
       <r>   33.9549    0.0000 </r>
       <r>   39.7672    0.0000 </r>
       <r>   42.3246    0.0000 </r>
       <r>   43.3048    0.0000 </r>
       <r>   45.9394    0.0000 </r>
       <r>   46.3289    0.0000 </r>
       <r>   48.1224    0.0000 </r>
       <r>   51.0704    0.0000 </r>
       <r>   60.7159    0.0000 </r>
       <r>   62.9990    0.0000 </r>
       <r>   65.1577    0.0000 </r>
       <r>   65.4557    0.0000 </r>
       <r>   68.8756    0.0000 </r>
       <r>   69.0561    0.0000 </r>
       <r>   69.8644    0.0000 </r>
       <r>   71.0580    0.0000 </r>
       <r>   72.8669    0.0000 </r>
       <r>   74.0640    0.0000 </r>
       <r>   76.2652    0.0000 </r>
       <r>   77.0931    0.0000 </r>
       <r>   78.4423    0.0000 </r>
      </set>
      <set comment="kpoint 17">
       <r>  -44.2055    1.0000 </r>
       <r>   -4.1408    1.0000 </r>
       <r>    9.5939    0.0000 </r>
       <r>   13.5081    0.0000 </r>
       <r>   16.1314    0.0000 </r>
       <r>   17.8189    0.0000 </r>
       <r>   20.9160    0.0000 </r>
       <r>   23.3656    0.0000 </r>
       <r>   24.0899    0.0000 </r>
       <r>   26.0657    0.0000 </r>
       <r>   29.8593    0.0000 </r>
       <r>   32.2496    0.0000 </r>
       <r>   37.4012    0.0000 </r>
       <r>   39.1898    0.0000 </r>
       <r>   42.0801    0.0000 </r>
       <r>   42.9592    0.0000 </r>
       <r>   48.3082    0.0000 </r>
       <r>   51.8097    0.0000 </r>
       <r>   53.3720    0.0000 </r>
       <r>   61.1471    0.0000 </r>
       <r>   62.5992    0.0000 </r>
       <r>   65.9855    0.0000 </r>
       <r>   67.2318    0.0000 </r>
       <r>   70.2042    0.0000 </r>
       <r>   70.6883    0.0000 </r>
       <r>   73.9643    0.0000 </r>
       <r>   74.6299    0.0000 </r>
       <r>   75.1056    0.0000 </r>
       <r>   76.9847    0.0000 </r>
       <r>   77.2111    0.0000 </r>
       <r>   78.5894    0.0000 </r>
       <r>   81.1475    0.0000 </r>
      </set>
      <set comment="kpoint 18">
       <r>  -44.2158    1.0000 </r>
       <r>   -4.6984    1.0000 </r>
       <r>   12.0947    0.0000 </r>
       <r>   14.2218    0.0000 </r>
       <r>   16.6907    0.0000 </r>
       <r>   18.1818    0.0000 </r>
       <r>   22.2695    0.0000 </r>
       <r>   22.4756    0.0000 </r>
       <r>   24.1794    0.0000 </r>
       <r>   25.3500    0.0000 </r>
       <r>   28.1839    0.0000 </r>
       <r>   30.1708    0.0000 </r>
       <r>   32.8235    0.0000 </r>
       <r>   36.4852    0.0000 </r>
       <r>   39.2846    0.0000 </r>
       <r>   42.7366    0.0000 </r>
       <r>   52.1594    0.0000 </r>
       <r>   56.0534    0.0000 </r>
       <r>   56.3281    0.0000 </r>
       <r>   61.6020    0.0000 </r>
       <r>   61.8524    0.0000 </r>
       <r>   66.3903    0.0000 </r>
       <r>   66.6093    0.0000 </r>
       <r>   70.2598    0.0000 </r>
       <r>   74.1121    0.0000 </r>
       <r>   74.5383    0.0000 </r>
       <r>   75.0984    0.0000 </r>
       <r>   78.3303    0.0000 </r>
       <r>   79.2805    0.0000 </r>
       <r>   79.7435    0.0000 </r>
       <r>   81.1473    0.0000 </r>
       <r>   83.2608    0.0000 </r>
      </set>
      <set comment="kpoint 19">
       <r>  -44.2239    1.0000 </r>
       <r>   -5.0751    1.0000 </r>
       <r>   14.2327    0.0000 </r>
       <r>   15.5232    0.0000 </r>
       <r>   17.2344    0.0000 </r>
       <r>   18.1870    0.0000 </r>
       <r>   21.7138    0.0000 </r>
       <r>   23.0277    0.0000 </r>
       <r>   24.6136    0.0000 </r>
       <r>   24.9876    0.0000 </r>
       <r>   27.9048    0.0000 </r>
       <r>   28.2331    0.0000 </r>
       <r>   29.4929    0.0000 </r>
       <r>   33.8378    0.0000 </r>
       <r>   35.9204    0.0000 </r>
       <r>   43.5451    0.0000 </r>
       <r>   56.2310    0.0000 </r>
       <r>   58.7687    0.0000 </r>
       <r>   60.0867    0.0000 </r>
       <r>   62.2363    0.0000 </r>
       <r>   62.5970    0.0000 </r>
       <r>   66.2811    0.0000 </r>
       <r>   66.8440    0.0000 </r>
       <r>   69.5248    0.0000 </r>
       <r>   70.7630    0.0000 </r>
       <r>   73.4556    0.0000 </r>
       <r>   73.7931    0.0000 </r>
       <r>   78.2898    0.0000 </r>
       <r>   79.3775    0.0000 </r>
       <r>   81.8677    0.0000 </r>
       <r>   82.1223    0.0000 </r>
       <r>   85.8789    0.0000 </r>
      </set>
      <set comment="kpoint 20">
       <r>  -44.2177    1.0000 </r>
       <r>   -4.7865    1.0000 </r>
       <r>   13.5466    0.0000 </r>
       <r>   14.9959    0.0000 </r>
       <r>   14.9959    0.0000 </r>
       <r>   18.4361    0.0000 </r>
       <r>   18.6113    0.0000 </r>
       <r>   24.5326    0.0000 </r>
       <r>   26.8226    0.0000 </r>
       <r>   26.8226    0.0000 </r>
       <r>   29.9017    0.0000 </r>
       <r>   29.9017    0.0000 </r>
       <r>   30.0043    0.0000 </r>
       <r>   31.7493    0.0000 </r>
       <r>   39.6409    0.0000 </r>
       <r>   43.5646    0.0000 </r>
       <r>   55.0875    0.0000 </r>
       <r>   55.0875    0.0000 </r>
       <r>   57.7026    0.0000 </r>
       <r>   57.9405    0.0000 </r>
       <r>   65.6383    0.0000 </r>
       <r>   66.0680    0.0000 </r>
       <r>   66.0680    0.0000 </r>
       <r>   67.5442    0.0000 </r>
       <r>   73.0224    0.0000 </r>
       <r>   77.7324    0.0000 </r>
       <r>   77.7324    0.0000 </r>
       <r>   78.7792    0.0000 </r>
       <r>   78.7792    0.0000 </r>
       <r>   79.0482    0.0000 </r>
       <r>   80.5702    0.0000 </r>
       <r>   81.5323    0.0000 </r>
      </set>
      <set comment="kpoint 21">
       <r>  -44.2102    1.0000 </r>
       <r>   -4.3984    1.0000 </r>
       <r>   11.8340    0.0000 </r>
       <r>   13.8651    0.0000 </r>
       <r>   14.2597    0.0000 </r>
       <r>   18.0758    0.0000 </r>
       <r>   18.7005    0.0000 </r>
       <r>   24.3965    0.0000 </r>
       <r>   27.3780    0.0000 </r>
       <r>   27.8974    0.0000 </r>
       <r>   29.9126    0.0000 </r>
       <r>   30.8553    0.0000 </r>
       <r>   33.4245    0.0000 </r>
       <r>   34.2845    0.0000 </r>
       <r>   40.6909    0.0000 </r>
       <r>   44.7208    0.0000 </r>
       <r>   51.1608    0.0000 </r>
       <r>   52.6052    0.0000 </r>
       <r>   56.9759    0.0000 </r>
       <r>   57.2516    0.0000 </r>
       <r>   61.8088    0.0000 </r>
       <r>   65.7340    0.0000 </r>
       <r>   66.5474    0.0000 </r>
       <r>   70.9442    0.0000 </r>
       <r>   73.6154    0.0000 </r>
       <r>   74.1738    0.0000 </r>
       <r>   74.6402    0.0000 </r>
       <r>   77.8196    0.0000 </r>
       <r>   78.8357    0.0000 </r>
       <r>   79.5431    0.0000 </r>
       <r>   81.4751    0.0000 </r>
       <r>   81.8039    0.0000 </r>
      </set>
      <set comment="kpoint 22">
       <r>  -44.2007    1.0000 </r>
       <r>   -3.8262    1.0000 </r>
       <r>    9.5411    0.0000 </r>
       <r>   12.7168    0.0000 </r>
       <r>   13.8130    0.0000 </r>
       <r>   17.4575    0.0000 </r>
       <r>   20.0864    0.0000 </r>
       <r>   24.0293    0.0000 </r>
       <r>   25.9926    0.0000 </r>
       <r>   28.9627    0.0000 </r>
       <r>   31.7926    0.0000 </r>
       <r>   32.6795    0.0000 </r>
       <r>   37.8696    0.0000 </r>
       <r>   37.9567    0.0000 </r>
       <r>   40.0403    0.0000 </r>
       <r>   46.6296    0.0000 </r>
       <r>   47.1798    0.0000 </r>
       <r>   50.6946    0.0000 </r>
       <r>   55.8320    0.0000 </r>
       <r>   58.0326    0.0000 </r>
       <r>   58.0720    0.0000 </r>
       <r>   64.7695    0.0000 </r>
       <r>   67.2178    0.0000 </r>
       <r>   69.4836    0.0000 </r>
       <r>   71.0192    0.0000 </r>
       <r>   71.5257    0.0000 </r>
       <r>   75.1307    0.0000 </r>
       <r>   76.0987    0.0000 </r>
       <r>   77.3302    0.0000 </r>
       <r>   77.6967    0.0000 </r>
       <r>   79.0537    0.0000 </r>
       <r>   81.0103    0.0000 </r>
      </set>
      <set comment="kpoint 23">
       <r>  -44.1914    1.0000 </r>
       <r>   -3.1284    1.0000 </r>
       <r>    7.4096    0.0000 </r>
       <r>   11.7891    0.0000 </r>
       <r>   13.6689    0.0000 </r>
       <r>   16.8174    0.0000 </r>
       <r>   21.7449    0.0000 </r>
       <r>   24.0254    0.0000 </r>
       <r>   24.5167    0.0000 </r>
       <r>   30.1675    0.0000 </r>
       <r>   34.2556    0.0000 </r>
       <r>   34.3565    0.0000 </r>
       <r>   39.3503    0.0000 </r>
       <r>   41.2984    0.0000 </r>
       <r>   42.8651    0.0000 </r>
       <r>   43.0718    0.0000 </r>
       <r>   47.4868    0.0000 </r>
       <r>   51.4889    0.0000 </r>
       <r>   53.1715    0.0000 </r>
       <r>   56.7769    0.0000 </r>
       <r>   59.2124    0.0000 </r>
       <r>   62.4528    0.0000 </r>
       <r>   66.8358    0.0000 </r>
       <r>   67.1300    0.0000 </r>
       <r>   68.5645    0.0000 </r>
       <r>   69.4796    0.0000 </r>
       <r>   70.5258    0.0000 </r>
       <r>   71.2628    0.0000 </r>
       <r>   74.9594    0.0000 </r>
       <r>   77.2819    0.0000 </r>
       <r>   79.1051    0.0000 </r>
       <r>   79.3171    0.0000 </r>
      </set>
      <set comment="kpoint 24">
       <r>  -44.1846    1.0000 </r>
       <r>   -2.4497    1.0000 </r>
       <r>    5.7956    0.0000 </r>
       <r>   11.1081    0.0000 </r>
       <r>   13.8321    0.0000 </r>
       <r>   16.2639    0.0000 </r>
       <r>   22.8432    0.0000 </r>
       <r>   23.2897    0.0000 </r>
       <r>   25.1455    0.0000 </r>
       <r>   30.7399    0.0000 </r>
       <r>   34.8041    0.0000 </r>
       <r>   37.1842    0.0000 </r>
       <r>   38.2524    0.0000 </r>
       <r>   40.4796    0.0000 </r>
       <r>   45.5828    0.0000 </r>
       <r>   46.3245    0.0000 </r>
       <r>   48.3057    0.0000 </r>
       <r>   49.1960    0.0000 </r>
       <r>   55.0876    0.0000 </r>
       <r>   57.1156    0.0000 </r>
       <r>   59.5443    0.0000 </r>
       <r>   60.6284    0.0000 </r>
       <r>   63.1978    0.0000 </r>
       <r>   64.3978    0.0000 </r>
       <r>   64.5133    0.0000 </r>
       <r>   66.6782    0.0000 </r>
       <r>   68.1916    0.0000 </r>
       <r>   70.4378    0.0000 </r>
       <r>   74.5936    0.0000 </r>
       <r>   76.5556    0.0000 </r>
       <r>   76.9975    0.0000 </r>
       <r>   78.4807    0.0000 </r>
      </set>
      <set comment="kpoint 25">
       <r>  -44.1817    1.0000 </r>
       <r>   -2.0854    1.0000 </r>
       <r>    5.0597    0.0000 </r>
       <r>   10.6845    0.0000 </r>
       <r>   14.3006    0.0000 </r>
       <r>   15.8726    0.0000 </r>
       <r>   22.3559    0.0000 </r>
       <r>   23.4247    0.0000 </r>
       <r>   27.0186    0.0000 </r>
       <r>   29.9639    0.0000 </r>
       <r>   34.4283    0.0000 </r>
       <r>   35.8435    0.0000 </r>
       <r>   40.6455    0.0000 </r>
       <r>   41.6425    0.0000 </r>
       <r>   44.9438    0.0000 </r>
       <r>   45.0175    0.0000 </r>
       <r>   50.8793    0.0000 </r>
       <r>   53.5054    0.0000 </r>
       <r>   54.8654    0.0000 </r>
       <r>   57.3711    0.0000 </r>
       <r>   58.3190    0.0000 </r>
       <r>   59.6778    0.0000 </r>
       <r>   60.3028    0.0000 </r>
       <r>   62.4184    0.0000 </r>
       <r>   62.4392    0.0000 </r>
       <r>   64.3812    0.0000 </r>
       <r>   68.4357    0.0000 </r>
       <r>   71.3437    0.0000 </r>
       <r>   74.2476    0.0000 </r>
       <r>   74.9347    0.0000 </r>
       <r>   76.7811    0.0000 </r>
       <r>   78.6755    0.0000 </r>
      </set>
      <set comment="kpoint 26">
       <r>  -44.1833    1.0000 </r>
       <r>   -2.2984    1.0000 </r>
       <r>    5.4871    0.0000 </r>
       <r>   10.5178    0.0000 </r>
       <r>   15.0648    0.0000 </r>
       <r>   15.6950    0.0000 </r>
       <r>   21.7212    0.0000 </r>
       <r>   24.0925    0.0000 </r>
       <r>   26.9889    0.0000 </r>
       <r>   30.5931    0.0000 </r>
       <r>   31.1233    0.0000 </r>
       <r>   36.5672    0.0000 </r>
       <r>   41.1149    0.0000 </r>
       <r>   41.6675    0.0000 </r>
       <r>   44.2354    0.0000 </r>
       <r>   46.8297    0.0000 </r>
       <r>   50.2059    0.0000 </r>
       <r>   51.9699    0.0000 </r>
       <r>   54.9228    0.0000 </r>
       <r>   56.0202    0.0000 </r>
       <r>   57.4709    0.0000 </r>
       <r>   60.8457    0.0000 </r>
       <r>   61.3722    0.0000 </r>
       <r>   62.7821    0.0000 </r>
       <r>   64.6903    0.0000 </r>
       <r>   65.5526    0.0000 </r>
       <r>   68.8873    0.0000 </r>
       <r>   70.8649    0.0000 </r>
       <r>   74.3970    0.0000 </r>
       <r>   75.4624    0.0000 </r>
       <r>   77.2357    0.0000 </r>
       <r>   78.8426    0.0000 </r>
      </set>
      <set comment="kpoint 27">
       <r>  -44.1891    1.0000 </r>
       <r>   -2.9251    1.0000 </r>
       <r>    6.9117    0.0000 </r>
       <r>   10.5992    0.0000 </r>
       <r>   15.7511    0.0000 </r>
       <r>   16.0956    0.0000 </r>
       <r>   21.3746    0.0000 </r>
       <r>   24.8081    0.0000 </r>
       <r>   25.5408    0.0000 </r>
       <r>   28.2180    0.0000 </r>
       <r>   31.9823    0.0000 </r>
       <r>   36.3117    0.0000 </r>
       <r>   37.9611    0.0000 </r>
       <r>   42.2753    0.0000 </r>
       <r>   44.8776    0.0000 </r>
       <r>   47.9460    0.0000 </r>
       <r>   48.2663    0.0000 </r>
       <r>   50.0935    0.0000 </r>
       <r>   51.0716    0.0000 </r>
       <r>   56.9895    0.0000 </r>
       <r>   59.2160    0.0000 </r>
       <r>   61.2819    0.0000 </r>
       <r>   64.8746    0.0000 </r>
       <r>   66.1580    0.0000 </r>
       <r>   68.0728    0.0000 </r>
       <r>   68.4590    0.0000 </r>
       <r>   69.7225    0.0000 </r>
       <r>   70.7029    0.0000 </r>
       <r>   75.3256    0.0000 </r>
       <r>   77.3824    0.0000 </r>
       <r>   78.2334    0.0000 </r>
       <r>   79.0176    0.0000 </r>
      </set>
      <set comment="kpoint 28">
       <r>  -44.1978    1.0000 </r>
       <r>   -3.6388    1.0000 </r>
       <r>    8.9827    0.0000 </r>
       <r>   10.9175    0.0000 </r>
       <r>   16.0191    0.0000 </r>
       <r>   17.2993    0.0000 </r>
       <r>   21.2888    0.0000 </r>
       <r>   23.8149    0.0000 </r>
       <r>   25.8471    0.0000 </r>
       <r>   25.9322    0.0000 </r>
       <r>   31.3284    0.0000 </r>
       <r>   34.5272    0.0000 </r>
       <r>   37.6788    0.0000 </r>
       <r>   39.7577    0.0000 </r>
       <r>   42.5857    0.0000 </r>
       <r>   46.4919    0.0000 </r>
       <r>   47.3811    0.0000 </r>
       <r>   52.4597    0.0000 </r>
       <r>   52.6442    0.0000 </r>
       <r>   57.3334    0.0000 </r>
       <r>   58.2324    0.0000 </r>
       <r>   65.6093    0.0000 </r>
       <r>   65.9477    0.0000 </r>
       <r>   68.6523    0.0000 </r>
       <r>   69.5719    0.0000 </r>
       <r>   71.6499    0.0000 </r>
       <r>   72.1765    0.0000 </r>
       <r>   75.1506    0.0000 </r>
       <r>   77.5847    0.0000 </r>
       <r>   78.6896    0.0000 </r>
       <r>   79.5620    0.0000 </r>
       <r>   80.4787    0.0000 </r>
      </set>
      <set comment="kpoint 29">
       <r>  -44.2075    1.0000 </r>
       <r>   -4.2551    1.0000 </r>
       <r>   11.2537    0.0000 </r>
       <r>   11.6632    0.0000 </r>
       <r>   16.4020    0.0000 </r>
       <r>   18.2965    0.0000 </r>
       <r>   21.5067    0.0000 </r>
       <r>   22.7454    0.0000 </r>
       <r>   24.3493    0.0000 </r>
       <r>   26.2619    0.0000 </r>
       <r>   30.1554    0.0000 </r>
       <r>   31.6372    0.0000 </r>
       <r>   35.5868    0.0000 </r>
       <r>   37.9009    0.0000 </r>
       <r>   42.0558    0.0000 </r>
       <r>   42.7608    0.0000 </r>
       <r>   49.1254    0.0000 </r>
       <r>   54.6834    0.0000 </r>
       <r>   56.4557    0.0000 </r>
       <r>   57.8692    0.0000 </r>
       <r>   58.7783    0.0000 </r>
       <r>   66.2145    0.0000 </r>
       <r>   66.8407    0.0000 </r>
       <r>   71.1509    0.0000 </r>
       <r>   72.3760    0.0000 </r>
       <r>   73.6377    0.0000 </r>
       <r>   75.8921    0.0000 </r>
       <r>   77.2489    0.0000 </r>
       <r>   79.2474    0.0000 </r>
       <r>   79.9588    0.0000 </r>
       <r>   80.7662    0.0000 </r>
       <r>   81.5240    0.0000 </r>
      </set>
      <set comment="kpoint 30">
       <r>  -44.2044    1.0000 </r>
       <r>   -4.0577    1.0000 </r>
       <r>   11.1346    0.0000 </r>
       <r>   13.3968    0.0000 </r>
       <r>   13.3968    0.0000 </r>
       <r>   16.6871    0.0000 </r>
       <r>   17.8637    0.0000 </r>
       <r>   26.0174    0.0000 </r>
       <r>   29.3054    0.0000 </r>
       <r>   29.3054    0.0000 </r>
       <r>   32.2253    0.0000 </r>
       <r>   32.2253    0.0000 </r>
       <r>   32.8355    0.0000 </r>
       <r>   33.9578    0.0000 </r>
       <r>   40.4573    0.0000 </r>
       <r>   47.3070    0.0000 </r>
       <r>   50.7491    0.0000 </r>
       <r>   50.7492    0.0000 </r>
       <r>   53.0937    0.0000 </r>
       <r>   55.0554    0.0000 </r>
       <r>   63.7531    0.0000 </r>
       <r>   66.8543    0.0000 </r>
       <r>   66.8543    0.0000 </r>
       <r>   68.5926    0.0000 </r>
       <r>   71.2043    0.0000 </r>
       <r>   71.2043    0.0000 </r>
       <r>   73.5677    0.0000 </r>
       <r>   74.0660    0.0000 </r>
       <r>   81.2490    0.0000 </r>
       <r>   81.8583    0.0000 </r>
       <r>   81.8593    0.0000 </r>
       <r>   85.7864    0.0000 </r>
      </set>
      <set comment="kpoint 31">
       <r>  -44.1966    1.0000 </r>
       <r>   -3.5211    1.0000 </r>
       <r>    9.5234    0.0000 </r>
       <r>   12.0968    0.0000 </r>
       <r>   12.8333    0.0000 </r>
       <r>   16.8955    0.0000 </r>
       <r>   17.7195    0.0000 </r>
       <r>   26.6804    0.0000 </r>
       <r>   28.8885    0.0000 </r>
       <r>   30.3664    0.0000 </r>
       <r>   33.5165    0.0000 </r>
       <r>   33.6556    0.0000 </r>
       <r>   35.7245    0.0000 </r>
       <r>   37.4699    0.0000 </r>
       <r>   39.6270    0.0000 </r>
       <r>   46.9276    0.0000 </r>
       <r>   48.4317    0.0000 </r>
       <r>   50.5897    0.0000 </r>
       <r>   52.9690    0.0000 </r>
       <r>   53.7295    0.0000 </r>
       <r>   61.3392    0.0000 </r>
       <r>   65.0965    0.0000 </r>
       <r>   66.7714    0.0000 </r>
       <r>   67.3352    0.0000 </r>
       <r>   68.6198    0.0000 </r>
       <r>   71.2517    0.0000 </r>
       <r>   72.0856    0.0000 </r>
       <r>   73.8806    0.0000 </r>
       <r>   79.3235    0.0000 </r>
       <r>   80.4569    0.0000 </r>
       <r>   80.6973    0.0000 </r>
       <r>   83.4047    0.0000 </r>
      </set>
      <set comment="kpoint 32">
       <r>  -44.1884    1.0000 </r>
       <r>   -2.8299    1.0000 </r>
       <r>    7.7085    0.0000 </r>
       <r>   10.6601    0.0000 </r>
       <r>   12.5795    0.0000 </r>
       <r>   16.7935    0.0000 </r>
       <r>   19.0422    0.0000 </r>
       <r>   26.8581    0.0000 </r>
       <r>   27.4533    0.0000 </r>
       <r>   31.3703    0.0000 </r>
       <r>   35.3947    0.0000 </r>
       <r>   35.9277    0.0000 </r>
       <r>   38.5375    0.0000 </r>
       <r>   39.3723    0.0000 </r>
       <r>   42.1988    0.0000 </r>
       <r>   42.6840    0.0000 </r>
       <r>   46.9179    0.0000 </r>
       <r>   52.6838    0.0000 </r>
       <r>   53.5569    0.0000 </r>
       <r>   54.0179    0.0000 </r>
       <r>   58.0079    0.0000 </r>
       <r>   61.8926    0.0000 </r>
       <r>   64.3625    0.0000 </r>
       <r>   65.2751    0.0000 </r>
       <r>   68.8505    0.0000 </r>
       <r>   70.3689    0.0000 </r>
       <r>   70.5232    0.0000 </r>
       <r>   73.6714    0.0000 </r>
       <r>   74.8726    0.0000 </r>
       <r>   76.5546    0.0000 </r>
       <r>   80.8548    0.0000 </r>
       <r>   81.0417    0.0000 </r>
      </set>
      <set comment="kpoint 33">
       <r>  -44.1817    1.0000 </r>
       <r>   -2.0955    1.0000 </r>
       <r>    6.0951    0.0000 </r>
       <r>    9.6100    0.0000 </r>
       <r>   12.6397    0.0000 </r>
       <r>   16.4006    0.0000 </r>
       <r>   21.0855    0.0000 </r>
       <r>   26.1280    0.0000 </r>
       <r>   27.1323    0.0000 </r>
       <r>   31.5932    0.0000 </r>
       <r>   35.9736    0.0000 </r>
       <r>   38.0818    0.0000 </r>
       <r>   39.0515    0.0000 </r>
       <r>   39.5557    0.0000 </r>
       <r>   43.7534    0.0000 </r>
       <r>   44.9802    0.0000 </r>
       <r>   47.7315    0.0000 </r>
       <r>   52.1482    0.0000 </r>
       <r>   52.9427    0.0000 </r>
       <r>   55.4566    0.0000 </r>
       <r>   58.1239    0.0000 </r>
       <r>   59.1439    0.0000 </r>
       <r>   61.7287    0.0000 </r>
       <r>   63.0857    0.0000 </r>
       <r>   67.0321    0.0000 </r>
       <r>   68.6599    0.0000 </r>
       <r>   68.9487    0.0000 </r>
       <r>   70.3449    0.0000 </r>
       <r>   71.1689    0.0000 </r>
       <r>   76.3592    0.0000 </r>
       <r>   78.1731    0.0000 </r>
       <r>   80.2399    0.0000 </r>
      </set>
      <set comment="kpoint 34">
       <r>  -44.1782    1.0000 </r>
       <r>   -1.5828    1.0000 </r>
       <r>    5.1429    0.0000 </r>
       <r>    8.9236    0.0000 </r>
       <r>   13.0143    0.0000 </r>
       <r>   16.0604    0.0000 </r>
       <r>   23.2812    0.0000 </r>
       <r>   25.0428    0.0000 </r>
       <r>   27.8075    0.0000 </r>
       <r>   30.3134    0.0000 </r>
       <r>   34.5918    0.0000 </r>
       <r>   36.3275    0.0000 </r>
       <r>   42.0434    0.0000 </r>
       <r>   42.0809    0.0000 </r>
       <r>   43.2444    0.0000 </r>
       <r>   48.1266    0.0000 </r>
       <r>   48.9485    0.0000 </r>
       <r>   52.6641    0.0000 </r>
       <r>   53.5925    0.0000 </r>
       <r>   56.8126    0.0000 </r>
       <r>   57.0509    0.0000 </r>
       <r>   58.6726    0.0000 </r>
       <r>   59.5911    0.0000 </r>
       <r>   61.0473    0.0000 </r>
       <r>   62.9119    0.0000 </r>
       <r>   64.4106    0.0000 </r>
       <r>   68.7425    0.0000 </r>
       <r>   70.7847    0.0000 </r>
       <r>   71.5968    0.0000 </r>
       <r>   75.3747    0.0000 </r>
       <r>   76.0894    0.0000 </r>
       <r>   79.7901    0.0000 </r>
      </set>
      <set comment="kpoint 35">
       <r>  -44.1785    1.0000 </r>
       <r>   -1.6433    1.0000 </r>
       <r>    5.2910    0.0000 </r>
       <r>    8.5554    0.0000 </r>
       <r>   13.6997    0.0000 </r>
       <r>   15.8460    0.0000 </r>
       <r>   24.1877    0.0000 </r>
       <r>   25.1775    0.0000 </r>
       <r>   28.3445    0.0000 </r>
       <r>   29.2775    0.0000 </r>
       <r>   31.2700    0.0000 </r>
       <r>   36.2973    0.0000 </r>
       <r>   41.0900    0.0000 </r>
       <r>   44.8079    0.0000 </r>
       <r>   45.5350    0.0000 </r>
       <r>   46.6699    0.0000 </r>
       <r>   51.8075    0.0000 </r>
       <r>   52.6672    0.0000 </r>
       <r>   53.7849    0.0000 </r>
       <r>   56.4277    0.0000 </r>
       <r>   56.7309    0.0000 </r>
       <r>   58.3189    0.0000 </r>
       <r>   59.5433    0.0000 </r>
       <r>   59.8242    0.0000 </r>
       <r>   60.1441    0.0000 </r>
       <r>   65.3586    0.0000 </r>
       <r>   69.8734    0.0000 </r>
       <r>   71.5990    0.0000 </r>
       <r>   71.6724    0.0000 </r>
       <r>   74.9261    0.0000 </r>
       <r>   75.6139    0.0000 </r>
       <r>   79.7951    0.0000 </r>
      </set>
      <set comment="kpoint 36">
       <r>  -44.1826    1.0000 </r>
       <r>   -2.2269    1.0000 </r>
       <r>    6.5139    0.0000 </r>
       <r>    8.4787    0.0000 </r>
       <r>   14.6851    0.0000 </r>
       <r>   15.7861    0.0000 </r>
       <r>   23.4573    0.0000 </r>
       <r>   26.0951    0.0000 </r>
       <r>   26.7956    0.0000 </r>
       <r>   28.4732    0.0000 </r>
       <r>   31.5600    0.0000 </r>
       <r>   34.7541    0.0000 </r>
       <r>   39.8343    0.0000 </r>
       <r>   43.6361    0.0000 </r>
       <r>   47.8228    0.0000 </r>
       <r>   49.2254    0.0000 </r>
       <r>   49.2528    0.0000 </r>
       <r>   50.8553    0.0000 </r>
       <r>   53.8742    0.0000 </r>
       <r>   54.1617    0.0000 </r>
       <r>   55.9474    0.0000 </r>
       <r>   57.8483    0.0000 </r>
       <r>   61.1611    0.0000 </r>
       <r>   62.8864    0.0000 </r>
       <r>   64.6981    0.0000 </r>
       <r>   67.4370    0.0000 </r>
       <r>   70.5645    0.0000 </r>
       <r>   71.8503    0.0000 </r>
       <r>   72.4901    0.0000 </r>
       <r>   76.2139    0.0000 </r>
       <r>   76.8413    0.0000 </r>
       <r>   80.0985    0.0000 </r>
      </set>
      <set comment="kpoint 37">
       <r>  -44.1896    1.0000 </r>
       <r>   -2.9695    1.0000 </r>
       <r>    8.3105    0.0000 </r>
       <r>    8.7998    0.0000 </r>
       <r>   15.8671    0.0000 </r>
       <r>   15.9363    0.0000 </r>
       <r>   22.5521    0.0000 </r>
       <r>   24.8426    0.0000 </r>
       <r>   26.5516    0.0000 </r>
       <r>   26.9015    0.0000 </r>
       <r>   32.2409    0.0000 </r>
       <r>   34.9950    0.0000 </r>
       <r>   37.5751    0.0000 </r>
       <r>   43.1093    0.0000 </r>
       <r>   43.3577    0.0000 </r>
       <r>   48.7378    0.0000 </r>
       <r>   50.0544    0.0000 </r>
       <r>   51.3319    0.0000 </r>
       <r>   53.5836    0.0000 </r>
       <r>   54.2424    0.0000 </r>
       <r>   54.3538    0.0000 </r>
       <r>   62.0374    0.0000 </r>
       <r>   65.0761    0.0000 </r>
       <r>   65.7940    0.0000 </r>
       <r>   66.6892    0.0000 </r>
       <r>   69.3824    0.0000 </r>
       <r>   72.1427    0.0000 </r>
       <r>   73.5546    0.0000 </r>
       <r>   73.6946    0.0000 </r>
       <r>   78.3742    0.0000 </r>
       <r>   78.8034    0.0000 </r>
       <r>   80.4363    0.0000 </r>
      </set>
      <set comment="kpoint 38">
       <r>  -44.1905    1.0000 </r>
       <r>   -3.0142    1.0000 </r>
       <r>    8.3203    0.0000 </r>
       <r>   12.1561    0.0000 </r>
       <r>   12.1561    0.0000 </r>
       <r>   15.3709    0.0000 </r>
       <r>   17.3884    0.0000 </r>
       <r>   28.7795    0.0000 </r>
       <r>   31.1311    0.0000 </r>
       <r>   31.1311    0.0000 </r>
       <r>   34.3462    0.0000 </r>
       <r>   36.0846    0.0000 </r>
       <r>   36.0846    0.0000 </r>
       <r>   38.3602    0.0000 </r>
       <r>   39.1667    0.0000 </r>
       <r>   46.8178    0.0000 </r>
       <r>   46.8178    0.0000 </r>
       <r>   48.9405    0.0000 </r>
       <r>   50.8579    0.0000 </r>
       <r>   53.6182    0.0000 </r>
       <r>   62.7398    0.0000 </r>
       <r>   63.9631    0.0000 </r>
       <r>   63.9631    0.0000 </r>
       <r>   66.9865    0.0000 </r>
       <r>   68.5258    0.0000 </r>
       <r>   68.5258    0.0000 </r>
       <r>   70.0778    0.0000 </r>
       <r>   73.4694    0.0000 </r>
       <r>   80.7695    0.0000 </r>
       <r>   80.7697    0.0000 </r>
       <r>   82.5657    0.0000 </r>
       <r>   84.8497    0.0000 </r>
      </set>
      <set comment="kpoint 39">
       <r>  -44.1839    1.0000 </r>
       <r>   -2.3367    1.0000 </r>
       <r>    6.8902    0.0000 </r>
       <r>   10.8959    0.0000 </r>
       <r>   11.7916    0.0000 </r>
       <r>   15.8777    0.0000 </r>
       <r>   17.3729    0.0000 </r>
       <r>   29.7018    0.0000 </r>
       <r>   30.5566    0.0000 </r>
       <r>   32.3379    0.0000 </r>
       <r>   36.6732    0.0000 </r>
       <r>   37.7001    0.0000 </r>
       <r>   38.2243    0.0000 </r>
       <r>   38.6662    0.0000 </r>
       <r>   42.0264    0.0000 </r>
       <r>   43.1945    0.0000 </r>
       <r>   45.2965    0.0000 </r>
       <r>   49.1367    0.0000 </r>
       <r>   49.4031    0.0000 </r>
       <r>   55.7835    0.0000 </r>
       <r>   60.0443    0.0000 </r>
       <r>   60.8641    0.0000 </r>
       <r>   62.2340    0.0000 </r>
       <r>   64.7939    0.0000 </r>
       <r>   66.6740    0.0000 </r>
       <r>   69.2423    0.0000 </r>
       <r>   72.2972    0.0000 </r>
       <r>   74.5824    0.0000 </r>
       <r>   77.0324    0.0000 </r>
       <r>   78.3870    0.0000 </r>
       <r>   80.3385    0.0000 </r>
       <r>   82.3683    0.0000 </r>
      </set>
      <set comment="kpoint 40">
       <r>  -44.1783    1.0000 </r>
       <r>   -1.5761    1.0000 </r>
       <r>    5.5993    0.0000 </r>
       <r>    9.3561    0.0000 </r>
       <r>   11.7439    0.0000 </r>
       <r>   16.4131    0.0000 </r>
       <r>   18.4545    0.0000 </r>
       <r>   29.2182    0.0000 </r>
       <r>   30.0445    0.0000 </r>
       <r>   33.0559    0.0000 </r>
       <r>   36.9335    0.0000 </r>
       <r>   38.6459    0.0000 </r>
       <r>   39.8633    0.0000 </r>
       <r>   40.3680    0.0000 </r>
       <r>   42.0232    0.0000 </r>
       <r>   43.8631    0.0000 </r>
       <r>   47.0507    0.0000 </r>
       <r>   48.8634    0.0000 </r>
       <r>   50.4831    0.0000 </r>
       <r>   55.3062    0.0000 </r>
       <r>   56.6551    0.0000 </r>
       <r>   58.0450    0.0000 </r>
       <r>   62.1693    0.0000 </r>
       <r>   63.8872    0.0000 </r>
       <r>   65.5046    0.0000 </r>
       <r>   69.9804    0.0000 </r>
       <r>   70.1939    0.0000 </r>
       <r>   71.1436    0.0000 </r>
       <r>   74.3268    0.0000 </r>
       <r>   76.8766    0.0000 </r>
       <r>   79.9903    0.0000 </r>
       <r>   80.7807    0.0000 </r>
      </set>
      <set comment="kpoint 41">
       <r>  -44.1749    1.0000 </r>
       <r>   -0.9703    1.0000 </r>
       <r>    4.7548    0.0000 </r>
       <r>    8.2085    0.0000 </r>
       <r>   12.0141    0.0000 </r>
       <r>   16.2641    0.0000 </r>
       <r>   20.6577    0.0000 </r>
       <r>   27.9678    0.0000 </r>
       <r>   30.3807    0.0000 </r>
       <r>   31.8479    0.0000 </r>
       <r>   35.1795    0.0000 </r>
       <r>   37.0167    0.0000 </r>
       <r>   41.6668    0.0000 </r>
       <r>   42.7806    0.0000 </r>
       <r>   43.4653    0.0000 </r>
       <r>   45.9236    0.0000 </r>
       <r>   49.6143    0.0000 </r>
       <r>   52.1820    0.0000 </r>
       <r>   52.2382    0.0000 </r>
       <r>   53.1858    0.0000 </r>
       <r>   53.8575    0.0000 </r>
       <r>   55.6334    0.0000 </r>
       <r>   61.0993    0.0000 </r>
       <r>   63.5576    0.0000 </r>
       <r>   64.3611    0.0000 </r>
       <r>   66.0805    0.0000 </r>
       <r>   68.3193    0.0000 </r>
       <r>   70.6699    0.0000 </r>
       <r>   72.2194    0.0000 </r>
       <r>   76.6945    0.0000 </r>
       <r>   77.7780    0.0000 </r>
       <r>   79.0999    0.0000 </r>
      </set>
      <set comment="kpoint 42">
       <r>  -44.1746    1.0000 </r>
       <r>   -0.9226    1.0000 </r>
       <r>    4.8143    0.0000 </r>
       <r>    7.5315    0.0000 </r>
       <r>   12.6003    0.0000 </r>
       <r>   16.0469    0.0000 </r>
       <r>   23.1897    0.0000 </r>
       <r>   26.7886    0.0000 </r>
       <r>   29.6918    0.0000 </r>
       <r>   30.9886    0.0000 </r>
       <r>   31.9802    0.0000 </r>
       <r>   36.7482    0.0000 </r>
       <r>   40.2266    0.0000 </r>
       <r>   45.7210    0.0000 </r>
       <r>   46.9064    0.0000 </r>
       <r>   49.3685    0.0000 </r>
       <r>   50.0300    0.0000 </r>
[...]
        <r>  0.1556  0.0093  0.0010  0.0365  0.0000  0.0000  0.0000  0.0000  0.0000 </r>
       </set>
       <set comment="band 12">
        <r>  0.0367  0.4738  0.0028  1.1357  0.0000  0.0000  0.0000  0.0000  0.0000 </r>
        <r>  0.0266  0.0123  0.0006  0.0404  0.0000  0.0000  0.0000  0.0000  0.0000 </r>
       </set>
       <set comment="band 13">
        <r>  0.0000  0.0130  0.0195  0.0065  0.0000  0.0000  0.0000  0.0000  0.0000 </r>
        <r>  0.0000  0.0086  0.0128  0.0043  0.0000  0.0000  0.0000  0.0000  0.0000 </r>
       </set>
       <set comment="band 14">
        <r>  0.0000  0.0488  0.0732  0.0244  0.0000  0.0000  0.0000  0.0000  0.0000 </r>
        <r>  0.0000  0.0126  0.0188  0.0063  0.0000  0.0000  0.0000  0.0000  0.0000 </r>
       </set>
       <set comment="band 15">
        <r>  0.0025  0.0002  0.0167  0.0417  0.0000  0.0000  0.0000  0.0000  0.0000 </r>
        <r>  0.0196  0.0636  0.0002  0.1107  0.0000  0.0000  0.0000  0.0000  0.0000 </r>
       </set>
       <set comment="band 16">
        <r>  0.0535  0.1234  0.4765  0.4884  0.0000  0.0000  0.0000  0.0000  0.0000 </r>
        <r>  0.0041  0.0046  0.0037  0.0001  0.0000  0.0000  0.0000  0.0000  0.0000 </r>
       </set>
       <set comment="band 17">
        <r>  0.0000  0.0484  0.0726  0.0242  0.0000  0.0000  0.0000  0.0000  0.0000 </r>
        <r>  0.0000  0.0141  0.0212  0.0071  0.0000  0.0000  0.0000  0.0000  0.0000 </r>
       </set>
       <set comment="band 18">
        <r>  0.0065  0.0670  0.0000  0.1306  0.0000  0.0000  0.0000  0.0000  0.0000 </r>
        <r>  0.0230  0.0122  0.0634  0.0783  0.0000  0.0000  0.0000  0.0000  0.0000 </r>
       </set>
       <set comment="band 19">
        <r>  0.0457  0.1136  0.0046  0.1288  0.0000  0.0000  0.0000  0.0000  0.0000 </r>
        <r>  0.0002  0.0003  0.0048  0.0091  0.0000  0.0000  0.0000  0.0000  0.0000 </r>
       </set>
       <set comment="band 20">
        <r>  0.0000  0.0531  0.0796  0.0265  0.0000  0.0000  0.0000  0.0000  0.0000 </r>
        <r>  0.0000  0.0082  0.0123  0.0041  0.0000  0.0000  0.0000  0.0000  0.0000 </r>
       </set>
       <set comment="band 21">
        <r>  0.1416  0.1438  0.2490  0.1076  0.0000  0.0000  0.0000  0.0000  0.0000 </r>
        <r>  0.0001  0.0527  0.0149  0.0128  0.0000  0.0000  0.0000  0.0000  0.0000 </r>
       </set>
       <set comment="band 22">
        <r>  0.0868  0.8603  0.6419  0.0058  0.0000  0.0000  0.0000  0.0000  0.0000 </r>
        <r>  0.0232  0.0192  0.0058  0.0040  0.0000  0.0000  0.0000  0.0000  0.0000 </r>
       </set>
       <set comment="band 23">
        <r>  0.0000  0.0866  0.1299  0.0433  0.0000  0.0000  0.0000  0.0000  0.0000 </r>
        <r>  0.0000  0.0058  0.0087  0.0029  0.0000  0.0000  0.0000  0.0000  0.0000 </r>
       </set>
       <set comment="band 24">
        <r>  0.0000  0.3956  0.5935  0.1978  0.0000  0.0000  0.0000  0.0000  0.0000 </r>
        <r>  0.0000  0.0258  0.0387  0.0129  0.0000  0.0000  0.0000  0.0000  0.0000 </r>
       </set>
       <set comment="band 25">
        <r>  0.0153  0.0252  0.1044  0.1124  0.0000  0.0000  0.0000  0.0000  0.0000 </r>
        <r>  0.0481  0.1333  0.1330  0.0133  0.0000  0.0000  0.0000  0.0000  0.0000 </r>
       </set>
       <set comment="band 26">
        <r>  0.0054  0.1934  0.0057  0.2413  0.0000  0.0000  0.0000  0.0000  0.0000 </r>
        <r>  0.0075  0.0035  0.0150  0.0875  0.0000  0.0000  0.0000  0.0000  0.0000 </r>
       </set>
       <set comment="band 27">
        <r>  0.0000  0.0446  0.0668  0.0223  0.0000  0.0000  0.0000  0.0000  0.0000 </r>
        <r>  0.0000  0.0004  0.0007  0.0002  0.0000  0.0000  0.0000  0.0000  0.0000 </r>
       </set>
       <set comment="band 28">
        <r>  0.1449  0.0036  0.3172  0.7931  0.0000  0.0000  0.0000  0.0000  0.0000 </r>
        <r>  0.0044  0.0066  0.0047  0.0545  0.0000  0.0000  0.0000  0.0000  0.0000 </r>
       </set>
       <set comment="band 29">
        <r>  0.0000  0.0531  0.0797  0.0266  0.0000  0.0000  0.0000  0.0000  0.0000 </r>
        <r>  0.0000  0.0283  0.0424  0.0141  0.0000  0.0000  0.0000  0.0000  0.0000 </r>
       </set>
       <set comment="band 30">
        <r>  0.1558  0.5595  0.2210  0.0593  0.0000  0.0000  0.0000  0.0000  0.0000 </r>
        <r>  0.0070  0.0315  0.0000  0.0592  0.0000  0.0000  0.0000  0.0000  0.0000 </r>
       </set>
       <set comment="band 31">
        <r>  0.0000  0.8586  1.2881  0.4292  0.0000  0.0000  0.0000  0.0000  0.0000 </r>
        <r>  0.0000  0.0863  0.1294  0.0432  0.0000  0.0000  0.0000  0.0000  0.0000 </r>
       </set>
       <set comment="band 32">
        <r>  0.0020  0.4086  0.0426  0.2985  0.0000  0.0000  0.0000  0.0000  0.0000 </r>
        <r>  0.0384  0.0481  0.0039  0.0408  0.0000  0.0000  0.0000  0.0000  0.0000 </r>
       </set>
      </set>
      <set comment="kpoint 83">
       <set comment="band 1">
        <r>  0.9899  0.0000  0.0000  0.0000  0.0000  0.0000  0.0000  0.0000  0.0000 </r>
        <r>  0.0000  0.0000  0.0000  0.0000  0.0000  0.0000  0.0000  0.0000  0.0000 </r>
       </set>
       <set comment="band 2">
        <r>  0.0014  0.0124  0.0042  0.0062  0.0000  0.0000  0.0000  0.0000  0.0000 </r>
        <r>  0.3713  0.0000  0.0000  0.0000  0.0000  0.0000  0.0000  0.0000  0.0000 </r>
       </set>
       <set comment="band 3">
        <r>  0.0000  0.0524  0.0000  0.1048  0.0000  0.0000  0.0000  0.0000  0.0000 </r>
        <r>  0.0000  0.0067  0.0000  0.0133  0.0000  0.0000  0.0000  0.0000  0.0000 </r>
       </set>
       <set comment="band 4">
        <r>  0.0087  0.0568  0.0795  0.0284  0.0000  0.0000  0.0000  0.0000  0.0000 </r>
        <r>  0.0074  0.0095  0.0071  0.0047  0.0000  0.0000  0.0000  0.0000  0.0000 </r>
       </set>
       <set comment="band 5">
        <r>  0.1799  0.0032  0.0723  0.0016  0.0000  0.0000  0.0000  0.0000  0.0000 </r>
        <r>  0.0004  0.0081  0.0211  0.0040  0.0000  0.0000  0.0000  0.0000  0.0000 </r>
       </set>
       <set comment="band 6">
        <r>  0.0696  0.1594  0.3016  0.0797  0.0000  0.0000  0.0000  0.0000  0.0000 </r>
        <r>  0.1232  0.0002  0.0006  0.0001  0.0000  0.0000  0.0000  0.0000  0.0000 </r>
       </set>
       <set comment="band 7">
        <r>  0.0005  0.1472  0.0252  0.0736  0.0000  0.0000  0.0000  0.0000  0.0000 </r>
        <r>  0.0098  0.0038  0.0054  0.0019  0.0000  0.0000  0.0000  0.0000  0.0000 </r>
       </set>
       <set comment="band 8">
        <r>  0.0000  0.1170  0.0000  0.2341  0.0000  0.0000  0.0000  0.0000  0.0000 </r>
        <r>  0.0000  0.0035  0.0000  0.0070  0.0000  0.0000  0.0000  0.0000  0.0000 </r>
       </set>
       <set comment="band 9">
        <r>  0.1799  0.0020  0.1702  0.0010  0.0000  0.0000  0.0000  0.0000  0.0000 </r>
        <r>  0.0033  0.0228  0.0621  0.0114  0.0000  0.0000  0.0000  0.0000  0.0000 </r>
       </set>
       <set comment="band 10">
        <r>  0.0299  0.0737  0.6595  0.0369  0.0000  0.0000  0.0000  0.0000  0.0000 </r>
        <r>  0.0967  0.0356  0.0325  0.0178  0.0000  0.0000  0.0000  0.0000  0.0000 </r>
       </set>
       <set comment="band 11">
        <r>  0.0000  0.5838  0.0000  1.1676  0.0000  0.0000  0.0000  0.0000  0.0000 </r>
        <r>  0.0000  0.0291  0.0000  0.0582  0.0000  0.0000  0.0000  0.0000  0.0000 </r>
       </set>
       <set comment="band 12">
        <r>  0.0052  0.7245  0.1424  0.3622  0.0000  0.0000  0.0000  0.0000  0.0000 </r>
        <r>  0.1000  0.0251  0.0188  0.0125  0.0000  0.0000  0.0000  0.0000  0.0000 </r>
       </set>
       <set comment="band 13">
        <r>  0.0000  0.0263  0.0000  0.0526  0.0000  0.0000  0.0000  0.0000  0.0000 </r>
        <r>  0.0000  0.0407  0.0000  0.0814  0.0000  0.0000  0.0000  0.0000  0.0000 </r>
       </set>
       <set comment="band 14">
        <r>  0.0000  0.0581  0.0000  0.1163  0.0000  0.0000  0.0000  0.0000  0.0000 </r>
        <r>  0.0000  0.0019  0.0000  0.0038  0.0000  0.0000  0.0000  0.0000  0.0000 </r>
       </set>
       <set comment="band 15">
        <r>  0.0038  0.0244  0.0905  0.0122  0.0000  0.0000  0.0000  0.0000  0.0000 </r>
        <r>  0.0074  0.0359  0.0500  0.0179  0.0000  0.0000  0.0000  0.0000  0.0000 </r>
       </set>
       <set comment="band 16">
        <r>  0.0000  0.0004  0.0000  0.0009  0.0000  0.0000  0.0000  0.0000  0.0000 </r>
        <r>  0.0000  0.0165  0.0000  0.0329  0.0000  0.0000  0.0000  0.0000  0.0000 </r>
       </set>
       <set comment="band 17">
        <r>  0.1413  0.0865  0.6512  0.0433  0.0000  0.0000  0.0000  0.0000  0.0000 </r>
        <r>  0.0014  0.0002  0.0012  0.0001  0.0000  0.0000  0.0000  0.0000  0.0000 </r>
       </set>
       <set comment="band 18">
        <r>  0.0732  0.4098  0.1594  0.2049  0.0000  0.0000  0.0000  0.0000  0.0000 </r>
        <r>  0.0209  0.0426  0.0776  0.0213  0.0000  0.0000  0.0000  0.0000  0.0000 </r>
       </set>
       <set comment="band 19">
        <r>  0.0000  0.2645  0.0000  0.5289  0.0000  0.0000  0.0000  0.0000  0.0000 </r>
        <r>  0.0000  0.0084  0.0000  0.0167  0.0000  0.0000  0.0000  0.0000  0.0000 </r>
       </set>
       <set comment="band 20">
        <r>  0.0473  0.7017  0.4949  0.3509  0.0000  0.0000  0.0000  0.0000  0.0000 </r>
        <r>  0.0344  0.0008  0.0368  0.0004  0.0000  0.0000  0.0000  0.0000  0.0000 </r>
       </set>
       <set comment="band 21">
        <r>  0.0000  0.0020  0.0000  0.0040  0.0000  0.0000  0.0000  0.0000  0.0000 </r>
        <r>  0.0000  0.0238  0.0000  0.0476  0.0000  0.0000  0.0000  0.0000  0.0000 </r>
       </set>
       <set comment="band 22">
        <r>  0.0132  0.2177  0.3734  0.1088  0.0000  0.0000  0.0000  0.0000  0.0000 </r>
        <r>  0.0053  0.0038  0.0112  0.0019  0.0000  0.0000  0.0000  0.0000  0.0000 </r>
       </set>
       <set comment="band 23">
        <r>  0.0000  0.0204  0.0000  0.0408  0.0000  0.0000  0.0000  0.0000  0.0000 </r>
        <r>  0.0000  0.0037  0.0000  0.0074  0.0000  0.0000  0.0000  0.0000  0.0000 </r>
       </set>
       <set comment="band 24">
        <r>  0.0234  0.0074  0.6111  0.0037  0.0000  0.0000  0.0000  0.0000  0.0000 </r>
        <r>  0.0056  0.1396  0.0014  0.0698  0.0000  0.0000  0.0000  0.0000  0.0000 </r>
       </set>
       <set comment="band 25">
        <r>  0.0000  0.0632  0.0000  0.1265  0.0000  0.0000  0.0000  0.0000  0.0000 </r>
        <r>  0.0000  0.0133  0.0000  0.0266  0.0000  0.0000  0.0000  0.0000  0.0000 </r>
       </set>
       <set comment="band 26">
        <r>  0.0092  0.1947  0.1937  0.0973  0.0000  0.0000  0.0000  0.0000  0.0000 </r>
        <r>  0.0350  0.0342  0.1320  0.0171  0.0000  0.0000  0.0000  0.0000  0.0000 </r>
       </set>
       <set comment="band 27">
        <r>  0.0006  0.0029  0.0637  0.0015  0.0000  0.0000  0.0000  0.0000  0.0000 </r>
        <r>  0.0035  0.0053  0.0827  0.0026  0.0000  0.0000  0.0000  0.0000  0.0000 </r>
       </set>
       <set comment="band 28">
        <r>  0.0000  0.0835  0.0000  0.1670  0.0000  0.0000  0.0000  0.0000  0.0000 </r>
        <r>  0.0000  0.0142  0.0000  0.0284  0.0000  0.0000  0.0000  0.0000  0.0000 </r>
       </set>
       <set comment="band 29">
        <r>  0.2766  0.0012  0.7220  0.0006  0.0000  0.0000  0.0000  0.0000  0.0000 </r>
        <r>  0.0000  0.0147  0.0003  0.0073  0.0000  0.0000  0.0000  0.0000  0.0000 </r>
       </set>
       <set comment="band 30">
        <r>  0.0209  0.3070  0.1032  0.1535  0.0000  0.0000  0.0000  0.0000  0.0000 </r>
        <r>  0.0276  0.0242  0.0767  0.0121  0.0000  0.0000  0.0000  0.0000  0.0000 </r>
       </set>
       <set comment="band 31">
        <r>  0.0000  0.6297  0.0000  1.2594  0.0000  0.0000  0.0000  0.0000  0.0000 </r>
        <r>  0.0000  0.0897  0.0000  0.1794  0.0000  0.0000  0.0000  0.0000  0.0000 </r>
       </set>
       <set comment="band 32">
        <r>  0.0994  0.4001  0.1320  0.2000  0.0000  0.0000  0.0000  0.0000  0.0000 </r>
        <r>  0.0155  0.0412  0.0578  0.0206  0.0000  0.0000  0.0000  0.0000  0.0000 </r>
       </set>
      </set>
      <set comment="kpoint 84">
       <set comment="band 1">
        <r>  0.9899  0.0000  0.0000  0.0000  0.0000  0.0000  0.0000  0.0000  0.0000 </r>
        <r>  0.0000  0.0000  0.0000  0.0000  0.0000  0.0000  0.0000  0.0000  0.0000 </r>
       </set>
       <set comment="band 2">
        <r>  0.0006  0.0024  0.0109  0.0125  0.0000  0.0000  0.0000  0.0000  0.0000 </r>
        <r>  0.3637  0.0001  0.0000  0.0002  0.0000  0.0000  0.0000  0.0000  0.0000 </r>
       </set>
       <set comment="band 3">
        <r>  0.0042  0.0585  0.0004  0.0945  0.0000  0.0000  0.0000  0.0000  0.0000 </r>
        <r>  0.0138  0.0052  0.0001  0.0149  0.0000  0.0000  0.0000  0.0000  0.0000 </r>
       </set>
       <set comment="band 4">
        <r>  0.0000  0.0565  0.0847  0.0283  0.0000  0.0000  0.0000  0.0000  0.0000 </r>
        <r>  0.0000  0.0069  0.0103  0.0034  0.0000  0.0000  0.0000  0.0000  0.0000 </r>
       </set>
       <set comment="band 5">
        <r>  0.2196  0.0003  0.0028  0.0135  0.0000  0.0000  0.0000  0.0000  0.0000 </r>
        <r>  0.0002  0.0125  0.0164  0.0041  0.0000  0.0000  0.0000  0.0000  0.0000 </r>
       </set>
       <set comment="band 6">
        <r>  0.0057  0.2636  0.3438  0.0838  0.0000  0.0000  0.0000  0.0000  0.0000 </r>
        <r>  0.1349  0.0000  0.0000  0.0001  0.0000  0.0000  0.0000  0.0000  0.0000 </r>
       </set>
       <set comment="band 7">
        <r>  0.0000  0.0810  0.1215  0.0405  0.0000  0.0000  0.0000  0.0000  0.0000 </r>
        <r>  0.0000  0.0040  0.0060  0.0020  0.0000  0.0000  0.0000  0.0000  0.0000 </r>
       </set>
       <set comment="band 8">
        <r>  0.0252  0.0531  0.0029  0.1758  0.0000  0.0000  0.0000  0.0000  0.0000 </r>
        <r>  0.0024  0.0101  0.0021  0.0040  0.0000  0.0000  0.0000  0.0000  0.0000 </r>
       </set>
       <set comment="band 9">
        <r>  0.1920  0.0181  0.0060  0.1050  0.0000  0.0000  0.0000  0.0000  0.0000 </r>
        <r>  0.0019  0.0340  0.0448  0.0112  0.0000  0.0000  0.0000  0.0000  0.0000 </r>
       </set>
       <set comment="band 10">
        <r>  0.0057  0.4303  0.1181  0.1106  0.0000  0.0000  0.0000  0.0000  0.0000 </r>
        <r>  0.1279  0.0157  0.0005  0.0471  0.0000  0.0000  0.0000  0.0000  0.0000 </r>
       </set>
       <set comment="band 11">
        <r>  0.0000  0.5708  0.8563  0.2854  0.0000  0.0000  0.0000  0.0000  0.0000 </r>
        <r>  0.0000  0.0430  0.0645  0.0215  0.0000  0.0000  0.0000  0.0000  0.0000 </r>
       </set>
       <set comment="band 12">
        <r>  0.0243  0.2497  0.0474  1.1748  0.0000  0.0000  0.0000  0.0000  0.0000 </r>
        <r>  0.0599  0.0165  0.0005  0.0484  0.0000  0.0000  0.0000  0.0000  0.0000 </r>
       </set>
       <set comment="band 13">
        <r>  0.0000  0.0025  0.0037  0.0012  0.0000  0.0000  0.0000  0.0000  0.0000 </r>
        <r>  0.0000  0.0249  0.0373  0.0124  0.0000  0.0000  0.0000  0.0000  0.0000 </r>
       </set>
       <set comment="band 14">
        <r>  0.0000  0.0458  0.0688  0.0229  0.0000  0.0000  0.0000  0.0000  0.0000 </r>
        <r>  0.0000  0.0003  0.0005  0.0002  0.0000  0.0000  0.0000  0.0000  0.0000 </r>
       </set>
       <set comment="band 15">
        <r>  0.0002  0.0354  0.0124  0.0053  0.0000  0.0000  0.0000  0.0000  0.0000 </r>
        <r>  0.0120  0.0435  0.0000  0.0827  0.0000  0.0000  0.0000  0.0000  0.0000 </r>
       </set>
       <set comment="band 16">
        <r>  0.0000  0.0290  0.0434  0.0145  0.0000  0.0000  0.0000  0.0000  0.0000 </r>
        <r>  0.0000  0.0152  0.0228  0.0076  0.0000  0.0000  0.0000  0.0000  0.0000 </r>
       </set>
       <set comment="band 17">
        <r>  0.2135  0.0001  0.1006  0.2847  0.0000  0.0000  0.0000  0.0000  0.0000 </r>
        <r>  0.0000  0.0002  0.0003  0.0026  0.0000  0.0000  0.0000  0.0000  0.0000 </r>
       </set>
       <set comment="band 18">
        <r>  0.0455  0.6998  1.3198  0.6509  0.0000  0.0000  0.0000  0.0000  0.0000 </r>
        <r>  0.0026  0.0023  0.0000  0.0034  0.0000  0.0000  0.0000  0.0000  0.0000 </r>
       </set>
       <set comment="band 19">
        <r>  0.0003  0.3345  0.1484  0.0227  0.0000  0.0000  0.0000  0.0000  0.0000 </r>
        <r>  0.0424  0.0056  0.0451  0.0688  0.0000  0.0000  0.0000  0.0000  0.0000 </r>
       </set>
       <set comment="band 20">
        <r>  0.0000  0.3688  0.5533  0.1845  0.0000  0.0000  0.0000  0.0000  0.0000 </r>
        <r>  0.0000  0.0009  0.0013  0.0004  0.0000  0.0000  0.0000  0.0000  0.0000 </r>
       </set>
       <set comment="band 21">
        <r>  0.0101  0.5739  0.1042  0.2623  0.0000  0.0000  0.0000  0.0000  0.0000 </r>
        <r>  0.0336  0.0020  0.0004  0.0008  0.0000  0.0000  0.0000  0.0000  0.0000 </r>
       </set>
       <set comment="band 22">
        <r>  0.0000  0.0435  0.0653  0.0218  0.0000  0.0000  0.0000  0.0000  0.0000 </r>
        <r>  0.0000  0.0278  0.0417  0.0139  0.0000  0.0000  0.0000  0.0000  0.0000 </r>
       </set>
       <set comment="band 23">
        <r>  0.0011  0.0756  0.0609  0.0015  0.0000  0.0000  0.0000  0.0000  0.0000 </r>
        <r>  0.0217  0.1104  0.1576  0.0473  0.0000  0.0000  0.0000  0.0000  0.0000 </r>
       </set>
       <set comment="band 24">
        <r>  0.0004  0.0002  0.0012  0.0016  0.0000  0.0000  0.0000  0.0000  0.0000 </r>
        <r>  0.0031  0.1019  0.0325  0.0194  0.0000  0.0000  0.0000  0.0000  0.0000 </r>
       </set>
       <set comment="band 25">
        <r>  0.0040  0.0461  0.0092  0.2211  0.0000  0.0000  0.0000  0.0000  0.0000 </r>
        <r>  0.0029  0.0054  0.0073  0.0637  0.0000  0.0000  0.0000  0.0000  0.0000 </r>
       </set>
       <set comment="band 26">
        <r>  0.0000  0.0833  0.1249  0.0416  0.0000  0.0000  0.0000  0.0000  0.0000 </r>
        <r>  0.0000  0.0098  0.0147  0.0049  0.0000  0.0000  0.0000  0.0000  0.0000 </r>
       </set>
       <set comment="band 27">
        <r>  0.0000  0.0127  0.0190  0.0063  0.0000  0.0000  0.0000  0.0000  0.0000 </r>
        <r>  0.0000  0.0055  0.0083  0.0028  0.0000  0.0000  0.0000  0.0000  0.0000 </r>
       </set>
       <set comment="band 28">
        <r>  0.0000  0.0001  0.0001  0.0000  0.0000  0.0000  0.0000  0.0000  0.0000 </r>
        <r>  0.0000  0.0201  0.0302  0.0101  0.0000  0.0000  0.0000  0.0000  0.0000 </r>
       </set>
       <set comment="band 29">
        <r>  0.2592  0.0756  0.0163  0.3724  0.0000  0.0000  0.0000  0.0000  0.0000 </r>
        <r>  0.0015  0.0025  0.0050  0.0373  0.0000  0.0000  0.0000  0.0000  0.0000 </r>
       </set>
       <set comment="band 30">
        <r>  0.1023  0.1478  0.0000  0.3034  0.0000  0.0000  0.0000  0.0000  0.0000 </r>
        <r>  0.0198  0.0419  0.0005  0.0633  0.0000  0.0000  0.0000  0.0000  0.0000 </r>
       </set>
       <set comment="band 31">
        <r>  0.0000  0.7119  1.0678  0.3560  0.0000  0.0000  0.0000  0.0000  0.0000 </r>
        <r>  0.0000  0.0943  0.1415  0.0472  0.0000  0.0000  0.0000  0.0000  0.0000 </r>
       </set>
       <set comment="band 32">
        <r>  0.0414  0.4250  0.0293  0.3915  0.0000  0.0000  0.0000  0.0000  0.0000 </r>
        <r>  0.0293  0.0429  0.0003  0.0700  0.0000  0.0000  0.0000  0.0000  0.0000 </r>
       </set>
      </set>
     </set>
    </set>
   </array>
  </projected>
 </calculation>
 <structure name="finalpos" >
  <crystal>
   <varray name="basis" >
    <v>       2.46004600       0.00000000       1.42030800 </v>
    <v>       0.82001500       2.31935400       1.42030800 </v>
    <v>       0.00000000       0.00000000       2.84061700 </v>
   </varray>
   <i name="volume">     16.20775821 </i>
   <varray name="rec_basis" >
    <v>       0.40649646      -0.14371812       0.00000000 </v>
    <v>       0.00000000       0.43115454       0.00000000 </v>
    <v>      -0.20324816      -0.14371816       0.35203619 </v>
   </varray>
  </crystal>
  <varray name="positions" >
   <v>       0.00000000       0.00000000       0.00000000 </v>
   <v>       0.50000000       0.50000000       0.50000000 </v>
  </varray>
 </structure>
</modeling>
