<?xml version="1.0" encoding="ISO-8859-1"?>
<modeling>
 <generator>
  <i name="program" type="string">vasp </i>
  <i name="version" type="string">5.4.4.18Apr17-6-g9f103f2a35  </i>
  <i name="subversion" type="string">(build Sep 10 2019 12:14:21) complex            parallel </i>
  <i name="platform" type="string">LinuxIFC </i>
  <i name="date" type="string">2020 09 09 </i>
  <i name="time" type="string">16:13:47 </i>
 </generator>
 <incar>
  <i type="string" name="PREC">accurate</i>
  <i type="string" name="ALGO"> All</i>
  <i type="int" name="ISPIN">     2</i>
  <i type="int" name="ICHARG">     1</i>
  <i type="int" name="NELM">   200</i>
  <i type="int" name="IBRION">     2</i>
  <i name="EDIFF">      0.00001000</i>
  <i name="EDIFFG">     -0.02000000</i>
  <i type="int" name="NSW">     0</i>
  <i type="int" name="ISIF">     3</i>
  <i name="ENCUT">    680.00000000</i>
  <i name="ENAUG">   1360.00000000</i>
  <v name="MAGMOM">      0.60000000      0.60000000</v>
  <i type="string" name="LREAL"> Auto</i>
  <i type="int" name="ISMEAR">    -5</i>
  <i name="SIGMA">      0.05000000</i>
  <i name="KSPACING">      0.34292160</i>
  <i type="logical" name="LWAVE"> F  </i>
  <i type="logical" name="LCHARG"> T  </i>
  <i type="logical" name="LVTOT"> T  </i>
  <i type="int" name="LORBIT">    11</i>
  <i type="logical" name="LELF"> T  </i>
  <i type="logical" name="LASPH"> T  </i>
  <i type="logical" name="LAECHG"> T  </i>
  <v type="int" name="KPOINT_BSE">    -1     0     0     0</v>
  <i type="int" name="NELM">   200</i>
  <i type="string" name="METAGGA"> R2scan</i>
  <i type="logical" name="LASPH"> T  </i>
  <i type="int" name="LMIXTAU">    -1</i>
 </incar>
 <structure name="primitive_cell" >
  <crystal>
   <varray name="basis" >
    <v>       0.00000000       2.00008700       2.00008700 </v>
    <v>       2.00008700       0.00000000       2.00008700 </v>
    <v>       2.00008700       2.00008700       0.00000000 </v>
   </varray>
   <i name="volume">     16.00208809 </i>
   <varray name="rec_basis" >
    <v>      -0.24998913       0.24998913       0.24998913 </v>
    <v>       0.24998913      -0.24998913       0.24998913 </v>
    <v>       0.24998913       0.24998913      -0.24998913 </v>
   </varray>
  </crystal>
  <varray name="positions" >
   <v>       0.00000000       0.00000000       0.00000000 </v>
   <v>      -0.50000000      -0.50000000      -0.50000000 </v>
  </varray>
 </structure>
 <varray name="primitive_index" >
  <v type="int" >        1 </v>
  <v type="int" >        2 </v>
 </varray>
 <kpoints>
  <generation param="Gamma">
   <v type="int" name="divisions">       8        8        8 </v>
   <v name="usershift">      0.00000000       0.00000000       0.00000000 </v>
   <v name="genvec1">      0.12500000       0.00000000       0.00000000 </v>
   <v name="genvec2">      0.00000000       0.12500000       0.00000000 </v>
   <v name="genvec3">      0.00000000       0.00000000       0.12500000 </v>
   <v name="shift">      0.00000000       0.00000000       0.00000000 </v>
  </generation>
  <varray name="kpointlist" >
   <v>       0.00000000       0.00000000       0.00000000 </v>
   <v>       0.12500000       0.00000000       0.00000000 </v>
   <v>       0.25000000       0.00000000       0.00000000 </v>
   <v>       0.37500000       0.00000000       0.00000000 </v>
   <v>       0.50000000       0.00000000       0.00000000 </v>
   <v>       0.12500000       0.12500000       0.00000000 </v>
   <v>       0.25000000       0.12500000       0.00000000 </v>
   <v>       0.37500000       0.12500000       0.00000000 </v>
   <v>       0.50000000       0.12500000       0.00000000 </v>
   <v>      -0.37500000       0.12500000       0.00000000 </v>
   <v>      -0.25000000       0.12500000       0.00000000 </v>
   <v>      -0.12500000       0.12500000       0.00000000 </v>
   <v>       0.25000000       0.25000000       0.00000000 </v>
   <v>       0.37500000       0.25000000       0.00000000 </v>
   <v>       0.50000000       0.25000000       0.00000000 </v>
   <v>      -0.37500000       0.25000000       0.00000000 </v>
   <v>      -0.25000000       0.25000000       0.00000000 </v>
   <v>       0.37500000       0.37500000       0.00000000 </v>
   <v>       0.50000000       0.37500000       0.00000000 </v>
   <v>      -0.37500000       0.37500000       0.00000000 </v>
   <v>       0.50000000       0.50000000       0.00000000 </v>
   <v>       0.37500000       0.25000000       0.12500000 </v>
   <v>       0.50000000       0.25000000       0.12500000 </v>
   <v>      -0.37500000       0.25000000       0.12500000 </v>
   <v>       0.50000000       0.37500000       0.12500000 </v>
   <v>      -0.37500000       0.37500000       0.12500000 </v>
   <v>      -0.25000000       0.37500000       0.12500000 </v>
   <v>      -0.37500000       0.50000000       0.12500000 </v>
   <v>      -0.25000000       0.50000000       0.25000000 </v>
  </varray>
  <varray name="weights" >
   <v>       0.00195312 </v>
   <v>       0.01562500 </v>
   <v>       0.01562500 </v>
   <v>       0.01562500 </v>
   <v>       0.00781250 </v>
   <v>       0.01171875 </v>
   <v>       0.04687500 </v>
   <v>       0.04687500 </v>
   <v>       0.04687500 </v>
   <v>       0.04687500 </v>
   <v>       0.04687500 </v>
   <v>       0.02343750 </v>
   <v>       0.01171875 </v>
   <v>       0.04687500 </v>
   <v>       0.04687500 </v>
   <v>       0.04687500 </v>
   <v>       0.02343750 </v>
   <v>       0.01171875 </v>
   <v>       0.04687500 </v>
   <v>       0.02343750 </v>
   <v>       0.00585938 </v>
   <v>       0.04687500 </v>
   <v>       0.09375000 </v>
   <v>       0.04687500 </v>
   <v>       0.04687500 </v>
   <v>       0.09375000 </v>
   <v>       0.04687500 </v>
   <v>       0.02343750 </v>
   <v>       0.01171875 </v>
  </varray>
  <varray name="tetrahedronlist"  type="int" >
   <v type="int" >       24        1        2        2        6 </v>
   <v type="int" >       48        2        6        7       12 </v>
   <v type="int" >       48        2        3        7       12 </v>
   <v type="int" >       24        2        2        6       12 </v>
   <v type="int" >       48        3        7        8       11 </v>
   <v type="int" >       48        3        4        8       11 </v>
   <v type="int" >       48        3        7       11       12 </v>
   <v type="int" >       48        4        8        9       10 </v>
   <v type="int" >       48        4        5        9       10 </v>
   <v type="int" >       48        4        8       10       11 </v>
   <v type="int" >       48        5        9        9       10 </v>
   <v type="int" >       24        6        7        7       13 </v>
   <v type="int" >       24        6        7        7       12 </v>
   <v type="int" >       48        7       13       14       22 </v>
   <v type="int" >       48        7        8       14       22 </v>
   <v type="int" >       48        7        8       11       22 </v>
   <v type="int" >       24        7        7       13       22 </v>
   <v type="int" >       24        7        7       12       22 </v>
   <v type="int" >       48        7       11       12       22 </v>
   <v type="int" >       48        8       14       15       23 </v>
   <v type="int" >       48        8        9       15       23 </v>
   <v type="int" >       48        8        9       10       23 </v>
   <v type="int" >       48        8       14       22       23 </v>
   <v type="int" >       48        8       11       22       23 </v>
   <v type="int" >       48        8       10       11       23 </v>
   <v type="int" >       48        9       15       16       24 </v>
   <v type="int" >       48        9       10       16       24 </v>
   <v type="int" >       48        9        9       10       24 </v>
   <v type="int" >       48        9       15       23       24 </v>
   <v type="int" >       48        9       10       23       24 </v>
   <v type="int" >       48       10       16       17       23 </v>
   <v type="int" >       48       10       11       17       23 </v>
   <v type="int" >       48       10       16       23       24 </v>
   <v type="int" >       24       11       11       17       22 </v>
   <v type="int" >       24       11       11       12       22 </v>
   <v type="int" >       48       11       17       22       23 </v>
   <v type="int" >       24       13       14       14       18 </v>
   <v type="int" >       24       13       14       14       22 </v>
   <v type="int" >       48       14       18       19       25 </v>
   <v type="int" >       48       14       15       19       25 </v>
   <v type="int" >       48       14       15       23       25 </v>
   <v type="int" >       24       14       14       18       25 </v>
   <v type="int" >       24       14       14       22       25 </v>
   <v type="int" >       48       14       22       23       25 </v>
   <v type="int" >       48       15       19       20       26 </v>
   <v type="int" >       48       15       16       20       26 </v>
   <v type="int" >       48       15       16       24       26 </v>
   <v type="int" >       48       15       19       25       26 </v>
   <v type="int" >       48       15       23       25       26 </v>
   <v type="int" >       48       15       23       24       26 </v>
   <v type="int" >       24       16       16       20       27 </v>
   <v type="int" >       24       16       16       17       27 </v>
   <v type="int" >       48       16       17       23       27 </v>
   <v type="int" >       48       16       20       26       27 </v>
   <v type="int" >       48       16       24       26       27 </v>
   <v type="int" >       48       16       23       24       27 </v>
   <v type="int" >       24       17       23       23       27 </v>
   <v type="int" >       24       17       22       23       23 </v>
   <v type="int" >       24       18       19       19       21 </v>
   <v type="int" >       24       18       19       19       25 </v>
   <v type="int" >       48       19       19       21       28 </v>
   <v type="int" >       24       19       19       20       28 </v>
   <v type="int" >       48       19       20       26       28 </v>
   <v type="int" >       24       19       19       25       28 </v>
   <v type="int" >       48       19       25       26       28 </v>
   <v type="int" >       24       20       26       26       28 </v>
   <v type="int" >       24       20       26       26       27 </v>
   <v type="int" >       24       22       23       23       25 </v>
   <v type="int" >       48       23       25       26       27 </v>
   <v type="int" >       48       23       24       26       27 </v>
   <v type="int" >       24       23       23       25       27 </v>
   <v type="int" >       48       24       26       26       27 </v>
   <v type="int" >       24       25       26       26       28 </v>
   <v type="int" >       24       25       26       26       27 </v>
   <v type="int" >       48       26       26       28       29 </v>
   <v type="int" >       96       26       26       27       29 </v>
  </varray>
  <i name="volumeweight">      0.00032552 </i>
 </kpoints>
 <parameters>
  <separator name="general" >
   <i type="string" name="SYSTEM">unknown system</i>
   <i type="logical" name="LCOMPAT"> F  </i>
  </separator>
  <separator name="electronic" >
   <i type="string" name="PREC">accura</i>
   <i name="ENMAX">    680.00000000</i>
   <i name="ENAUG">   1360.00000000</i>
   <i name="EDIFF">      0.00001000</i>
   <i type="int" name="IALGO">    58</i>
   <i type="int" name="IWAVPR">    10</i>
   <i type="int" name="NBANDS">     7</i>
   <i name="NELECT">      4.00000000</i>
   <i type="int" name="TURBO">     0</i>
   <i type="int" name="IRESTART">     0</i>
   <i type="int" name="NREBOOT">     0</i>
   <i type="int" name="NMIN">     0</i>
   <i name="EREF">      0.00000000</i>
   <separator name="electronic smearing" >
    <i type="int" name="ISMEAR">    -5</i>
    <i name="SIGMA">      0.05000000</i>
    <i name="KSPACING">      0.34292160</i>
    <i type="logical" name="KGAMMA"> T  </i>
   </separator>
   <separator name="electronic projectors" >
    <i type="logical" name="LREAL"> T  </i>
    <v name="ROPT">     -0.00025000     -0.00025000</v>
    <i type="int" name="LMAXPAW">  -100</i>
    <i type="int" name="LMAXMIX">     2</i>
    <i type="logical" name="NLSPLINE"> F  </i>
   </separator>
   <separator name="electronic startup" >
    <i type="int" name="ISTART">     0</i>
    <i type="int" name="ICHARG">     1</i>
    <i type="int" name="INIWAV">     1</i>
   </separator>
   <separator name="electronic spin" >
    <i type="int" name="ISPIN">     2</i>
    <i type="logical" name="LNONCOLLINEAR"> F  </i>
    <v name="MAGMOM">      0.60000000      0.60000000</v>
    <i name="NUPDOWN">     -1.00000000</i>
    <i type="logical" name="LSORBIT"> F  </i>
    <v name="SAXIS">      0.00000000      0.00000000      1.00000000</v>
    <i type="logical" name="LSPIRAL"> F  </i>
    <v name="QSPIRAL">      0.00000000      0.00000000      0.00000000</v>
    <i type="logical" name="LZEROZ"> F  </i>
   </separator>
   <separator name="electronic exchange-correlation" >
    <i type="logical" name="LASPH"> T  </i>
    <i type="logical" name="LMETAGGA"> F  </i>
   </separator>
   <separator name="electronic convergence" >
    <i type="int" name="NELM">   200</i>
    <i type="int" name="NELMDL">    -5</i>
    <i type="int" name="NELMIN">     2</i>
    <i name="ENINI">    680.00000000</i>
    <separator name="electronic convergence detail" >
     <i type="logical" name="LDIAG"> T  </i>
     <i type="logical" name="LSUBROT"> F  </i>
     <i name="WEIMIN">      0.00000000</i>
     <i name="EBREAK">      0.00000036</i>
     <i name="DEPER">      0.30000000</i>
     <i type="int" name="NRMM">     4</i>
     <i name="TIME">      0.40000000</i>
    </separator>
   </separator>
   <separator name="electronic mixer" >
    <i name="AMIX">      0.40000000</i>
    <i name="BMIX">      1.00000000</i>
    <i name="AMIN">      0.10000000</i>
    <i name="AMIX_MAG">      1.60000000</i>
    <i name="BMIX_MAG">      1.00000000</i>
    <separator name="electronic mixer details" >
     <i type="int" name="IMIX">     4</i>
     <i type="logical" name="MIXFIRST"> F  </i>
     <i type="int" name="MAXMIX">   -45</i>
     <i name="WC">    100.00000000</i>
     <i type="int" name="INIMIX">     1</i>
     <i type="int" name="MIXPRE">     1</i>
     <i type="int" name="MREMOVE">     5</i>
    </separator>
   </separator>
   <separator name="electronic dipolcorrection" >
    <i type="logical" name="LDIPOL"> F  </i>
    <i type="logical" name="LMONO"> F  </i>
    <i type="int" name="IDIPOL">     0</i>
    <i name="EPSILON">      1.00000000</i>
    <v name="DIPOL">   -100.00000000   -100.00000000   -100.00000000</v>
    <i name="EFIELD">      0.00000000</i>
   </separator>
  </separator>
  <separator name="grids" >
   <i type="int" name="NGX">    24</i>
   <i type="int" name="NGY">    24</i>
   <i type="int" name="NGZ">    24</i>
   <i type="int" name="NGXF">    48</i>
   <i type="int" name="NGYF">    48</i>
   <i type="int" name="NGZF">    48</i>
   <i type="logical" name="ADDGRID"> F  </i>
  </separator>
  <separator name="ionic" >
   <i type="int" name="NSW">     0</i>
   <i type="int" name="IBRION">    -1</i>
   <i type="int" name="MDALGO">     0</i>
   <i type="int" name="ISIF">     3</i>
   <i name="PSTRESS">      0.00000000</i>
   <i name="EDIFFG">     -0.02000000</i>
   <i type="int" name="NFREE">     1</i>
   <i name="POTIM">      0.50000000</i>
   <i name="SMASS">     -3.00000000</i>
   <i name="SCALEE">      1.00000000</i>
  </separator>
  <separator name="ionic md" >
   <i name="TEBEG">      0.00010000</i>
   <i name="TEEND">      0.00010000</i>
   <i type="int" name="NBLOCK">     1</i>
   <i type="int" name="KBLOCK">     1</i>
   <i type="int" name="NPACO">   256</i>
   <i name="APACO">     16.00000000</i>
  </separator>
  <separator name="symmetry" >
   <i type="int" name="ISYM">     2</i>
   <i name="SYMPREC">      0.00001000</i>
  </separator>
  <separator name="dos" >
   <i type="int" name="LORBIT">    11</i>
   <v name="RWIGS">     -1.00000000     -1.00000000</v>
   <i type="int" name="NEDOS">   301</i>
   <i name="EMIN">     10.00000000</i>
   <i name="EMAX">    -10.00000000</i>
   <i name="EFERMI">      0.00000000</i>
  </separator>
  <separator name="writing" >
   <i type="int" name="NWRITE">     2</i>
   <i type="logical" name="LWAVE"> F  </i>
   <i type="logical" name="LDOWNSAMPLE"> F  </i>
   <i type="logical" name="LCHARG"> T  </i>
   <i type="logical" name="LPARD"> F  </i>
   <i type="logical" name="LVTOT"> T  </i>
   <i type="logical" name="LVHAR"> F  </i>
   <i type="logical" name="LELF"> T  </i>
   <i type="logical" name="LOPTICS"> F  </i>
   <v name="STM">      0.00000000      0.00000000      0.00000000      0.00000000      0.00000000      0.00000000      0.00000000</v>
  </separator>
  <separator name="performance" >
   <i type="int" name="NPAR">     1</i>
   <i type="int" name="NSIM">     4</i>
   <i type="int" name="NBLK">    -1</i>
   <i type="logical" name="LPLANE"> T  </i>
   <i type="logical" name="LSCALAPACK"> F  </i>
   <i type="logical" name="LSCAAWARE"> F  </i>
   <i type="logical" name="LSCALU"> F  </i>
   <i type="logical" name="LASYNC"> F  </i>
   <i type="logical" name="LORBITALREAL"> F  </i>
  </separator>
  <separator name="miscellaneous" >
   <i type="int" name="IDIOT">     3</i>
   <i type="int" name="ISPECIAL">     0</i>
   <i type="logical" name="LMUSIC"> F  </i>
   <v name="POMASS">      7.01000000      1.00000000</v>
   <v name="DARWINR">      0.00000000      0.00000000</v>
   <v name="DARWINV">      1.00000000      1.00000000</v>
   <i type="logical" name="LCORR"> T  </i>
  </separator>
  <i type="logical" name="GGA_COMPAT"> T  </i>
  <i type="logical" name="LBERRY"> F  </i>
  <i type="int" name="ICORELEVEL">     0</i>
  <i type="logical" name="LDAU"> F  </i>
  <i type="int" name="I_CONSTRAINED_M">     0</i>
  <separator name="electronic exchange-correlation" >
   <i type="string" name="GGA">--</i>
   <i type="int" name="VOSKOWN">     0</i>
   <i type="logical" name="LHFCALC"> F  </i>
   <i type="string" name="PRECFOCK"></i>
   <i type="logical" name="LSYMGRAD"> F  </i>
   <i type="logical" name="LHFONE"> F  </i>
   <i type="logical" name="LRHFCALC"> F  </i>
   <i type="logical" name="LTHOMAS"> F  </i>
   <i type="logical" name="LMODELHF"> F  </i>
   <i name="ENCUT4O">     -1.00000000</i>
   <i type="int" name="EXXOEP">     0</i>
   <i type="int" name="FOURORBIT">     0</i>
   <i name="AEXX">      0.00000000</i>
   <i name="HFALPHA">      0.00000000</i>
   <i name="MCALPHA">      0.00000000</i>
   <i name="ALDAX">      1.00000000</i>
   <i name="AGGAX">      1.00000000</i>
   <i name="ALDAC">      1.00000000</i>
   <i name="AGGAC">      1.00000000</i>
   <i type="int" name="NKREDX">     1</i>
   <i type="int" name="NKREDY">     1</i>
   <i type="int" name="NKREDZ">     1</i>
   <i type="logical" name="SHIFTRED"> F  </i>
   <i type="logical" name="ODDONLY"> F  </i>
   <i type="logical" name="EVENONLY"> F  </i>
   <i type="int" name="LMAXFOCK">     0</i>
   <i type="int" name="NMAXFOCKAE">     0</i>
   <i type="logical" name="LFOCKAEDFT"> F  </i>
   <i name="HFSCREEN">      0.00000000</i>
   <i name="HFSCREENC">      0.00000000</i>
   <i type="int" name="NBANDSGWLOW">     0</i>
  </separator>
  <separator name="vdW DFT" >
   <i type="logical" name="LUSE_VDW"> F  </i>
   <i name="Zab_VDW">     -0.84910000</i>
   <i name="PARAM1">      0.12340000</i>
   <i name="PARAM2">      1.00000000</i>
   <i name="PARAM3">      0.00000000</i>
  </separator>
  <separator name="model GW" >
   <i type="int" name="MODEL_GW">     0</i>
   <i name="MODEL_EPS0">      4.80062643</i>
   <i name="MODEL_ALPHA">      1.00000000</i>
  </separator>
  <separator name="linear response parameters" >
   <i type="logical" name="LEPSILON"> F  </i>
   <i type="logical" name="LRPA"> F  </i>
   <i type="logical" name="LNABLA"> F  </i>
   <i type="logical" name="LVEL"> F  </i>
   <i type="int" name="KINTER">     0</i>
   <i name="CSHIFT">      0.10000000</i>
   <i name="OMEGAMAX">     -1.00000000</i>
   <i name="DEG_THRESHOLD">      0.00200000</i>
   <i name="RTIME">     -0.10000000</i>
   <i name="WPLASMAI">      0.00000000</i>
   <v name="DFIELD">      0.00000000      0.00000000      0.00000000</v>
   <v name="WPLASMA">      0.00000000      0.00000000      0.00000000      0.00000000      0.00000000      0.00000000      0.00000000      0.00000000      0.00000000</v>
  </separator>
  <separator name="orbital magnetization" >
   <i type="logical" name="NUCIND"> F  </i>
   <v name="MAGPOS">      0.00000000      0.00000000      0.00000000</v>
   <i type="logical" name="LNICSALL"> T  </i>
   <i type="logical" name="ORBITALMAG"> F  </i>
   <i type="logical" name="LMAGBLOCH"> F  </i>
   <i type="logical" name="LCHIMAG"> F  </i>
   <i type="logical" name="LGAUGE"> T  </i>
   <i type="int" name="MAGATOM">     0</i>
   <v name="MAGDIPOL">      0.00000000      0.00000000      0.00000000</v>
   <v name="AVECCONST">      0.00000000      0.00000000      0.00000000</v>
  </separator>
  <separator name="response functions" >
   <i type="logical" name="LADDER"> F  </i>
   <i type="logical" name="LRPAFORCE"> F  </i>
   <i type="logical" name="LFXC"> F  </i>
   <i type="logical" name="LHARTREE"> T  </i>
   <i type="int" name="IBSE">     0</i>
   <v type="int" name="KPOINT">    -1     0     0     0</v>
   <i type="logical" name="LTCTE"> F  </i>
   <i type="logical" name="LTETE"> F  </i>
   <i type="logical" name="LTRIPLET"> F  </i>
   <i type="logical" name="LFXCEPS"> F  </i>
   <i type="logical" name="LFXHEG"> F  </i>
   <i type="int" name="NATURALO">     2</i>
   <i type="logical" name="L2ORDER"> F  </i>
   <i type="logical" name="LMP2LT"> F  </i>
   <i type="logical" name="LUSEW"> F  </i>
   <i name="ENCUTGW">     -2.00000000</i>
   <i name="ENCUTGWSOFT">     -2.00000000</i>
   <i name="ENCUTLF">     -1.00000000</i>
   <i type="int" name="LMAXMP2">    -1</i>
   <i name="SCISSOR">      0.00000000</i>
   <i type="int" name="NOMEGA">     0</i>
   <i type="int" name="NOMEGAR">     0</i>
   <i type="int" name="NBANDSGW">    -1</i>
   <i type="int" name="NBANDSO">    -1</i>
   <i type="int" name="NBANDSV">    -1</i>
   <i type="int" name="NELM">   200</i>
   <i type="int" name="NELMHF">     1</i>
   <i type="int" name="DIM">     3</i>
   <i type="int" name="ANTIRES">     0</i>
   <i name="OMEGAMAX">    -30.00000000</i>
   <i name="OMEGAMIN">    -30.00000000</i>
   <i name="OMEGATL">   -200.00000000</i>
   <i type="int" name="OMEGAGRID">   140</i>
   <i name="CSHIFT">     -0.10000000</i>
   <i type="logical" name="SELFENERGY"> F  </i>
   <i type="logical" name="LSPECTRAL"> F  </i>
   <i type="logical" name="LSPECTRALGW"> F  </i>
   <i type="logical" name="LSINGLES"> F  </i>
   <i type="logical" name="LFERMIGW"> F  </i>
   <i type="logical" name="ODDONLYGW"> F  </i>
   <i type="logical" name="EVENONLYGW"> F  </i>
   <i type="int" name="NKREDLFX">     1</i>
   <i type="int" name="NKREDLFY">     1</i>
   <i type="int" name="NKREDLFZ">     1</i>
   <i type="int" name="MAXMEM">  2800</i>
   <i type="int" name="TELESCOPE">     0</i>
   <i type="int" name="TAUPAR">     1</i>
   <i type="int" name="OMEGAPAR">    -1</i>
   <i name="LAMBDA">      1.00000000</i>
  </separator>
  <separator name="External order field" >
   <i name="OFIELD_KAPPA">      0.00000000</i>
   <v name="OFIELD_K">      0.00000000      0.00000000      0.00000000</v>
   <i name="OFIELD_Q6_NEAR">      0.00000000</i>
   <i name="OFIELD_Q6_FAR">      0.00000000</i>
   <i name="OFIELD_A">      0.00000000</i>
  </separator>
 </parameters>
 <atominfo>
  <atoms>       2 </atoms>
  <types>       2 </types>
  <array name="atoms" >
   <dimension dim="1">ion</dimension>
   <field type="string">element</field>
   <field type="int">atomtype</field>
   <set>
    <rc><c>Li</c><c>   1</c></rc>
    <rc><c>H </c><c>   2</c></rc>
   </set>
  </array>
  <array name="atomtypes" >
   <dimension dim="1">type</dimension>
   <field type="int">atomspertype</field>
   <field type="string">element</field>
   <field>mass</field>
   <field>valence</field>
   <field type="string">pseudopotential</field>
   <set>
    <rc><c>   1</c><c>Li</c><c>      7.01000000</c><c>      3.00000000</c><c>  PAW_PBE Li_sv 10Sep2004               </c></rc>
    <rc><c>   1</c><c>H </c><c>      1.00000000</c><c>      1.00000000</c><c>  PAW_PBE H 15Jun2001                   </c></rc>
   </set>
  </array>
 </atominfo>
 <structure name="initialpos" >
  <crystal>
   <varray name="basis" >
    <v>       0.00000000       2.00008700       2.00008700 </v>
    <v>       2.00008700       0.00000000       2.00008700 </v>
    <v>       2.00008700       2.00008700       0.00000000 </v>
   </varray>
   <i name="volume">     16.00208809 </i>
   <varray name="rec_basis" >
    <v>      -0.24998913       0.24998913       0.24998913 </v>
    <v>       0.24998913      -0.24998913       0.24998913 </v>
    <v>       0.24998913       0.24998913      -0.24998913 </v>
   </varray>
  </crystal>
  <varray name="positions" >
   <v>       0.00000000       0.00000000       0.00000000 </v>
   <v>       0.50000000       0.50000000       0.50000000 </v>
  </varray>
 </structure>
 <calculation>
  <scstep>
   <time name="total">    0.72    0.73</time>
   <energy>
    <i name="alphaZ">      2.52703488 </i>
    <i name="ewald">    -94.29113762 </i>
    <i name="hartreedc">    -36.15711113 </i>
    <i name="XCdc">     15.09841821 </i>
    <i name="pawpsdc">     86.13084274 </i>
    <i name="pawaedc">   -101.70059713 </i>
    <i name="eentropy">      0.00000000 </i>
    <i name="bandstr">    -88.71076163 </i>
    <i name="atom">    215.26843501 </i>
    <i name="e_fr_energy">     -1.83487668 </i>
    <i name="e_wo_entrp">     -1.83487668 </i>
    <i name="e_0_energy">     -1.83487668 </i>
   </energy>
  </scstep>
  <scstep>
   <time name="total">    0.51    0.51</time>
   <energy>
    <i name="e_fr_energy">     -6.02591796 </i>
    <i name="e_wo_entrp">     -6.02591796 </i>
    <i name="e_0_energy">     -6.02591796 </i>
   </energy>
  </scstep>
  <scstep>
   <time name="total">    0.48    0.48</time>
   <energy>
    <i name="e_fr_energy">     -6.12830904 </i>
    <i name="e_wo_entrp">     -6.12830904 </i>
    <i name="e_0_energy">     -6.12830904 </i>
   </energy>
  </scstep>
  <scstep>
   <time name="total">    0.50    0.50</time>
   <energy>
    <i name="e_fr_energy">     -6.12933182 </i>
    <i name="e_wo_entrp">     -6.12933182 </i>
    <i name="e_0_energy">     -6.12933182 </i>
   </energy>
  </scstep>
  <scstep>
   <time name="total">    0.52    0.52</time>
   <energy>
    <i name="e_fr_energy">     -6.12933824 </i>
    <i name="e_wo_entrp">     -6.12933824 </i>
    <i name="e_0_energy">     -6.12933824 </i>
   </energy>
  </scstep>
  <scstep>
   <time name="total">    0.98    0.99</time>
   <energy>
    <i name="e_fr_energy">     -6.12680567 </i>
    <i name="e_wo_entrp">     -6.12680567 </i>
    <i name="e_0_energy">     -6.12680567 </i>
   </energy>
  </scstep>
  <scstep>
   <time name="total">    0.92    0.92</time>
   <energy>
    <i name="e_fr_energy">     -6.12732012 </i>
    <i name="e_wo_entrp">     -6.12732012 </i>
    <i name="e_0_energy">     -6.12732012 </i>
   </energy>
  </scstep>
  <scstep>
   <time name="total">    0.89    0.89</time>
   <energy>
    <i name="e_fr_energy">     -6.12739031 </i>
    <i name="e_wo_entrp">     -6.12739031 </i>
    <i name="e_0_energy">     -6.12739031 </i>
   </energy>
  </scstep>
  <scstep>
   <time name="total">    0.89    0.89</time>
   <energy>
    <i name="e_fr_energy">     -6.12740325 </i>
    <i name="e_wo_entrp">     -6.12740325 </i>
    <i name="e_0_energy">     -6.12740325 </i>
   </energy>
  </scstep>
  <scstep>
   <time name="total">    0.96    0.96</time>
   <energy>
    <i name="alphaZ">      2.52703488 </i>
    <i name="ewald">    -94.29113762 </i>
    <i name="hartreedc">    -36.40290664 </i>
    <i name="XCdc">     15.15216296 </i>
    <i name="pawpsdc">     85.77911976 </i>
    <i name="pawaedc">   -101.46291490 </i>
    <i name="eentropy">      0.00000000 </i>
    <i name="bandstr">    -92.69719827 </i>
    <i name="atom">    215.26843501 </i>
    <i name="e_fr_energy">     -6.12740482 </i>
    <i name="e_wo_entrp">     -6.12740482 </i>
    <i name="e_0_energy">     -6.12740482 </i>
   </energy>
  </scstep>
  <structure>
   <crystal>
    <varray name="basis" >
     <v>       0.00000000       2.00008700       2.00008700 </v>
     <v>       2.00008700       0.00000000       2.00008700 </v>
     <v>       2.00008700       2.00008700       0.00000000 </v>
    </varray>
    <i name="volume">     16.00208809 </i>
    <varray name="rec_basis" >
     <v>      -0.24998913       0.24998913       0.24998913 </v>
     <v>       0.24998913      -0.24998913       0.24998913 </v>
     <v>       0.24998913       0.24998913      -0.24998913 </v>
    </varray>
   </crystal>
   <varray name="positions" >
    <v>       0.00000000       0.00000000       0.00000000 </v>
    <v>       0.50000000       0.50000000       0.50000000 </v>
   </varray>
  </structure>
  <varray name="forces" >
   <v>       0.00000000      -0.00000000       0.00000000 </v>
   <v>      -0.00000000       0.00000000      -0.00000000 </v>
  </varray>
  <varray name="stress" >
   <v>      -0.62815809      -0.00000000       0.00000000 </v>
   <v>      -0.00000000      -0.62815809       0.00000000 </v>
   <v>       0.00000000      -0.00000000      -0.62815809 </v>
  </varray>
  <energy>
   <i name="e_fr_energy">     -6.12740482 </i>
   <i name="e_wo_entrp">     -6.12740482 </i>
   <i name="e_0_energy">      0.00000000 </i>
  </energy>
  <time name="totalsc">    8.67    8.71</time>
  <eigenvalues>
   <array>
    <dimension dim="1">band</dimension>
    <dimension dim="2">kpoint</dimension>
    <dimension dim="3">spin</dimension>
    <field>eigene</field>
    <field>occ</field>
    <set>
     <set comment="spin 1">
      <set comment="kpoint 1">
       <r>  -44.1584    1.0000 </r>
       <r>   -5.3439    1.0000 </r>
       <r>   16.2825    0.0000 </r>
       <r>   18.0738    0.0000 </r>
       <r>   18.0738    0.0000 </r>
       <r>   18.0738    0.0000 </r>
       <r>   22.8010    0.0000 </r>
      </set>
      <set comment="kpoint 2">
       <r>  -44.1515    1.0000 </r>
       <r>   -5.0676    1.0000 </r>
       <r>   14.0414    0.0000 </r>
       <r>   16.7454    0.0000 </r>
       <r>   17.5188    0.0000 </r>
       <r>   17.5188    0.0000 </r>
       <r>   22.3429    0.0000 </r>
      </set>
      <set comment="kpoint 3">
       <r>  -44.1347    1.0000 </r>
       <r>   -4.2756    1.0000 </r>
       <r>    9.8748    0.0000 </r>
       <r>   15.2448    0.0000 </r>
       <r>   16.8195    0.0000 </r>
       <r>   16.8195    0.0000 </r>
       <r>   22.3547    0.0000 </r>
      </set>
      <set comment="kpoint 4">
       <r>  -44.1179    1.0000 </r>
       <r>   -3.1740    1.0000 </r>
       <r>    6.4820    0.0000 </r>
       <r>   14.2032    0.0000 </r>
       <r>   16.6046    0.0000 </r>
       <r>   16.6046    0.0000 </r>
       <r>   20.1564    0.0000 </r>
      </set>
      <set comment="kpoint 5">
       <r>  -44.1110    1.0000 </r>
       <r>   -2.5271    1.0000 </r>
       <r>    5.0486    0.0000 </r>
       <r>   13.8347    0.0000 </r>
       <r>   16.6779    0.0000 </r>
       <r>   16.6779    0.0000 </r>
       <r>   19.2580    0.0000 </r>
      </set>
      <set comment="kpoint 6">
       <r>  -44.1492    1.0000 </r>
       <r>   -4.9687    1.0000 </r>
       <r>   14.4580    0.0000 </r>
       <r>   15.8303    0.0000 </r>
       <r>   15.8303    0.0000 </r>
       <r>   18.9304    0.0000 </r>
       <r>   19.3837    0.0000 </r>
      </set>
      <set comment="kpoint 7">
       <r>  -44.1358    1.0000 </r>
       <r>   -4.3249    1.0000 </r>
       <r>   11.2264    0.0000 </r>
       <r>   14.0841    0.0000 </r>
       <r>   14.6837    0.0000 </r>
       <r>   18.2216    0.0000 </r>
       <r>   20.2372    0.0000 </r>
      </set>
      <set comment="kpoint 8">
       <r>  -44.1191    1.0000 </r>
       <r>   -3.2562    1.0000 </r>
       <r>    7.5170    0.0000 </r>
       <r>   12.6142    0.0000 </r>
       <r>   14.2980    0.0000 </r>
       <r>   17.1077    0.0000 </r>
       <r>   22.2001    0.0000 </r>
      </set>
      <set comment="kpoint 9">
       <r>  -44.1090    1.0000 </r>
       <r>   -2.2951    1.0000 </r>
       <r>    5.2772    0.0000 </r>
       <r>   11.7304    0.0000 </r>
       <r>   14.7141    0.0000 </r>
       <r>   16.2020    0.0000 </r>
       <r>   22.0502    0.0000 </r>
      </set>
      <set comment="kpoint 10">
       <r>  -44.1112    1.0000 </r>
       <r>   -2.5496    1.0000 </r>
       <r>    5.8083    0.0000 </r>
       <r>   11.5019    0.0000 </r>
       <r>   15.8415    0.0000 </r>
       <r>   15.9001    0.0000 </r>
       <r>   21.0523    0.0000 </r>
      </set>
      <set comment="kpoint 11">
       <r>  -44.1246    1.0000 </r>
       <r>   -3.6610    1.0000 </r>
       <r>    8.7376    0.0000 </r>
       <r>   11.9059    0.0000 </r>
       <r>   16.1536    0.0000 </r>
       <r>   17.6281    0.0000 </r>
       <r>   21.0105    0.0000 </r>
      </set>
      <set comment="kpoint 12">
       <r>  -44.1414    1.0000 </r>
       <r>   -4.6099    1.0000 </r>
       <r>   12.5136    0.0000 </r>
       <r>   13.2261    0.0000 </r>
       <r>   16.8956    0.0000 </r>
       <r>   18.6659    0.0000 </r>
       <r>   22.4347    0.0000 </r>
      </set>
      <set comment="kpoint 13">
       <r>  -44.1273    1.0000 </r>
       <r>   -3.8078    1.0000 </r>
       <r>   10.5887    0.0000 </r>
       <r>   13.1925    0.0000 </r>
       <r>   13.1926    0.0000 </r>
       <r>   16.4755    0.0000 </r>
       <r>   17.9182    0.0000 </r>
      </set>
      <set comment="kpoint 14">
       <r>  -44.1140    1.0000 </r>
       <r>   -2.7906    1.0000 </r>
       <r>    7.9293    0.0000 </r>
       <r>   10.8946    0.0000 </r>
       <r>   12.5075    0.0000 </r>
       <r>   16.9545    0.0000 </r>
       <r>   18.4028    0.0000 </r>
      </set>
      <set comment="kpoint 15">
       <r>  -44.1039    1.0000 </r>
       <r>   -1.6251    1.0000 </r>
       <r>    5.5710    0.0000 </r>
       <r>    9.0729    0.0000 </r>
       <r>   12.6594    0.0000 </r>
       <r>   16.4686    0.0000 </r>
       <r>   21.7348    0.0000 </r>
      </set>
      <set comment="kpoint 16">
       <r>  -44.1029    1.0000 </r>
       <r>   -1.4773    1.0000 </r>
       <r>    5.3923    0.0000 </r>
       <r>    8.2620    0.0000 </r>
       <r>   13.6479    0.0000 </r>
       <r>   16.0690    0.0000 </r>
       <r>   25.0015    0.0000 </r>
      </set>
      <set comment="kpoint 17">
       <r>  -44.1114    1.0000 </r>
       <r>   -2.5715    1.0000 </r>
       <r>    7.6817    0.0000 </r>
       <r>    8.4576    0.0000 </r>
       <r>   15.4323    0.0000 </r>
       <r>   16.0063    0.0000 </r>
       <r>   23.3862    0.0000 </r>
      </set>
      <set comment="kpoint 18">
       <r>  -44.1055    1.0000 </r>
       <r>   -1.8203    1.0000 </r>
       <r>    6.0126    0.0000 </r>
       <r>   11.5266    0.0000 </r>
       <r>   11.5266    0.0000 </r>
       <r>   14.7215    0.0000 </r>
       <r>   17.4807    0.0000 </r>
      </set>
      <set comment="kpoint 19">
       <r>  -44.0988    1.0000 </r>
       <r>   -0.6185    1.0000 </r>
       <r>    4.2485    0.0000 </r>
       <r>    9.4472    0.0000 </r>
       <r>   11.3903    0.0000 </r>
       <r>   16.2052    0.0000 </r>
       <r>   17.9026    0.0000 </r>
      </set>
      <set comment="kpoint 20">
       <r>  -44.0978    1.0000 </r>
       <r>   -0.4009    1.0000 </r>
       <r>    4.2467    0.0000 </r>
       <r>    7.7172    0.0000 </r>
       <r>   12.1032    0.0000 </r>
       <r>   16.4016    0.0000 </r>
       <r>   21.3908    0.0000 </r>
      </set>
      <set comment="kpoint 21">
       <r>  -44.0967    1.0000 </r>
       <r>    0.1182    1.0000 </r>
       <r>    3.0940    0.0000 </r>
       <r>   10.9644    0.0000 </r>
       <r>   10.9644    0.0000 </r>
       <r>   14.1361    0.0000 </r>
       <r>   17.4675    0.0000 </r>
      </set>
      <set comment="kpoint 22">
       <r>  -44.1225    1.0000 </r>
       <r>   -3.5012    1.0000 </r>
       <r>    9.7271    0.0000 </r>
       <r>   10.4706    0.0000 </r>
       <r>   14.3935    0.0000 </r>
       <r>   17.8438    0.0000 </r>
       <r>   20.3231    0.0000 </r>
      </set>
      <set comment="kpoint 23">
       <r>  -44.1092    1.0000 </r>
       <r>   -2.3274    1.0000 </r>
       <r>    6.6925    0.0000 </r>
       <r>    9.2870    0.0000 </r>
       <r>   13.7175    0.0000 </r>
       <r>   17.0110    0.0000 </r>
       <r>   22.5242    0.0000 </r>
      </set>
      <set comment="kpoint 24">
       <r>  -44.1037    1.0000 </r>
       <r>   -1.6088    1.0000 </r>
       <r>    5.2152    0.0000 </r>
       <r>    8.9926    0.0000 </r>
       <r>   13.4663    0.0000 </r>
       <r>   16.6032    0.0000 </r>
       <r>   23.2690    0.0000 </r>
      </set>
      <set comment="kpoint 25">
       <r>  -44.1041    1.0000 </r>
       <r>   -1.6424    1.0000 </r>
       <r>    6.1101    0.0000 </r>
       <r>    8.7661    0.0000 </r>
       <r>   12.1216    0.0000 </r>
       <r>   17.5591    0.0000 </r>
       <r>   18.6338    0.0000 </r>
      </set>
      <set comment="kpoint 26">
       <r>  -44.0986    1.0000 </r>
       <r>   -0.6603    1.0000 </r>
       <r>    4.9537    0.0000 </r>
       <r>    7.1210    0.0000 </r>
       <r>   12.1775    0.0000 </r>
       <r>   17.2255    0.0000 </r>
       <r>   21.9457    0.0000 </r>
      </set>
      <set comment="kpoint 27">
       <r>  -44.1008    1.0000 </r>
       <r>   -1.1228    1.0000 </r>
       <r>    5.9661    0.0000 </r>
       <r>    6.7017    0.0000 </r>
       <r>   12.7972    0.0000 </r>
       <r>   17.0458    0.0000 </r>
       <r>   24.9627    0.0000 </r>
      </set>
      <set comment="kpoint 28">
       <r>  -44.0965    1.0000 </r>
       <r>   -0.0012    1.0000 </r>
       <r>    3.6705    0.0000 </r>
       <r>    8.1938    0.0000 </r>
       <r>   11.4541    0.0000 </r>
       <r>   17.6168    0.0000 </r>
       <r>   18.0630    0.0000 </r>
      </set>
      <set comment="kpoint 29">
       <r>  -44.0964    1.0000 </r>
       <r>   -0.1150    1.0000 </r>
       <r>    5.3909    0.0000 </r>
       <r>    5.3909    0.0000 </r>
       <r>   11.9642    0.0000 </r>
       <r>   17.8279    0.0000 </r>
       <r>   24.3179    0.0000 </r>
      </set>
     </set>
     <set comment="spin 2">
      <set comment="kpoint 1">
       <r>  -44.1584    1.0000 </r>
       <r>   -5.3439    1.0000 </r>
       <r>   16.2825    0.0000 </r>
       <r>   18.0738    0.0000 </r>
       <r>   18.0738    0.0000 </r>
       <r>   18.0738    0.0000 </r>
       <r>   22.8010    0.0000 </r>
      </set>
      <set comment="kpoint 2">
       <r>  -44.1515    1.0000 </r>
       <r>   -5.0676    1.0000 </r>
       <r>   14.0414    0.0000 </r>
       <r>   16.7454    0.0000 </r>
       <r>   17.5188    0.0000 </r>
       <r>   17.5188    0.0000 </r>
       <r>   22.3429    0.0000 </r>
      </set>
      <set comment="kpoint 3">
       <r>  -44.1347    1.0000 </r>
       <r>   -4.2756    1.0000 </r>
       <r>    9.8748    0.0000 </r>
       <r>   15.2448    0.0000 </r>
       <r>   16.8195    0.0000 </r>
       <r>   16.8195    0.0000 </r>
       <r>   22.3547    0.0000 </r>
      </set>
      <set comment="kpoint 4">
       <r>  -44.1179    1.0000 </r>
       <r>   -3.1740    1.0000 </r>
       <r>    6.4820    0.0000 </r>
       <r>   14.2032    0.0000 </r>
       <r>   16.6046    0.0000 </r>
       <r>   16.6046    0.0000 </r>
       <r>   20.1564    0.0000 </r>
      </set>
      <set comment="kpoint 5">
       <r>  -44.1110    1.0000 </r>
       <r>   -2.5271    1.0000 </r>
       <r>    5.0486    0.0000 </r>
       <r>   13.8347    0.0000 </r>
       <r>   16.6779    0.0000 </r>
       <r>   16.6779    0.0000 </r>
       <r>   19.2580    0.0000 </r>
      </set>
      <set comment="kpoint 6">
       <r>  -44.1492    1.0000 </r>
       <r>   -4.9687    1.0000 </r>
       <r>   14.4580    0.0000 </r>
       <r>   15.8303    0.0000 </r>
       <r>   15.8303    0.0000 </r>
       <r>   18.9303    0.0000 </r>
       <r>   19.3837    0.0000 </r>
      </set>
      <set comment="kpoint 7">
       <r>  -44.1358    1.0000 </r>
       <r>   -4.3249    1.0000 </r>
       <r>   11.2264    0.0000 </r>
       <r>   14.0841    0.0000 </r>
       <r>   14.6837    0.0000 </r>
       <r>   18.2216    0.0000 </r>
       <r>   20.2372    0.0000 </r>
      </set>
      <set comment="kpoint 8">
       <r>  -44.1191    1.0000 </r>
       <r>   -3.2562    1.0000 </r>
       <r>    7.5170    0.0000 </r>
       <r>   12.6142    0.0000 </r>
       <r>   14.2980    0.0000 </r>
       <r>   17.1077    0.0000 </r>
       <r>   22.2001    0.0000 </r>
      </set>
      <set comment="kpoint 9">
       <r>  -44.1090    1.0000 </r>
       <r>   -2.2951    1.0000 </r>
       <r>    5.2772    0.0000 </r>
       <r>   11.7304    0.0000 </r>
       <r>   14.7141    0.0000 </r>
       <r>   16.2020    0.0000 </r>
       <r>   22.0502    0.0000 </r>
      </set>
      <set comment="kpoint 10">
       <r>  -44.1112    1.0000 </r>
       <r>   -2.5496    1.0000 </r>
       <r>    5.8082    0.0000 </r>
       <r>   11.5019    0.0000 </r>
       <r>   15.8415    0.0000 </r>
       <r>   15.9001    0.0000 </r>
       <r>   21.0523    0.0000 </r>
      </set>
      <set comment="kpoint 11">
       <r>  -44.1246    1.0000 </r>
       <r>   -3.6610    1.0000 </r>
       <r>    8.7376    0.0000 </r>
       <r>   11.9059    0.0000 </r>
       <r>   16.1536    0.0000 </r>
       <r>   17.6281    0.0000 </r>
       <r>   21.0105    0.0000 </r>
      </set>
      <set comment="kpoint 12">
       <r>  -44.1414    1.0000 </r>
       <r>   -4.6099    1.0000 </r>
       <r>   12.5136    0.0000 </r>
       <r>   13.2261    0.0000 </r>
       <r>   16.8956    0.0000 </r>
       <r>   18.6659    0.0000 </r>
       <r>   22.4285    0.0000 </r>
      </set>
      <set comment="kpoint 13">
       <r>  -44.1273    1.0000 </r>
       <r>   -3.8078    1.0000 </r>
       <r>   10.5887    0.0000 </r>
       <r>   13.1925    0.0000 </r>
       <r>   13.1926    0.0000 </r>
       <r>   16.4755    0.0000 </r>
       <r>   17.9182    0.0000 </r>
      </set>
      <set comment="kpoint 14">
       <r>  -44.1140    1.0000 </r>
       <r>   -2.7906    1.0000 </r>
       <r>    7.9293    0.0000 </r>
       <r>   10.8946    0.0000 </r>
       <r>   12.5075    0.0000 </r>
       <r>   16.9545    0.0000 </r>
       <r>   18.4028    0.0000 </r>
      </set>
      <set comment="kpoint 15">
       <r>  -44.1039    1.0000 </r>
       <r>   -1.6251    1.0000 </r>
       <r>    5.5710    0.0000 </r>
       <r>    9.0729    0.0000 </r>
       <r>   12.6594    0.0000 </r>
       <r>   16.4686    0.0000 </r>
       <r>   21.7348    0.0000 </r>
      </set>
      <set comment="kpoint 16">
       <r>  -44.1029    1.0000 </r>
       <r>   -1.4773    1.0000 </r>
       <r>    5.3923    0.0000 </r>
       <r>    8.2620    0.0000 </r>
       <r>   13.6479    0.0000 </r>
       <r>   16.0690    0.0000 </r>
       <r>   24.9743    0.0000 </r>
      </set>
      <set comment="kpoint 17">
       <r>  -44.1114    1.0000 </r>
       <r>   -2.5715    1.0000 </r>
       <r>    7.6817    0.0000 </r>
       <r>    8.4576    0.0000 </r>
       <r>   15.4323    0.0000 </r>
       <r>   16.0063    0.0000 </r>
       <r>   23.3862    0.0000 </r>
      </set>
      <set comment="kpoint 18">
       <r>  -44.1055    1.0000 </r>
       <r>   -1.8203    1.0000 </r>
       <r>    6.0126    0.0000 </r>
       <r>   11.5266    0.0000 </r>
       <r>   11.5266    0.0000 </r>
       <r>   14.7214    0.0000 </r>
       <r>   17.4806    0.0000 </r>
      </set>
      <set comment="kpoint 19">
       <r>  -44.0988    1.0000 </r>
       <r>   -0.6185    1.0000 </r>
       <r>    4.2485    0.0000 </r>
       <r>    9.4472    0.0000 </r>
       <r>   11.3903    0.0000 </r>
       <r>   16.2052    0.0000 </r>
       <r>   17.9026    0.0000 </r>
      </set>
      <set comment="kpoint 20">
       <r>  -44.0978    1.0000 </r>
       <r>   -0.4009    1.0000 </r>
       <r>    4.2467    0.0000 </r>
       <r>    7.7172    0.0000 </r>
       <r>   12.1032    0.0000 </r>
       <r>   16.4016    0.0000 </r>
       <r>   21.3908    0.0000 </r>
      </set>
      <set comment="kpoint 21">
       <r>  -44.0967    1.0000 </r>
       <r>    0.1182    1.0000 </r>
       <r>    3.0940    0.0000 </r>
       <r>   10.9644    0.0000 </r>
       <r>   10.9644    0.0000 </r>
       <r>   14.1361    0.0000 </r>
       <r>   17.4675    0.0000 </r>
      </set>
      <set comment="kpoint 22">
       <r>  -44.1225    1.0000 </r>
       <r>   -3.5012    1.0000 </r>
       <r>    9.7271    0.0000 </r>
       <r>   10.4706    0.0000 </r>
       <r>   14.3935    0.0000 </r>
       <r>   17.8438    0.0000 </r>
       <r>   20.3231    0.0000 </r>
      </set>
      <set comment="kpoint 23">
       <r>  -44.1092    1.0000 </r>
       <r>   -2.3274    1.0000 </r>
       <r>    6.6925    0.0000 </r>
       <r>    9.2870    0.0000 </r>
       <r>   13.7175    0.0000 </r>
       <r>   17.0110    0.0000 </r>
       <r>   22.5242    0.0000 </r>
      </set>
      <set comment="kpoint 24">
       <r>  -44.1037    1.0000 </r>
       <r>   -1.6088    1.0000 </r>
       <r>    5.2152    0.0000 </r>
       <r>    8.9926    0.0000 </r>
       <r>   13.4663    0.0000 </r>
       <r>   16.6032    0.0000 </r>
       <r>   23.2690    0.0000 </r>
      </set>
      <set comment="kpoint 25">
       <r>  -44.1041    1.0000 </r>
       <r>   -1.6424    1.0000 </r>
       <r>    6.1101    0.0000 </r>
       <r>    8.7661    0.0000 </r>
       <r>   12.1216    0.0000 </r>
       <r>   17.5591    0.0000 </r>
       <r>   18.6338    0.0000 </r>
      </set>
      <set comment="kpoint 26">
       <r>  -44.0986    1.0000 </r>
       <r>   -0.6603    1.0000 </r>
       <r>    4.9537    0.0000 </r>
       <r>    7.1210    0.0000 </r>
       <r>   12.1775    0.0000 </r>
       <r>   17.2255    0.0000 </r>
       <r>   21.9457    0.0000 </r>
      </set>
      <set comment="kpoint 27">
       <r>  -44.1008    1.0000 </r>
       <r>   -1.1228    1.0000 </r>
       <r>    5.9661    0.0000 </r>
       <r>    6.7017    0.0000 </r>
       <r>   12.7972    0.0000 </r>
       <r>   17.0458    0.0000 </r>
       <r>   24.8571    0.0000 </r>
      </set>
      <set comment="kpoint 28">
       <r>  -44.0965    1.0000 </r>
       <r>   -0.0012    1.0000 </r>
       <r>    3.6705    0.0000 </r>
       <r>    8.1938    0.0000 </r>
       <r>   11.4541    0.0000 </r>
       <r>   17.6168    0.0000 </r>
       <r>   18.0630    0.0000 </r>
      </set>
      <set comment="kpoint 29">
       <r>  -44.0964    1.0000 </r>
       <r>   -0.1150    1.0000 </r>
       <r>    5.3909    0.0000 </r>
       <r>    5.3909    0.0000 </r>
       <r>   11.9642    0.0000 </r>
       <r>   17.8279    0.0000 </r>
       <r>   24.3179    0.0000 </r>
      </set>
     </set>
    </set>
   </array>
  </eigenvalues>
  <separator name="orbital magnetization" >
   <v name="MAGDIPOLOUT">      0.00000000      0.00000000      0.00000000</v>
  </separator>
  <dos>
   <i name="efermi">      0.12120059 </i>
   <total>
    <array>
     <dimension dim="1">gridpoints</dimension>
     <dimension dim="2">spin</dimension>
     <field>energy</field>
     <field>total</field>
     <field>integrated</field>
     <set>
      <set comment="spin 1">
       <r>   -47.6164     0.0000     0.0000 </r>
       <r>   -47.3629     0.0000     0.0000 </r>
       <r>   -47.1093     0.0000     0.0000 </r>
       <r>   -46.8557     0.0000     0.0000 </r>
       <r>   -46.6021     0.0000     0.0000 </r>
       <r>   -46.3485     0.0000     0.0000 </r>
       <r>   -46.0949     0.0000     0.0000 </r>
       <r>   -45.8413     0.0000     0.0000 </r>
       <r>   -45.5877     0.0000     0.0000 </r>
       <r>   -45.3342     0.0000     0.0000 </r>
       <r>   -45.0806     0.0000     0.0000 </r>
       <r>   -44.8270     0.0000     0.0000 </r>
       <r>   -44.5734     0.0000     0.0000 </r>
       <r>   -44.3198     0.0000     0.0000 </r>
       <r>   -44.0662     0.0000     1.0000 </r>
       <r>   -43.8126     0.0000     1.0000 </r>
       <r>   -43.5591     0.0000     1.0000 </r>
       <r>   -43.3055     0.0000     1.0000 </r>
       <r>   -43.0519     0.0000     1.0000 </r>
       <r>   -42.7983     0.0000     1.0000 </r>
       <r>   -42.5447     0.0000     1.0000 </r>
       <r>   -42.2911     0.0000     1.0000 </r>
       <r>   -42.0375     0.0000     1.0000 </r>
       <r>   -41.7840     0.0000     1.0000 </r>
       <r>   -41.5304     0.0000     1.0000 </r>
       <r>   -41.2768     0.0000     1.0000 </r>
       <r>   -41.0232     0.0000     1.0000 </r>
       <r>   -40.7696     0.0000     1.0000 </r>
       <r>   -40.5160     0.0000     1.0000 </r>
       <r>   -40.2624     0.0000     1.0000 </r>
       <r>   -40.0088     0.0000     1.0000 </r>
       <r>   -39.7553     0.0000     1.0000 </r>
       <r>   -39.5017     0.0000     1.0000 </r>
       <r>   -39.2481     0.0000     1.0000 </r>
       <r>   -38.9945     0.0000     1.0000 </r>
       <r>   -38.7409     0.0000     1.0000 </r>
       <r>   -38.4873     0.0000     1.0000 </r>
       <r>   -38.2337     0.0000     1.0000 </r>
       <r>   -37.9802     0.0000     1.0000 </r>
       <r>   -37.7266     0.0000     1.0000 </r>
       <r>   -37.4730     0.0000     1.0000 </r>
       <r>   -37.2194     0.0000     1.0000 </r>
       <r>   -36.9658     0.0000     1.0000 </r>
       <r>   -36.7122     0.0000     1.0000 </r>
       <r>   -36.4586     0.0000     1.0000 </r>
       <r>   -36.2051     0.0000     1.0000 </r>
       <r>   -35.9515     0.0000     1.0000 </r>
       <r>   -35.6979     0.0000     1.0000 </r>
       <r>   -35.4443     0.0000     1.0000 </r>
       <r>   -35.1907     0.0000     1.0000 </r>
       <r>   -34.9371     0.0000     1.0000 </r>
       <r>   -34.6835     0.0000     1.0000 </r>
       <r>   -34.4299     0.0000     1.0000 </r>
       <r>   -34.1764     0.0000     1.0000 </r>
       <r>   -33.9228     0.0000     1.0000 </r>
       <r>   -33.6692     0.0000     1.0000 </r>
       <r>   -33.4156     0.0000     1.0000 </r>
       <r>   -33.1620     0.0000     1.0000 </r>
       <r>   -32.9084     0.0000     1.0000 </r>
       <r>   -32.6548     0.0000     1.0000 </r>
       <r>   -32.4013     0.0000     1.0000 </r>
       <r>   -32.1477     0.0000     1.0000 </r>
       <r>   -31.8941     0.0000     1.0000 </r>
       <r>   -31.6405     0.0000     1.0000 </r>
       <r>   -31.3869     0.0000     1.0000 </r>
       <r>   -31.1333     0.0000     1.0000 </r>
       <r>   -30.8797     0.0000     1.0000 </r>
       <r>   -30.6262     0.0000     1.0000 </r>
       <r>   -30.3726     0.0000     1.0000 </r>
       <r>   -30.1190     0.0000     1.0000 </r>
       <r>   -29.8654     0.0000     1.0000 </r>
       <r>   -29.6118     0.0000     1.0000 </r>
       <r>   -29.3582     0.0000     1.0000 </r>
       <r>   -29.1046     0.0000     1.0000 </r>
       <r>   -28.8510     0.0000     1.0000 </r>
       <r>   -28.5975     0.0000     1.0000 </r>
       <r>   -28.3439     0.0000     1.0000 </r>
       <r>   -28.0903     0.0000     1.0000 </r>
       <r>   -27.8367     0.0000     1.0000 </r>
       <r>   -27.5831     0.0000     1.0000 </r>
       <r>   -27.3295     0.0000     1.0000 </r>
       <r>   -27.0759     0.0000     1.0000 </r>
       <r>   -26.8224     0.0000     1.0000 </r>
       <r>   -26.5688     0.0000     1.0000 </r>
       <r>   -26.3152     0.0000     1.0000 </r>
       <r>   -26.0616     0.0000     1.0000 </r>
       <r>   -25.8080     0.0000     1.0000 </r>
       <r>   -25.5544     0.0000     1.0000 </r>
       <r>   -25.3008     0.0000     1.0000 </r>
       <r>   -25.0473     0.0000     1.0000 </r>
       <r>   -24.7937     0.0000     1.0000 </r>
       <r>   -24.5401     0.0000     1.0000 </r>
       <r>   -24.2865     0.0000     1.0000 </r>
       <r>   -24.0329     0.0000     1.0000 </r>
       <r>   -23.7793     0.0000     1.0000 </r>
       <r>   -23.5257     0.0000     1.0000 </r>
       <r>   -23.2721     0.0000     1.0000 </r>
       <r>   -23.0186     0.0000     1.0000 </r>
       <r>   -22.7650     0.0000     1.0000 </r>
       <r>   -22.5114     0.0000     1.0000 </r>
       <r>   -22.2578     0.0000     1.0000 </r>
       <r>   -22.0042     0.0000     1.0000 </r>
       <r>   -21.7506     0.0000     1.0000 </r>
       <r>   -21.4970     0.0000     1.0000 </r>
       <r>   -21.2435     0.0000     1.0000 </r>
       <r>   -20.9899     0.0000     1.0000 </r>
       <r>   -20.7363     0.0000     1.0000 </r>
       <r>   -20.4827     0.0000     1.0000 </r>
       <r>   -20.2291     0.0000     1.0000 </r>
       <r>   -19.9755     0.0000     1.0000 </r>
       <r>   -19.7219     0.0000     1.0000 </r>
       <r>   -19.4683     0.0000     1.0000 </r>
       <r>   -19.2148     0.0000     1.0000 </r>
       <r>   -18.9612     0.0000     1.0000 </r>
       <r>   -18.7076     0.0000     1.0000 </r>
       <r>   -18.4540     0.0000     1.0000 </r>
       <r>   -18.2004     0.0000     1.0000 </r>
       <r>   -17.9468     0.0000     1.0000 </r>
       <r>   -17.6932     0.0000     1.0000 </r>
       <r>   -17.4397     0.0000     1.0000 </r>
       <r>   -17.1861     0.0000     1.0000 </r>
       <r>   -16.9325     0.0000     1.0000 </r>
       <r>   -16.6789     0.0000     1.0000 </r>
       <r>   -16.4253     0.0000     1.0000 </r>
       <r>   -16.1717     0.0000     1.0000 </r>
       <r>   -15.9181     0.0000     1.0000 </r>
       <r>   -15.6646     0.0000     1.0000 </r>
       <r>   -15.4110     0.0000     1.0000 </r>
       <r>   -15.1574     0.0000     1.0000 </r>
       <r>   -14.9038     0.0000     1.0000 </r>
       <r>   -14.6502     0.0000     1.0000 </r>
       <r>   -14.3966     0.0000     1.0000 </r>
       <r>   -14.1430     0.0000     1.0000 </r>
       <r>   -13.8894     0.0000     1.0000 </r>
       <r>   -13.6359     0.0000     1.0000 </r>
       <r>   -13.3823     0.0000     1.0000 </r>
       <r>   -13.1287     0.0000     1.0000 </r>
       <r>   -12.8751     0.0000     1.0000 </r>
       <r>   -12.6215     0.0000     1.0000 </r>
       <r>   -12.3679     0.0000     1.0000 </r>
       <r>   -12.1143     0.0000     1.0000 </r>
       <r>   -11.8608     0.0000     1.0000 </r>
       <r>   -11.6072     0.0000     1.0000 </r>
       <r>   -11.3536     0.0000     1.0000 </r>
       <r>   -11.1000     0.0000     1.0000 </r>
       <r>   -10.8464     0.0000     1.0000 </r>
       <r>   -10.5928     0.0000     1.0000 </r>
       <r>   -10.3392     0.0000     1.0000 </r>
       <r>   -10.0857     0.0000     1.0000 </r>
       <r>    -9.8321     0.0000     1.0000 </r>
       <r>    -9.5785     0.0000     1.0000 </r>
       <r>    -9.3249     0.0000     1.0000 </r>
       <r>    -9.0713     0.0000     1.0000 </r>
       <r>    -8.8177     0.0000     1.0000 </r>
       <r>    -8.5641     0.0000     1.0000 </r>
       <r>    -8.3105     0.0000     1.0000 </r>
       <r>    -8.0570     0.0000     1.0000 </r>
       <r>    -7.8034     0.0000     1.0000 </r>
       <r>    -7.5498     0.0000     1.0000 </r>
       <r>    -7.2962     0.0000     1.0000 </r>
       <r>    -7.0426     0.0000     1.0000 </r>
       <r>    -6.7890     0.0000     1.0000 </r>
       <r>    -6.5354     0.0000     1.0000 </r>
       <r>    -6.2819     0.0000     1.0000 </r>
       <r>    -6.0283     0.0000     1.0000 </r>
       <r>    -5.7747     0.0000     1.0000 </r>
       <r>    -5.5211     0.0000     1.0000 </r>
       <r>    -5.2675     0.0048     1.0001 </r>
       <r>    -5.0139     0.0548     1.0089 </r>
       <r>    -4.7603     0.0750     1.0249 </r>
       <r>    -4.5068     0.1004     1.0472 </r>
       <r>    -4.2532     0.1105     1.0740 </r>
       <r>    -3.9996     0.1281     1.1043 </r>
       <r>    -3.7460     0.1472     1.1392 </r>
       <r>    -3.4924     0.1628     1.1786 </r>
       <r>    -3.2388     0.1806     1.2221 </r>
       <r>    -2.9852     0.2075     1.2711 </r>
       <r>    -2.7316     0.2420     1.3279 </r>
       <r>    -2.4781     0.3285     1.3960 </r>
       <r>    -2.2245     0.2958     1.4789 </r>
       <r>    -1.9709     0.2887     1.5530 </r>
       <r>    -1.7173     0.2806     1.6252 </r>
       <r>    -1.4637     0.2575     1.6936 </r>
       <r>    -1.2101     0.2523     1.7584 </r>
       <r>    -0.9565     0.2440     1.8211 </r>
       <r>    -0.7030     0.2547     1.8839 </r>
       <r>    -0.4494     0.2418     1.9490 </r>
       <r>    -0.1958     0.0906     1.9909 </r>
       <r>     0.0578     0.0027     1.9999 </r>
       <r>     0.3114     0.0000     2.0000 </r>
       <r>     0.5650     0.0000     2.0000 </r>
       <r>     0.8186     0.0000     2.0000 </r>
       <r>     1.0721     0.0000     2.0000 </r>
       <r>     1.3257     0.0000     2.0000 </r>
       <r>     1.5793     0.0000     2.0000 </r>
       <r>     1.8329     0.0000     2.0000 </r>
       <r>     2.0865     0.0000     2.0000 </r>
       <r>     2.3401     0.0000     2.0000 </r>
       <r>     2.5937     0.0000     2.0000 </r>
       <r>     2.8473     0.0000     2.0000 </r>
       <r>     3.1008     0.0000     2.0000 </r>
       <r>     3.3544     0.0045     2.0004 </r>
       <r>     3.6080     0.0177     2.0030 </r>
       <r>     3.8616     0.0428     2.0103 </r>
       <r>     4.1152     0.0877     2.0264 </r>
       <r>     4.3688     0.0883     2.0502 </r>
       <r>     4.6224     0.1130     2.0756 </r>
       <r>     4.8759     0.1431     2.1079 </r>
       <r>     5.1295     0.2824     2.1575 </r>
       <r>     5.3831     0.6120     2.2795 </r>
       <r>     5.6367     0.3234     2.3883 </r>
       <r>     5.8903     0.2516     2.4594 </r>
       <r>     6.1439     0.2246     2.5194 </r>
       <r>     6.3975     0.2075     2.5741 </r>
       <r>     6.6511     0.1956     2.6251 </r>
       <r>     6.9046     0.1996     2.6747 </r>
       <r>     7.1582     0.2190     2.7277 </r>
       <r>     7.4118     0.2318     2.7848 </r>
       <r>     7.6654     0.2472     2.8455 </r>
       <r>     7.9190     0.2616     2.9102 </r>
       <r>     8.1726     0.2663     2.9774 </r>
       <r>     8.4262     0.2541     3.0436 </r>
       <r>     8.6797     0.2519     3.1077 </r>
       <r>     8.9333     0.2441     3.1708 </r>
       <r>     9.1869     0.2329     3.2313 </r>
       <r>     9.4405     0.2225     3.2894 </r>
       <r>     9.6941     0.2108     3.3442 </r>
       <r>     9.9477     0.2008     3.3964 </r>
       <r>    10.2013     0.1913     3.4461 </r>
       <r>    10.4548     0.1823     3.4935 </r>
       <r>    10.7084     0.1734     3.5386 </r>
       <r>    10.9620     0.1622     3.5812 </r>
       <r>    11.2156     0.1971     3.6247 </r>
       <r>    11.4692     0.2477     3.6859 </r>
       <r>    11.7228     0.3021     3.7548 </r>
       <r>    11.9764     0.3656     3.8394 </r>
       <r>    12.2300     0.4307     3.9430 </r>
       <r>    12.4835     0.3608     4.0429 </r>
       <r>    12.7371     0.3304     4.1295 </r>
       <r>    12.9907     0.3237     4.2124 </r>
       <r>    13.2443     0.3132     4.2933 </r>
       <r>    13.4979     0.2969     4.3708 </r>
       <r>    13.7515     0.2584     4.4407 </r>
       <r>    14.0051     0.2522     4.5053 </r>
       <r>    14.2586     0.2410     4.5680 </r>
       <r>    14.5122     0.2314     4.6279 </r>
       <r>    14.7658     0.2190     4.6851 </r>
       <r>    15.0194     0.2077     4.7391 </r>
       <r>    15.2730     0.1999     4.7907 </r>
       <r>    15.5266     0.1949     4.8407 </r>
       <r>    15.7802     0.1848     4.8890 </r>
       <r>    16.0337     0.2839     4.9391 </r>
       <r>    16.2873     0.6077     5.0599 </r>
       <r>    16.5409     0.6638     5.2277 </r>
       <r>    16.7945     0.6517     5.3905 </r>
       <r>    17.0481     0.6883     5.5627 </r>
       <r>    17.3017     0.5907     5.7291 </r>
       <r>    17.5553     0.3338     5.8459 </r>
       <r>    17.8089     0.2726     5.9174 </r>
       <r>    18.0624     0.2436     5.9861 </r>
       <r>    18.3160     0.1957     6.0429 </r>
       <r>    18.5696     0.1162     6.0822 </r>
       <r>    18.8232     0.0724     6.1052 </r>
       <r>    19.0768     0.0725     6.1231 </r>
       <r>    19.3304     0.0779     6.1422 </r>
       <r>    19.5840     0.0848     6.1627 </r>
       <r>    19.8375     0.0934     6.1853 </r>
       <r>    20.0911     0.1035     6.2102 </r>
       <r>    20.3447     0.1230     6.2383 </r>
       <r>    20.5983     0.1640     6.2746 </r>
       <r>    20.8519     0.2075     6.3217 </r>
       <r>    21.1055     0.2446     6.3797 </r>
       <r>    21.3591     0.2604     6.4439 </r>
       <r>    21.6126     0.2673     6.5110 </r>
       <r>    21.8662     0.2771     6.5793 </r>
       <r>    22.1198     0.3338     6.6572 </r>
       <r>    22.3734     0.2324     6.7311 </r>
       <r>    22.6270     0.1747     6.7802 </r>
       <r>    22.8806     0.1505     6.8213 </r>
       <r>    23.1342     0.1321     6.8570 </r>
       <r>    23.3878     0.1181     6.8887 </r>
       <r>    23.6413     0.1042     6.9169 </r>
       <r>    23.8949     0.0891     6.9414 </r>
       <r>    24.1485     0.0727     6.9620 </r>
       <r>    24.4021     0.0553     6.9782 </r>
       <r>    24.6557     0.0391     6.9901 </r>
       <r>    24.9093     0.0248     6.9982 </r>
       <r>    25.1629     0.0000     7.0000 </r>
       <r>    25.4164     0.0000     7.0000 </r>
       <r>    25.6700     0.0000     7.0000 </r>
       <r>    25.9236     0.0000     7.0000 </r>
       <r>    26.1772     0.0000     7.0000 </r>
       <r>    26.4308     0.0000     7.0000 </r>
       <r>    26.6844     0.0000     7.0000 </r>
       <r>    26.9380     0.0000     7.0000 </r>
       <r>    27.1915     0.0000     7.0000 </r>
       <r>    27.4451     0.0000     7.0000 </r>
       <r>    27.6987     0.0000     7.0000 </r>
       <r>    27.9523     0.0000     7.0000 </r>
       <r>    28.2059     0.0000     7.0000 </r>
       <r>    28.4595     0.0000     7.0000 </r>
      </set>
      <set comment="spin 2">
       <r>   -47.6164     0.0000     0.0000 </r>
       <r>   -47.3629     0.0000     0.0000 </r>
       <r>   -47.1093     0.0000     0.0000 </r>
       <r>   -46.8557     0.0000     0.0000 </r>
       <r>   -46.6021     0.0000     0.0000 </r>
       <r>   -46.3485     0.0000     0.0000 </r>
       <r>   -46.0949     0.0000     0.0000 </r>
       <r>   -45.8413     0.0000     0.0000 </r>
       <r>   -45.5877     0.0000     0.0000 </r>
       <r>   -45.3342     0.0000     0.0000 </r>
       <r>   -45.0806     0.0000     0.0000 </r>
       <r>   -44.8270     0.0000     0.0000 </r>
       <r>   -44.5734     0.0000     0.0000 </r>
       <r>   -44.3198     0.0000     0.0000 </r>
       <r>   -44.0662     0.0000     1.0000 </r>
       <r>   -43.8126     0.0000     1.0000 </r>
       <r>   -43.5591     0.0000     1.0000 </r>
       <r>   -43.3055     0.0000     1.0000 </r>
       <r>   -43.0519     0.0000     1.0000 </r>
       <r>   -42.7983     0.0000     1.0000 </r>
       <r>   -42.5447     0.0000     1.0000 </r>
       <r>   -42.2911     0.0000     1.0000 </r>
       <r>   -42.0375     0.0000     1.0000 </r>
       <r>   -41.7840     0.0000     1.0000 </r>
       <r>   -41.5304     0.0000     1.0000 </r>
       <r>   -41.2768     0.0000     1.0000 </r>
       <r>   -41.0232     0.0000     1.0000 </r>
       <r>   -40.7696     0.0000     1.0000 </r>
       <r>   -40.5160     0.0000     1.0000 </r>
       <r>   -40.2624     0.0000     1.0000 </r>
       <r>   -40.0088     0.0000     1.0000 </r>
       <r>   -39.7553     0.0000     1.0000 </r>
       <r>   -39.5017     0.0000     1.0000 </r>
       <r>   -39.2481     0.0000     1.0000 </r>
       <r>   -38.9945     0.0000     1.0000 </r>
       <r>   -38.7409     0.0000     1.0000 </r>
       <r>   -38.4873     0.0000     1.0000 </r>
       <r>   -38.2337     0.0000     1.0000 </r>
       <r>   -37.9802     0.0000     1.0000 </r>
       <r>   -37.7266     0.0000     1.0000 </r>
       <r>   -37.4730     0.0000     1.0000 </r>
       <r>   -37.2194     0.0000     1.0000 </r>
       <r>   -36.9658     0.0000     1.0000 </r>
       <r>   -36.7122     0.0000     1.0000 </r>
       <r>   -36.4586     0.0000     1.0000 </r>
       <r>   -36.2051     0.0000     1.0000 </r>
       <r>   -35.9515     0.0000     1.0000 </r>
       <r>   -35.6979     0.0000     1.0000 </r>
       <r>   -35.4443     0.0000     1.0000 </r>
       <r>   -35.1907     0.0000     1.0000 </r>
       <r>   -34.9371     0.0000     1.0000 </r>
       <r>   -34.6835     0.0000     1.0000 </r>
       <r>   -34.4299     0.0000     1.0000 </r>
       <r>   -34.1764     0.0000     1.0000 </r>
       <r>   -33.9228     0.0000     1.0000 </r>
       <r>   -33.6692     0.0000     1.0000 </r>
       <r>   -33.4156     0.0000     1.0000 </r>
       <r>   -33.1620     0.0000     1.0000 </r>
       <r>   -32.9084     0.0000     1.0000 </r>
       <r>   -32.6548     0.0000     1.0000 </r>
       <r>   -32.4013     0.0000     1.0000 </r>
       <r>   -32.1477     0.0000     1.0000 </r>
       <r>   -31.8941     0.0000     1.0000 </r>
       <r>   -31.6405     0.0000     1.0000 </r>
       <r>   -31.3869     0.0000     1.0000 </r>
       <r>   -31.1333     0.0000     1.0000 </r>
       <r>   -30.8797     0.0000     1.0000 </r>
       <r>   -30.6262     0.0000     1.0000 </r>
       <r>   -30.3726     0.0000     1.0000 </r>
       <r>   -30.1190     0.0000     1.0000 </r>
       <r>   -29.8654     0.0000     1.0000 </r>
       <r>   -29.6118     0.0000     1.0000 </r>
       <r>   -29.3582     0.0000     1.0000 </r>
       <r>   -29.1046     0.0000     1.0000 </r>
       <r>   -28.8510     0.0000     1.0000 </r>
       <r>   -28.5975     0.0000     1.0000 </r>
       <r>   -28.3439     0.0000     1.0000 </r>
       <r>   -28.0903     0.0000     1.0000 </r>
       <r>   -27.8367     0.0000     1.0000 </r>
       <r>   -27.5831     0.0000     1.0000 </r>
       <r>   -27.3295     0.0000     1.0000 </r>
       <r>   -27.0759     0.0000     1.0000 </r>
       <r>   -26.8224     0.0000     1.0000 </r>
       <r>   -26.5688     0.0000     1.0000 </r>
       <r>   -26.3152     0.0000     1.0000 </r>
       <r>   -26.0616     0.0000     1.0000 </r>
       <r>   -25.8080     0.0000     1.0000 </r>
       <r>   -25.5544     0.0000     1.0000 </r>
       <r>   -25.3008     0.0000     1.0000 </r>
       <r>   -25.0473     0.0000     1.0000 </r>
       <r>   -24.7937     0.0000     1.0000 </r>
       <r>   -24.5401     0.0000     1.0000 </r>
       <r>   -24.2865     0.0000     1.0000 </r>
       <r>   -24.0329     0.0000     1.0000 </r>
       <r>   -23.7793     0.0000     1.0000 </r>
       <r>   -23.5257     0.0000     1.0000 </r>
       <r>   -23.2721     0.0000     1.0000 </r>
       <r>   -23.0186     0.0000     1.0000 </r>
       <r>   -22.7650     0.0000     1.0000 </r>
       <r>   -22.5114     0.0000     1.0000 </r>
       <r>   -22.2578     0.0000     1.0000 </r>
       <r>   -22.0042     0.0000     1.0000 </r>
       <r>   -21.7506     0.0000     1.0000 </r>
       <r>   -21.4970     0.0000     1.0000 </r>
       <r>   -21.2435     0.0000     1.0000 </r>
       <r>   -20.9899     0.0000     1.0000 </r>
       <r>   -20.7363     0.0000     1.0000 </r>
       <r>   -20.4827     0.0000     1.0000 </r>
       <r>   -20.2291     0.0000     1.0000 </r>
       <r>   -19.9755     0.0000     1.0000 </r>
       <r>   -19.7219     0.0000     1.0000 </r>
       <r>   -19.4683     0.0000     1.0000 </r>
       <r>   -19.2148     0.0000     1.0000 </r>
       <r>   -18.9612     0.0000     1.0000 </r>
       <r>   -18.7076     0.0000     1.0000 </r>
       <r>   -18.4540     0.0000     1.0000 </r>
       <r>   -18.2004     0.0000     1.0000 </r>
       <r>   -17.9468     0.0000     1.0000 </r>
       <r>   -17.6932     0.0000     1.0000 </r>
       <r>   -17.4397     0.0000     1.0000 </r>
       <r>   -17.1861     0.0000     1.0000 </r>
       <r>   -16.9325     0.0000     1.0000 </r>
       <r>   -16.6789     0.0000     1.0000 </r>
       <r>   -16.4253     0.0000     1.0000 </r>
       <r>   -16.1717     0.0000     1.0000 </r>
       <r>   -15.9181     0.0000     1.0000 </r>
       <r>   -15.6646     0.0000     1.0000 </r>
       <r>   -15.4110     0.0000     1.0000 </r>
       <r>   -15.1574     0.0000     1.0000 </r>
       <r>   -14.9038     0.0000     1.0000 </r>
       <r>   -14.6502     0.0000     1.0000 </r>
       <r>   -14.3966     0.0000     1.0000 </r>
       <r>   -14.1430     0.0000     1.0000 </r>
       <r>   -13.8894     0.0000     1.0000 </r>
       <r>   -13.6359     0.0000     1.0000 </r>
       <r>   -13.3823     0.0000     1.0000 </r>
       <r>   -13.1287     0.0000     1.0000 </r>
       <r>   -12.8751     0.0000     1.0000 </r>
       <r>   -12.6215     0.0000     1.0000 </r>
       <r>   -12.3679     0.0000     1.0000 </r>
       <r>   -12.1143     0.0000     1.0000 </r>
       <r>   -11.8608     0.0000     1.0000 </r>
       <r>   -11.6072     0.0000     1.0000 </r>
       <r>   -11.3536     0.0000     1.0000 </r>
       <r>   -11.1000     0.0000     1.0000 </r>
       <r>   -10.8464     0.0000     1.0000 </r>
       <r>   -10.5928     0.0000     1.0000 </r>
       <r>   -10.3392     0.0000     1.0000 </r>
       <r>   -10.0857     0.0000     1.0000 </r>
       <r>    -9.8321     0.0000     1.0000 </r>
       <r>    -9.5785     0.0000     1.0000 </r>
       <r>    -9.3249     0.0000     1.0000 </r>
       <r>    -9.0713     0.0000     1.0000 </r>
       <r>    -8.8177     0.0000     1.0000 </r>
       <r>    -8.5641     0.0000     1.0000 </r>
       <r>    -8.3105     0.0000     1.0000 </r>
       <r>    -8.0570     0.0000     1.0000 </r>
       <r>    -7.8034     0.0000     1.0000 </r>
       <r>    -7.5498     0.0000     1.0000 </r>
       <r>    -7.2962     0.0000     1.0000 </r>
       <r>    -7.0426     0.0000     1.0000 </r>
       <r>    -6.7890     0.0000     1.0000 </r>
       <r>    -6.5354     0.0000     1.0000 </r>
       <r>    -6.2819     0.0000     1.0000 </r>
       <r>    -6.0283     0.0000     1.0000 </r>
       <r>    -5.7747     0.0000     1.0000 </r>
       <r>    -5.5211     0.0000     1.0000 </r>
       <r>    -5.2675     0.0048     1.0001 </r>
       <r>    -5.0139     0.0548     1.0089 </r>
       <r>    -4.7603     0.0750     1.0249 </r>
       <r>    -4.5068     0.1004     1.0472 </r>
       <r>    -4.2532     0.1105     1.0740 </r>
       <r>    -3.9996     0.1281     1.1043 </r>
       <r>    -3.7460     0.1472     1.1392 </r>
       <r>    -3.4924     0.1628     1.1786 </r>
       <r>    -3.2388     0.1806     1.2221 </r>
       <r>    -2.9852     0.2075     1.2711 </r>
       <r>    -2.7316     0.2420     1.3279 </r>
       <r>    -2.4781     0.3285     1.3960 </r>
       <r>    -2.2245     0.2958     1.4789 </r>
       <r>    -1.9709     0.2887     1.5530 </r>
       <r>    -1.7173     0.2806     1.6252 </r>
       <r>    -1.4637     0.2575     1.6936 </r>
       <r>    -1.2101     0.2523     1.7584 </r>
       <r>    -0.9565     0.2440     1.8211 </r>
       <r>    -0.7030     0.2547     1.8839 </r>
       <r>    -0.4494     0.2418     1.9490 </r>
       <r>    -0.1958     0.0906     1.9909 </r>
       <r>     0.0578     0.0027     1.9999 </r>
       <r>     0.3114     0.0000     2.0000 </r>
       <r>     0.5650     0.0000     2.0000 </r>
       <r>     0.8186     0.0000     2.0000 </r>
       <r>     1.0721     0.0000     2.0000 </r>
       <r>     1.3257     0.0000     2.0000 </r>
       <r>     1.5793     0.0000     2.0000 </r>
       <r>     1.8329     0.0000     2.0000 </r>
       <r>     2.0865     0.0000     2.0000 </r>
       <r>     2.3401     0.0000     2.0000 </r>
       <r>     2.5937     0.0000     2.0000 </r>
       <r>     2.8473     0.0000     2.0000 </r>
       <r>     3.1008     0.0000     2.0000 </r>
       <r>     3.3544     0.0045     2.0004 </r>
       <r>     3.6080     0.0177     2.0030 </r>
       <r>     3.8616     0.0428     2.0103 </r>
       <r>     4.1152     0.0877     2.0264 </r>
       <r>     4.3688     0.0883     2.0502 </r>
       <r>     4.6224     0.1130     2.0756 </r>
       <r>     4.8759     0.1431     2.1079 </r>
       <r>     5.1295     0.2824     2.1575 </r>
       <r>     5.3831     0.6120     2.2795 </r>
       <r>     5.6367     0.3234     2.3883 </r>
       <r>     5.8903     0.2516     2.4594 </r>
       <r>     6.1439     0.2246     2.5194 </r>
       <r>     6.3975     0.2075     2.5741 </r>
       <r>     6.6511     0.1956     2.6251 </r>
       <r>     6.9046     0.1996     2.6747 </r>
       <r>     7.1582     0.2190     2.7277 </r>
       <r>     7.4118     0.2318     2.7848 </r>
       <r>     7.6654     0.2472     2.8455 </r>
       <r>     7.9190     0.2616     2.9102 </r>
       <r>     8.1726     0.2663     2.9774 </r>
       <r>     8.4262     0.2541     3.0436 </r>
       <r>     8.6797     0.2519     3.1077 </r>
       <r>     8.9333     0.2441     3.1708 </r>
       <r>     9.1869     0.2329     3.2313 </r>
       <r>     9.4405     0.2225     3.2894 </r>
       <r>     9.6941     0.2108     3.3442 </r>
       <r>     9.9477     0.2008     3.3964 </r>
       <r>    10.2013     0.1913     3.4461 </r>
       <r>    10.4548     0.1823     3.4935 </r>
       <r>    10.7084     0.1734     3.5386 </r>
       <r>    10.9620     0.1622     3.5812 </r>
       <r>    11.2156     0.1971     3.6247 </r>
       <r>    11.4692     0.2477     3.6859 </r>
       <r>    11.7228     0.3021     3.7548 </r>
       <r>    11.9764     0.3656     3.8394 </r>
       <r>    12.2300     0.4307     3.9430 </r>
       <r>    12.4835     0.3608     4.0429 </r>
       <r>    12.7371     0.3304     4.1295 </r>
       <r>    12.9907     0.3237     4.2124 </r>
       <r>    13.2443     0.3132     4.2933 </r>
       <r>    13.4979     0.2969     4.3708 </r>
       <r>    13.7515     0.2584     4.4407 </r>
       <r>    14.0051     0.2522     4.5053 </r>
       <r>    14.2586     0.2410     4.5680 </r>
       <r>    14.5122     0.2314     4.6279 </r>
       <r>    14.7658     0.2190     4.6851 </r>
       <r>    15.0194     0.2077     4.7391 </r>
       <r>    15.2730     0.1999     4.7907 </r>
       <r>    15.5266     0.1949     4.8407 </r>
       <r>    15.7802     0.1848     4.8890 </r>
       <r>    16.0337     0.2839     4.9391 </r>
       <r>    16.2873     0.6077     5.0599 </r>
       <r>    16.5409     0.6638     5.2277 </r>
       <r>    16.7945     0.6517     5.3905 </r>
       <r>    17.0481     0.6883     5.5627 </r>
       <r>    17.3017     0.5907     5.7291 </r>
       <r>    17.5553     0.3338     5.8459 </r>
       <r>    17.8089     0.2726     5.9174 </r>
       <r>    18.0624     0.2436     5.9861 </r>
       <r>    18.3160     0.1957     6.0429 </r>
       <r>    18.5696     0.1162     6.0822 </r>
       <r>    18.8232     0.0724     6.1052 </r>
       <r>    19.0768     0.0725     6.1231 </r>
       <r>    19.3304     0.0779     6.1422 </r>
       <r>    19.5840     0.0848     6.1628 </r>
       <r>    19.8375     0.0934     6.1853 </r>
       <r>    20.0911     0.1036     6.2103 </r>
       <r>    20.3447     0.1231     6.2383 </r>
       <r>    20.5983     0.1642     6.2747 </r>
       <r>    20.8519     0.2077     6.3218 </r>
       <r>    21.1055     0.2448     6.3799 </r>
       <r>    21.3591     0.2606     6.4441 </r>
       <r>    21.6126     0.2675     6.5113 </r>
       <r>    21.8662     0.2777     6.5796 </r>
       <r>    22.1198     0.3348     6.6577 </r>
       <r>    22.3734     0.2328     6.7320 </r>
       <r>    22.6270     0.1766     6.7814 </r>
       <r>    22.8806     0.1525     6.8230 </r>
       <r>    23.1342     0.1341     6.8592 </r>
       <r>    23.3878     0.1196     6.8913 </r>
       <r>    23.6413     0.1051     6.9199 </r>
       <r>    23.8949     0.0891     6.9445 </r>
       <r>    24.1485     0.0718     6.9650 </r>
       <r>    24.4021     0.0533     6.9808 </r>
       <r>    24.6557     0.0363     6.9921 </r>
       <r>    24.9093     0.0181     6.9994 </r>
       <r>    25.1629     0.0000     7.0000 </r>
       <r>    25.4164     0.0000     7.0000 </r>
       <r>    25.6700     0.0000     7.0000 </r>
       <r>    25.9236     0.0000     7.0000 </r>
       <r>    26.1772     0.0000     7.0000 </r>
       <r>    26.4308     0.0000     7.0000 </r>
       <r>    26.6844     0.0000     7.0000 </r>
       <r>    26.9380     0.0000     7.0000 </r>
       <r>    27.1915     0.0000     7.0000 </r>
       <r>    27.4451     0.0000     7.0000 </r>
       <r>    27.6987     0.0000     7.0000 </r>
       <r>    27.9523     0.0000     7.0000 </r>
       <r>    28.2059     0.0000     7.0000 </r>
       <r>    28.4595     0.0000     7.0000 </r>
      </set>
     </set>
    </array>
   </total>
   <partial>
    <array>
     <dimension dim="1">gridpoints</dimension>
     <dimension dim="2">spin</dimension>
     <dimension dim="3">ion</dimension>
     <field>energy</field>
     <field>    s</field>
     <field>   py</field>
     <field>   pz</field>
     <field>   px</field>
     <field>  dxy</field>
     <field>  dyz</field>
     <field>  dz2</field>
     <field>  dxz</field>
     <field>x2-y2</field>
     <set>
      <set comment="ion 1">
       <set comment="spin 1">
        <r>   -47.6164     0.0000     0.0000     0.0000     0.0000     0.0000     0.0000     0.0000     0.0000     0.0000 </r>
        <r>   -47.3629     0.0000     0.0000     0.0000     0.0000     0.0000     0.0000     0.0000     0.0000     0.0000 </r>
        <r>   -47.1093     0.0000     0.0000     0.0000     0.0000     0.0000     0.0000     0.0000     0.0000     0.0000 </r>
        <r>   -46.8557     0.0000     0.0000     0.0000     0.0000     0.0000     0.0000     0.0000     0.0000     0.0000 </r>
        <r>   -46.6021     0.0000     0.0000     0.0000     0.0000     0.0000     0.0000     0.0000     0.0000     0.0000 </r>
        <r>   -46.3485     0.0000     0.0000     0.0000     0.0000     0.0000     0.0000     0.0000     0.0000     0.0000 </r>
        <r>   -46.0949     0.0000     0.0000     0.0000     0.0000     0.0000     0.0000     0.0000     0.0000     0.0000 </r>
        <r>   -45.8413     0.0000     0.0000     0.0000     0.0000     0.0000     0.0000     0.0000     0.0000     0.0000 </r>
        <r>   -45.5877     0.0000     0.0000     0.0000     0.0000     0.0000     0.0000     0.0000     0.0000     0.0000 </r>
        <r>   -45.3342     0.0000     0.0000     0.0000     0.0000     0.0000     0.0000     0.0000     0.0000     0.0000 </r>
        <r>   -45.0806     0.0000     0.0000     0.0000     0.0000     0.0000     0.0000     0.0000     0.0000     0.0000 </r>
        <r>   -44.8270     0.0000     0.0000     0.0000     0.0000     0.0000     0.0000     0.0000     0.0000     0.0000 </r>
        <r>   -44.5734     0.0000     0.0000     0.0000     0.0000     0.0000     0.0000     0.0000     0.0000     0.0000 </r>
        <r>   -44.3198     0.0000     0.0000     0.0000     0.0000     0.0000     0.0000     0.0000     0.0000     0.0000 </r>
        <r>   -44.0662     0.0000     0.0000     0.0000     0.0000     0.0000     0.0000     0.0000     0.0000     0.0000 </r>
        <r>   -43.8126     0.0000     0.0000     0.0000     0.0000     0.0000     0.0000     0.0000     0.0000     0.0000 </r>
[...]
       <set comment="band 1">
        <r>  0.9894  0.0000  0.0000  0.0000  0.0000  0.0000  0.0000  0.0000  0.0000 </r>
        <r>  0.0000  0.0000  0.0000  0.0000  0.0000  0.0000  0.0000  0.0000  0.0000 </r>
       </set>
       <set comment="band 2">
        <r>  0.0296  0.0000  0.0255  0.0000  0.0000  0.0000  0.0000  0.0000  0.0000 </r>
        <r>  0.2592  0.0000  0.0023  0.0000  0.0000  0.0000  0.0000  0.0000  0.0000 </r>
       </set>
       <set comment="band 3">
        <r>  0.0018  0.0000  0.1124  0.0000  0.0000  0.0000  0.0000  0.0000  0.0000 </r>
        <r>  0.1464  0.0000  0.0189  0.0000  0.0000  0.0000  0.0000  0.0000  0.0000 </r>
       </set>
       <set comment="band 4">
        <r>  0.0000  0.1783  0.0000  0.1787  0.0000  0.0000  0.0000  0.0000  0.0000 </r>
        <r>  0.0000  0.0175  0.0000  0.0175  0.0000  0.0000  0.0000  0.0000  0.0000 </r>
       </set>
       <set comment="band 5">
        <r>  0.0000  0.1787  0.0000  0.1783  0.0000  0.0000  0.0000  0.0000  0.0000 </r>
        <r>  0.0000  0.0175  0.0000  0.0175  0.0000  0.0000  0.0000  0.0000  0.0000 </r>
       </set>
       <set comment="band 6">
        <r>  0.0000  0.0000  0.0000  0.0000  0.0000  0.0000  0.0000  0.0000  0.0000 </r>
        <r>  0.0000  0.0000  0.0000  0.0000  0.0000  0.0000  0.0000  0.0000  0.0000 </r>
       </set>
       <set comment="band 7">
        <r>  0.3261  0.0000  0.1194  0.0000  0.0000  0.0000  0.0000  0.0000  0.0000 </r>
        <r>  0.0849  0.0000  0.0001  0.0000  0.0000  0.0000  0.0000  0.0000  0.0000 </r>
       </set>
      </set>
      <set comment="kpoint 19">
       <set comment="band 1">
        <r>  0.9898  0.0000  0.0000  0.0000  0.0000  0.0000  0.0000  0.0000  0.0000 </r>
        <r>  0.0000  0.0000  0.0000  0.0000  0.0000  0.0000  0.0000  0.0000  0.0000 </r>
       </set>
       <set comment="band 2">
        <r>  0.0159  0.0031  0.0163  0.0031  0.0000  0.0000  0.0000  0.0000  0.0000 </r>
        <r>  0.3206  0.0000  0.0015  0.0000  0.0000  0.0000  0.0000  0.0000  0.0000 </r>
       </set>
       <set comment="band 3">
        <r>  0.0007  0.0017  0.1295  0.0017  0.0000  0.0000  0.0000  0.0000  0.0000 </r>
        <r>  0.0664  0.0001  0.0186  0.0001  0.0000  0.0000  0.0000  0.0000  0.0000 </r>
       </set>
       <set comment="band 4">
        <r>  0.0280  0.0950  0.0033  0.0950  0.0000  0.0000  0.0000  0.0000  0.0000 </r>
        <r>  0.0051  0.0128  0.0001  0.0128  0.0000  0.0000  0.0000  0.0000  0.0000 </r>
       </set>
       <set comment="band 5">
        <r>  0.0000  0.1769  0.0000  0.1769  0.0000  0.0000  0.0000  0.0000  0.0000 </r>
        <r>  0.0000  0.0173  0.0000  0.0173  0.0000  0.0000  0.0000  0.0000  0.0000 </r>
       </set>
       <set comment="band 6">
        <r>  0.1187  0.0072  0.0098  0.0072  0.0000  0.0000  0.0000  0.0000  0.0000 </r>
        <r>  0.0191  0.0035  0.0000  0.0035  0.0000  0.0000  0.0000  0.0000  0.0000 </r>
       </set>
       <set comment="band 7">
        <r>  0.1910  0.1084  0.0192  0.1084  0.0000  0.0000  0.0000  0.0000  0.0000 </r>
        <r>  0.0859  0.0010  0.0000  0.0010  0.0000  0.0000  0.0000  0.0000  0.0000 </r>
       </set>
      </set>
      <set comment="kpoint 20">
       <set comment="band 1">
        <r>  0.9899  0.0000  0.0000  0.0000  0.0000  0.0000  0.0000  0.0000  0.0000 </r>
        <r>  0.0000  0.0000  0.0000  0.0000  0.0000  0.0000  0.0000  0.0000  0.0000 </r>
       </set>
       <set comment="band 2">
        <r>  0.0014  0.0140  0.0000  0.0140  0.0000  0.0000  0.0000  0.0000  0.0000 </r>
        <r>  0.3553  0.0001  0.0000  0.0001  0.0000  0.0000  0.0000  0.0000  0.0000 </r>
       </set>
       <set comment="band 3">
        <r>  0.0000  0.0000  0.1572  0.0000  0.0000  0.0000  0.0000  0.0000  0.0000 </r>
        <r>  0.0000  0.0000  0.0202  0.0000  0.0000  0.0000  0.0000  0.0000  0.0000 </r>
       </set>
       <set comment="band 4">
        <r>  0.0712  0.0426  0.0000  0.0426  0.0000  0.0000  0.0000  0.0000  0.0000 </r>
        <r>  0.0313  0.0117  0.0000  0.0117  0.0000  0.0000  0.0000  0.0000  0.0000 </r>
       </set>
       <set comment="band 5">
        <r>  0.0000  0.1850  0.0000  0.1850  0.0000  0.0000  0.0000  0.0000  0.0000 </r>
        <r>  0.0000  0.0168  0.0000  0.0168  0.0000  0.0000  0.0000  0.0000  0.0000 </r>
       </set>
       <set comment="band 6">
        <r>  0.2281  0.0552  0.0000  0.0552  0.0000  0.0000  0.0000  0.0000  0.0000 </r>
        <r>  0.0814  0.0018  0.0000  0.0018  0.0000  0.0000  0.0000  0.0000  0.0000 </r>
       </set>
       <set comment="band 7">
        <r>  0.0019  0.1961  0.0000  0.1961  0.0000  0.0000  0.0000  0.0000  0.0000 </r>
        <r>  0.0476  0.0029  0.0000  0.0029  0.0000  0.0000  0.0000  0.0000  0.0000 </r>
       </set>
      </set>
      <set comment="kpoint 21">
       <set comment="band 1">
        <r>  0.9899  0.0000  0.0000  0.0000  0.0000  0.0000  0.0000  0.0000  0.0000 </r>
        <r>  0.0000  0.0000  0.0000  0.0000  0.0000  0.0000  0.0000  0.0000  0.0000 </r>
       </set>
       <set comment="band 2">
        <r>  0.0180  0.0000  0.0000  0.0000  0.0000  0.0000  0.0000  0.0000  0.0000 </r>
        <r>  0.3902  0.0000  0.0000  0.0000  0.0000  0.0000  0.0000  0.0000  0.0000 </r>
       </set>
       <set comment="band 3">
        <r>  0.0000  0.0000  0.1485  0.0000  0.0000  0.0000  0.0000  0.0000  0.0000 </r>
        <r>  0.0000  0.0000  0.0198  0.0000  0.0000  0.0000  0.0000  0.0000  0.0000 </r>
       </set>
       <set comment="band 4">
        <r>  0.0000  0.1718  0.0000  0.1730  0.0000  0.0000  0.0000  0.0000  0.0000 </r>
        <r>  0.0000  0.0174  0.0000  0.0175  0.0000  0.0000  0.0000  0.0000  0.0000 </r>
       </set>
       <set comment="band 5">
        <r>  0.0000  0.1730  0.0000  0.1718  0.0000  0.0000  0.0000  0.0000  0.0000 </r>
        <r>  0.0000  0.0175  0.0000  0.0174  0.0000  0.0000  0.0000  0.0000  0.0000 </r>
       </set>
       <set comment="band 6">
        <r>  0.0000  0.0000  0.0000  0.0000  0.0000  0.0000  0.0000  0.0000  0.0000 </r>
        <r>  0.0000  0.0000  0.0000  0.0000  0.0000  0.0000  0.0000  0.0000  0.0000 </r>
       </set>
       <set comment="band 7">
        <r>  0.3772  0.0000  0.0000  0.0000  0.0000  0.0000  0.0000  0.0000  0.0000 </r>
        <r>  0.1021  0.0000  0.0000  0.0000  0.0000  0.0000  0.0000  0.0000  0.0000 </r>
       </set>
      </set>
      <set comment="kpoint 22">
       <set comment="band 1">
        <r>  0.9884  0.0000  0.0000  0.0000  0.0000  0.0000  0.0000  0.0000  0.0000 </r>
        <r>  0.0000  0.0000  0.0000  0.0000  0.0000  0.0000  0.0000  0.0000  0.0000 </r>
       </set>
       <set comment="band 2">
        <r>  0.0428  0.0055  0.0164  0.0000  0.0000  0.0000  0.0000  0.0000  0.0000 </r>
        <r>  0.2268  0.0001  0.0010  0.0000  0.0000  0.0000  0.0000  0.0000  0.0000 </r>
       </set>
       <set comment="band 3">
        <r>  0.0685  0.0287  0.0189  0.0000  0.0000  0.0000  0.0000  0.0000  0.0000 </r>
        <r>  0.1819  0.0074  0.0180  0.0000  0.0000  0.0000  0.0000  0.0000  0.0000 </r>
       </set>
       <set comment="band 4">
        <r>  0.0000  0.0000  0.0000  0.2395  0.0000  0.0000  0.0000  0.0000  0.0000 </r>
        <r>  0.0000  0.0000  0.0000  0.0243  0.0000  0.0000  0.0000  0.0000  0.0000 </r>
       </set>
       <set comment="band 5">
        <r>  0.0281  0.1972  0.1589  0.0000  0.0000  0.0000  0.0000  0.0000  0.0000 </r>
        <r>  0.0573  0.0232  0.0023  0.0000  0.0000  0.0000  0.0000  0.0000  0.0000 </r>
       </set>
       <set comment="band 6">
        <r>  0.0714  0.3663  0.3065  0.0000  0.0000  0.0000  0.0000  0.0000  0.0000 </r>
        <r>  0.0472  0.0000  0.0000  0.0000  0.0000  0.0000  0.0000  0.0000  0.0000 </r>
       </set>
       <set comment="band 7">
        <r>  0.0000  0.0000  0.0000  0.1998  0.0000  0.0000  0.0000  0.0000  0.0000 </r>
        <r>  0.0000  0.0000  0.0000  0.0108  0.0000  0.0000  0.0000  0.0000  0.0000 </r>
       </set>
      </set>
      <set comment="kpoint 23">
       <set comment="band 1">
        <r>  0.9892  0.0000  0.0000  0.0000  0.0000  0.0000  0.0000  0.0000  0.0000 </r>
        <r>  0.0000  0.0000  0.0000  0.0000  0.0000  0.0000  0.0000  0.0000  0.0000 </r>
       </set>
       <set comment="band 2">
        <r>  0.0189  0.0127  0.0207  0.0024  0.0000  0.0000  0.0000  0.0000  0.0000 </r>
        <r>  0.2586  0.0001  0.0010  0.0000  0.0000  0.0000  0.0000  0.0000  0.0000 </r>
       </set>
       <set comment="band 3">
        <r>  0.0615  0.0076  0.0159  0.0612  0.0000  0.0000  0.0000  0.0000  0.0000 </r>
        <r>  0.0456  0.0046  0.0094  0.0091  0.0000  0.0000  0.0000  0.0000  0.0000 </r>
       </set>
       <set comment="band 4">
        <r>  0.0073  0.0030  0.0380  0.1184  0.0000  0.0000  0.0000  0.0000  0.0000 </r>
        <r>  0.0967  0.0008  0.0087  0.0124  0.0000  0.0000  0.0000  0.0000  0.0000 </r>
       </set>
       <set comment="band 5">
        <r>  0.0873  0.0534  0.1699  0.0402  0.0000  0.0000  0.0000  0.0000  0.0000 </r>
        <r>  0.0175  0.0250  0.0020  0.0010  0.0000  0.0000  0.0000  0.0000  0.0000 </r>
       </set>
       <set comment="band 6">
        <r>  0.0226  0.5274  0.0869  0.0016  0.0000  0.0000  0.0000  0.0000  0.0000 </r>
        <r>  0.0861  0.0001  0.0009  0.0009  0.0000  0.0000  0.0000  0.0000  0.0000 </r>
       </set>
       <set comment="band 7">
        <r>  0.0294  0.0405  0.0283  0.1190  0.0000  0.0000  0.0000  0.0000  0.0000 </r>
        <r>  0.0139  0.0077  0.0076  0.0091  0.0000  0.0000  0.0000  0.0000  0.0000 </r>
       </set>
      </set>
      <set comment="kpoint 24">
       <set comment="band 1">
        <r>  0.9895  0.0000  0.0000  0.0000  0.0000  0.0000  0.0000  0.0000  0.0000 </r>
        <r>  0.0000  0.0000  0.0000  0.0000  0.0000  0.0000  0.0000  0.0000  0.0000 </r>
       </set>
       <set comment="band 2">
        <r>  0.0000  0.0185  0.0135  0.0135  0.0000  0.0000  0.0000  0.0000  0.0000 </r>
        <r>  0.2919  0.0000  0.0003  0.0003  0.0000  0.0000  0.0000  0.0000  0.0000 </r>
       </set>
       <set comment="band 3">
        <r>  0.0775  0.0000  0.0354  0.0354  0.0000  0.0000  0.0000  0.0000  0.0000 </r>
        <r>  0.0000  0.0045  0.0091  0.0091  0.0000  0.0000  0.0000  0.0000  0.0000 </r>
       </set>
       <set comment="band 4">
        <r>  0.0000  0.0016  0.0780  0.0780  0.0000  0.0000  0.0000  0.0000  0.0000 </r>
        <r>  0.1095  0.0000  0.0103  0.0103  0.0000  0.0000  0.0000  0.0000  0.0000 </r>
       </set>
       <set comment="band 5">
        <r>  0.1141  0.0000  0.1122  0.1122  0.0000  0.0000  0.0000  0.0000  0.0000 </r>
        <r>  0.0000  0.0265  0.0017  0.0017  0.0000  0.0000  0.0000  0.0000  0.0000 </r>
       </set>
       <set comment="band 6">
        <r>  0.0000  0.5756  0.0165  0.0165  0.0000  0.0000  0.0000  0.0000  0.0000 </r>
        <r>  0.0989  0.0000  0.0014  0.0014  0.0000  0.0000  0.0000  0.0000  0.0000 </r>
       </set>
       <set comment="band 7">
        <r>  0.1011  0.0000  0.0177  0.0173  0.0000  0.0000  0.0000  0.0000  0.0000 </r>
        <r>  0.0000  0.0342  0.0126  0.0126  0.0000  0.0000  0.0000  0.0000  0.0000 </r>
       </set>
      </set>
      <set comment="kpoint 25">
       <set comment="band 1">
        <r>  0.9895  0.0000  0.0000  0.0000  0.0000  0.0000  0.0000  0.0000  0.0000 </r>
        <r>  0.0000  0.0000  0.0000  0.0000  0.0000  0.0000  0.0000  0.0000  0.0000 </r>
       </set>
       <set comment="band 2">
        <r>  0.0206  0.0076  0.0231  0.0000  0.0000  0.0000  0.0000  0.0000  0.0000 </r>
        <r>  0.2728  0.0000  0.0018  0.0000  0.0000  0.0000  0.0000  0.0000  0.0000 </r>
       </set>
       <set comment="band 3">
        <r>  0.0111  0.0095  0.1035  0.0000  0.0000  0.0000  0.0000  0.0000  0.0000 </r>
        <r>  0.1214  0.0011  0.0189  0.0000  0.0000  0.0000  0.0000  0.0000  0.0000 </r>
       </set>
       <set comment="band 4">
        <r>  0.0000  0.0000  0.0000  0.2143  0.0000  0.0000  0.0000  0.0000  0.0000 </r>
        <r>  0.0000  0.0000  0.0000  0.0235  0.0000  0.0000  0.0000  0.0000  0.0000 </r>
       </set>
       <set comment="band 5">
        <r>  0.0870  0.1911  0.0378  0.0000  0.0000  0.0000  0.0000  0.0000  0.0000 </r>
        <r>  0.0054  0.0328  0.0005  0.0000  0.0000  0.0000  0.0000  0.0000  0.0000 </r>
       </set>
       <set comment="band 6">
        <r>  0.1709  0.3187  0.0874  0.0000  0.0000  0.0000  0.0000  0.0000  0.0000 </r>
        <r>  0.1016  0.0001  0.0000  0.0000  0.0000  0.0000  0.0000  0.0000  0.0000 </r>
       </set>
       <set comment="band 7">
        <r>  0.0000  0.0000  0.0000  0.1633  0.0000  0.0000  0.0000  0.0000  0.0000 </r>
        <r>  0.0000  0.0000  0.0000  0.0111  0.0000  0.0000  0.0000  0.0000  0.0000 </r>
       </set>
      </set>
      <set comment="kpoint 26">
       <set comment="band 1">
        <r>  0.9898  0.0000  0.0000  0.0000  0.0000  0.0000  0.0000  0.0000  0.0000 </r>
        <r>  0.0000  0.0000  0.0000  0.0000  0.0000  0.0000  0.0000  0.0000  0.0000 </r>
       </set>
       <set comment="band 2">
        <r>  0.0027  0.0180  0.0098  0.0049  0.0000  0.0000  0.0000  0.0000  0.0000 </r>
        <r>  0.3334  0.0000  0.0006  0.0001  0.0000  0.0000  0.0000  0.0000  0.0000 </r>
       </set>
       <set comment="band 3">
        <r>  0.0126  0.0030  0.1273  0.0094  0.0000  0.0000  0.0000  0.0000  0.0000 </r>
        <r>  0.0238  0.0008  0.0183  0.0013  0.0000  0.0000  0.0000  0.0000  0.0000 </r>
       </set>
       <set comment="band 4">
        <r>  0.0147  0.0000  0.0147  0.1407  0.0000  0.0000  0.0000  0.0000  0.0000 </r>
        <r>  0.0273  0.0011  0.0015  0.0191  0.0000  0.0000  0.0000  0.0000  0.0000 </r>
       </set>
       <set comment="band 5">
        <r>  0.1459  0.0711  0.0161  0.0523  0.0000  0.0000  0.0000  0.0000  0.0000 </r>
        <r>  0.0006  0.0314  0.0002  0.0017  0.0000  0.0000  0.0000  0.0000  0.0000 </r>
       </set>
       <set comment="band 6">
        <r>  0.0804  0.4738  0.0160  0.0015  0.0000  0.0000  0.0000  0.0000  0.0000 </r>
        <r>  0.1100  0.0000  0.0001  0.0017  0.0000  0.0000  0.0000  0.0000  0.0000 </r>
       </set>
       <set comment="band 7">
        <r>  0.0026  0.0998  0.0003  0.1867  0.0000  0.0000  0.0000  0.0000  0.0000 </r>
        <r>  0.0197  0.0000  0.0002  0.0100  0.0000  0.0000  0.0000  0.0000  0.0000 </r>
       </set>
      </set>
      <set comment="kpoint 27">
       <set comment="band 1">
        <r>  0.9897  0.0000  0.0000  0.0000  0.0000  0.0000  0.0000  0.0000  0.0000 </r>
        <r>  0.0000  0.0000  0.0000  0.0000  0.0000  0.0000  0.0000  0.0000  0.0000 </r>
       </set>
       <set comment="band 2">
        <r>  0.0041  0.0196  0.0000  0.0183  0.0000  0.0000  0.0000  0.0000  0.0000 </r>
        <r>  0.3083  0.0001  0.0000  0.0008  0.0000  0.0000  0.0000  0.0000  0.0000 </r>
       </set>
       <set comment="band 3">
        <r>  0.0000  0.0000  0.1729  0.0000  0.0000  0.0000  0.0000  0.0000  0.0000 </r>
        <r>  0.0000  0.0000  0.0210  0.0000  0.0000  0.0000  0.0000  0.0000  0.0000 </r>
       </set>
       <set comment="band 4">
        <r>  0.0495  0.0019  0.0000  0.0845  0.0000  0.0000  0.0000  0.0000  0.0000 </r>
        <r>  0.0763  0.0036  0.0000  0.0183  0.0000  0.0000  0.0000  0.0000  0.0000 </r>
       </set>
       <set comment="band 5">
        <r>  0.1532  0.0040  0.0000  0.1353  0.0000  0.0000  0.0000  0.0000  0.0000 </r>
        <r>  0.0021  0.0289  0.0000  0.0026  0.0000  0.0000  0.0000  0.0000  0.0000 </r>
       </set>
       <set comment="band 6">
        <r>  0.0116  0.6049  0.0000  0.0059  0.0000  0.0000  0.0000  0.0000  0.0000 </r>
        <r>  0.1157  0.0000  0.0000  0.0019  0.0000  0.0000  0.0000  0.0000  0.0000 </r>
       </set>
       <set comment="band 7">
        <r>  0.0001  0.0001  0.2968  0.0000  0.0000  0.0000  0.0000  0.0000  0.0000 </r>
        <r>  0.0000  0.0000  0.0118  0.0000  0.0000  0.0000  0.0000  0.0000  0.0000 </r>
       </set>
      </set>
      <set comment="kpoint 28">
       <set comment="band 1">
        <r>  0.9899  0.0000  0.0000  0.0000  0.0000  0.0000  0.0000  0.0000  0.0000 </r>
        <r>  0.0000  0.0000  0.0000  0.0000  0.0000  0.0000  0.0000  0.0000  0.0000 </r>
       </set>
       <set comment="band 2">
        <r>  0.0085  0.0124  0.0000  0.0000  0.0000  0.0000  0.0000  0.0000  0.0000 </r>
        <r>  0.3837  0.0000  0.0000  0.0000  0.0000  0.0000  0.0000  0.0000  0.0000 </r>
       </set>
       <set comment="band 3">
        <r>  0.0000  0.0000  0.1528  0.0000  0.0000  0.0000  0.0000  0.0000  0.0000 </r>
        <r>  0.0000  0.0000  0.0200  0.0000  0.0000  0.0000  0.0000  0.0000  0.0000 </r>
       </set>
       <set comment="band 4">
        <r>  0.0000  0.0000  0.0000  0.2073  0.0000  0.0000  0.0000  0.0000  0.0000 </r>
        <r>  0.0000  0.0000  0.0000  0.0233  0.0000  0.0000  0.0000  0.0000  0.0000 </r>
       </set>
       <set comment="band 5">
        <r>  0.1012  0.1968  0.0000  0.0000  0.0000  0.0000  0.0000  0.0000  0.0000 </r>
        <r>  0.0013  0.0346  0.0000  0.0000  0.0000  0.0000  0.0000  0.0000  0.0000 </r>
       </set>
       <set comment="band 6">
        <r>  0.2207  0.2980  0.0000  0.0000  0.0000  0.0000  0.0000  0.0000  0.0000 </r>
        <r>  0.1171  0.0001  0.0000  0.0000  0.0000  0.0000  0.0000  0.0000  0.0000 </r>
       </set>
       <set comment="band 7">
        <r>  0.0000  0.0000  0.0000  0.1550  0.0000  0.0000  0.0000  0.0000  0.0000 </r>
        <r>  0.0000  0.0000  0.0000  0.0112  0.0000  0.0000  0.0000  0.0000  0.0000 </r>
       </set>
      </set>
      <set comment="kpoint 29">
       <set comment="band 1">
        <r>  0.9900  0.0000  0.0000  0.0000  0.0000  0.0000  0.0000  0.0000  0.0000 </r>
        <r>  0.0000  0.0000  0.0000  0.0000  0.0000  0.0000  0.0000  0.0000  0.0000 </r>
       </set>
       <set comment="band 2">
        <r>  0.0000  0.0235  0.0000  0.0000  0.0000  0.0000  0.0000  0.0000  0.0000 </r>
        <r>  0.3779  0.0000  0.0000  0.0000  0.0000  0.0000  0.0000  0.0000  0.0000 </r>
       </set>
       <set comment="band 3">
        <r>  0.0000  0.0000  0.0838  0.0840  0.0000  0.0000  0.0000  0.0000  0.0000 </r>
        <r>  0.0000  0.0000  0.0104  0.0104  0.0000  0.0000  0.0000  0.0000  0.0000 </r>
       </set>
       <set comment="band 4">
        <r>  0.0000  0.0000  0.0840  0.0838  0.0000  0.0000  0.0000  0.0000  0.0000 </r>
        <r>  0.0000  0.0000  0.0104  0.0104  0.0000  0.0000  0.0000  0.0000  0.0000 </r>
       </set>
       <set comment="band 5">
        <r>  0.2320  0.0000  0.0000  0.0000  0.0000  0.0000  0.0000  0.0000  0.0000 </r>
        <r>  0.0000  0.0339  0.0000  0.0000  0.0000  0.0000  0.0000  0.0000  0.0000 </r>
       </set>
       <set comment="band 6">
        <r>  0.0000  0.7232  0.0000  0.0000  0.0000  0.0000  0.0000  0.0000  0.0000 </r>
        <r>  0.1388  0.0000  0.0000  0.0000  0.0000  0.0000  0.0000  0.0000  0.0000 </r>
       </set>
       <set comment="band 7">
        <r>  0.0000  0.0000  0.0847  0.1806  0.0000  0.0000  0.0000  0.0000  0.0000 </r>
        <r>  0.0000  0.0000  0.0039  0.0082  0.0000  0.0000  0.0000  0.0000  0.0000 </r>
       </set>
      </set>
     </set>
    </set>
   </array>
  </projected>
 </calculation>
 <structure name="finalpos" >
  <crystal>
   <varray name="basis" >
    <v>       0.00000000       2.00008700       2.00008700 </v>
    <v>       2.00008700       0.00000000       2.00008700 </v>
    <v>       2.00008700       2.00008700       0.00000000 </v>
   </varray>
   <i name="volume">     16.00208809 </i>
   <varray name="rec_basis" >
    <v>      -0.24998913       0.24998913       0.24998913 </v>
    <v>       0.24998913      -0.24998913       0.24998913 </v>
    <v>       0.24998913       0.24998913      -0.24998913 </v>
   </varray>
  </crystal>
  <varray name="positions" >
   <v>       0.00000000       0.00000000       0.00000000 </v>
   <v>       0.50000000       0.50000000       0.50000000 </v>
  </varray>
 </structure>
</modeling>
