 vasp.5.3.5 31Mar14 (build Oct 24 2014 12:38:34) complex                        
  
 executed on             LinuxIFC date 2016.10.20  19:24:47
 running on    8 total cores
 distrk:  each k-point on    8 cores,    1 groups
 distr:  one band on NCORES_PER_BAND=   1 cores,    8 groups


--------------------------------------------------------------------------------------------------------


 INCAR:
 POTCAR:    PAW_PBE Ba_sv 06Sep2000               
 POTCAR:    PAW_PBE Ti_pv 07Sep2000               
 POTCAR:    PAW_PBE O 08Apr2002                   

 ----------------------------------------------------------------------------- 
|                                                                             |
|           W    W    AA    RRRRR   N    N  II  N    N   GGGG   !!!           |
|           W    W   A  A   R    R  NN   N  II  NN   N  G    G  !!!           |
|           W    W  A    A  R    R  N N  N  II  N N  N  G       !!!           |
|           W WW W  AAAAAA  RRRRR   N  N N  II  N  N N  G  GGG   !            |
|           WW  WW  A    A  R   R   N   NN  II  N   NN  G    G                |
|           W    W  A    A  R    R  N    N  II  N    N   GGGG   !!!           |
|                                                                             |
|      For optimal performance we recommend to set                            |
|        NCORE= 4 - approx SQRT( number of cores)                             |
|      NCORE specifies how many cores store one orbital (NPAR=cpu/NCORE).     |
|      This setting can  greatly improve the performance of VASP for DFT.     |
|      The default, NPAR=number of cores might be grossly inefficient         |
|      on modern multi-core architectures or massively parallel machines.     |
|      Do your own testing !!!!                                               |
|      Unfortunately you need to use the default for GW and RPA calculations. |
|      (for HF NCORE is supported but not extensively tested yet)             |
|                                                                             |
 ----------------------------------------------------------------------------- 

 POTCAR:    PAW_PBE Ba_sv 06Sep2000               
   VRHFIN =Ba: 5s5p6s                                                           
   LEXCH  = PE                                                                  
   EATOM  =   700.8560 eV,   51.5115 Ry                                         
                                                                                
   TITEL  = PAW_PBE Ba_sv 06Sep2000                                             
   LULTRA =        F    use ultrasoft PP ?                                      
   IUNSCR =        1    unscreen: 0-lin 1-nonlin 2-no                           
   RPACOR =    2.400    partial core radius                                     
   POMASS =  137.327; ZVAL   =   10.000    mass and valenz                      
   RCORE  =    2.800    outmost cutoff radius                                   
   RWIGS  =    3.740; RWIGS  =    1.979    wigner-seitz radius (au A)           
   ENMAX  =  187.181; ENMIN  =  140.386 eV                                      
   RCLOC  =    2.516    cutoff for local pot                                    
   LCOR   =        T    correct aug charges                                     
   LPAW   =        T    paw PP                                                  
   EAUG   =  351.165                                                            
   DEXC   =    0.000                                                            
   RMAX   =    2.865    core radius for proj-oper                               
   RAUG   =    1.300    factor for augmentation sphere                          
   RDEP   =    2.976    radius for radial grids                                 
   RDEPT  =    2.289    core radius for aug-charge                              
                                                                                
   Atomic configuration                                                         
   13 entries                                                                   
     n  l   j            E        occ.                                          
     1  0  0.50    -37249.5946   2.0000                                         
     2  0  0.50     -5887.1925   2.0000                                         
     2  1  1.50     -5278.3977   6.0000                                         
     3  0  0.50     -1242.7293   2.0000                                         
     3  1  1.50     -1047.6609   6.0000                                         
     3  2  2.50      -764.6158  10.0000                                         
     4  0  0.50      -243.8228   2.0000                                         
     4  1  1.50      -180.9218   6.0000                                         
     4  2  2.50       -89.6477  10.0000                                         
     5  0  0.50       -33.6549   2.0000                                         
     6  0  0.50        -3.2247   1.9900                                         
     5  1  1.50       -18.7193   6.0000                                         
     5  2  2.50        -2.0115   0.0100                                         
   Description                                                                  
     l       E           TYP  RCUT    TYP  RCUT                                 
     0    -33.6549039     23  2.800                                             
     0     -3.2246942     23  2.800                                             
     1    -18.7193050     23  2.700                                             
     1     27.2116520     23  2.700                                             
     2     -2.0115002     23  2.700                                             
     2      0.3057420     23  2.700                                             
  local pseudopotential read in
  partial core-charges read in
  partial kinetic energy density read in
  atomic valenz-charges read in
  non local Contribution for L=           0  read in
    real space projection operators read in
  non local Contribution for L=           0  read in
    real space projection operators read in
  non local Contribution for L=           1  read in
    real space projection operators read in
  non local Contribution for L=           1  read in
    real space projection operators read in
  non local Contribution for L=           2  read in
    real space projection operators read in
  non local Contribution for L=           2  read in
    real space projection operators read in
    PAW grid and wavefunctions read in
 
   number of l-projection  operators is LMAX  =           6
   number of lm-projection operators is LMMAX =          18
 
 POTCAR:    PAW_PBE Ti_pv 07Sep2000               
   VRHFIN =Ti: d3 s1                                                            
   LEXCH  = PE                                                                  
   EATOM  =  1042.5995 eV,   76.6289 Ry                                         
                                                                                
   TITEL  = PAW_PBE Ti_pv 07Sep2000                                             
   LULTRA =        F    use ultrasoft PP ?                                      
   IUNSCR =        1    unscreen: 0-lin 1-nonlin 2-no                           
   RPACOR =    2.200    partial core radius                                     
   POMASS =   47.880; ZVAL   =   10.000    mass and valenz                      
   RCORE  =    2.500    outmost cutoff radius                                   
   RWIGS  =    2.500; RWIGS  =    1.323    wigner-seitz radius (au A)           
   ENMAX  =  222.335; ENMIN  =  166.751 eV                                      
   RCLOC  =    1.701    cutoff for local pot                                    
   LCOR   =        T    correct aug charges                                     
   LPAW   =        T    paw PP                                                  
   EAUG   =  482.848                                                            
   DEXC   =    0.000                                                            
   RMAX   =    2.564    core radius for proj-oper                               
   RAUG   =    1.300    factor for augmentation sphere                          
   RDEP   =    2.538    radius for radial grids                                 
   RDEPT  =    1.952    core radius for aug-charge                              
                                                                                
   Atomic configuration                                                         
    8 entries                                                                   
     n  l   j            E        occ.                                          
     1  0  0.50     -4865.3608   2.0000                                         
     2  0  0.50      -533.1368   2.0000                                         
     2  1  1.50      -440.5031   6.0000                                         
     3  0  0.50       -59.3186   2.0000                                         
     3  1  1.50       -35.7012   6.0000                                         
     3  2  2.50        -1.9157   3.0000                                         
     4  0  0.50        -3.7291   1.0000                                         
     4  3  2.50        -1.3606   0.0000                                         
   Description                                                                  
     l       E           TYP  RCUT    TYP  RCUT                                 
     1    -35.7012140     23  2.300                                             
     1     -1.3605826     23  2.300                                             
     2     -1.9156996     23  2.500                                             
     2     -0.4063033     23  2.500                                             
     0     -3.7290856     23  2.500                                             
     0     20.4087390     23  2.500                                             
  local pseudopotential read in
  partial core-charges read in
  partial kinetic energy density read in
  atomic valenz-charges read in
  non local Contribution for L=           1  read in
    real space projection operators read in
  non local Contribution for L=           1  read in
    real space projection operators read in
  non local Contribution for L=           2  read in
    real space projection operators read in
  non local Contribution for L=           2  read in
    real space projection operators read in
  non local Contribution for L=           0  read in
    real space projection operators read in
  non local Contribution for L=           0  read in
    real space projection operators read in
    PAW grid and wavefunctions read in
 
   number of l-projection  operators is LMAX  =           6
   number of lm-projection operators is LMMAX =          18
 
 POTCAR:    PAW_PBE O 08Apr2002                   
   VRHFIN =O: s2p4                                                              
   LEXCH  = PE                                                                  
   EATOM  =   432.3788 eV,   31.7789 Ry                                         
                                                                                
   TITEL  = PAW_PBE O 08Apr2002                                                 
   LULTRA =        F    use ultrasoft PP ?                                      
   IUNSCR =        1    unscreen: 0-lin 1-nonlin 2-no                           
   RPACOR =    1.200    partial core radius                                     
   POMASS =   16.000; ZVAL   =    6.000    mass and valenz                      
   RCORE  =    1.520    outmost cutoff radius                                   
   RWIGS  =    1.550; RWIGS  =    0.820    wigner-seitz radius (au A)           
   ENMAX  =  400.000; ENMIN  =  300.000 eV                                      
   ICORE  =        2    local potential                                         
   LCOR   =        T    correct aug charges                                     
   LPAW   =        T    paw PP                                                  
   EAUG   =  605.392                                                            
   DEXC   =    0.000                                                            
   RMAX   =    1.553    core radius for proj-oper                               
   RAUG   =    1.300    factor for augmentation sphere                          
   RDEP   =    1.550    radius for radial grids                                 
   RDEPT  =    1.329    core radius for aug-charge                              
                                                                                
   Atomic configuration                                                         
    4 entries                                                                   
     n  l   j            E        occ.                                          
     1  0  0.50      -514.6923   2.0000                                         
     2  0  0.50       -23.9615   2.0000                                         
     2  1  0.50        -9.0305   4.0000                                         
     3  2  1.50        -9.5241   0.0000                                         
   Description                                                                  
     l       E           TYP  RCUT    TYP  RCUT                                 
     0    -23.9615318     23  1.200                                             
     0     -9.5240782     23  1.200                                             
     1     -9.0304911     23  1.520                                             
     1      8.1634956     23  1.520                                             
     2     -9.5240782      7  1.500                                             
  local pseudopotential read in
  partial core-charges read in
  partial kinetic energy density read in
  kinetic energy density of atom read in
  atomic valenz-charges read in
  non local Contribution for L=           0  read in
    real space projection operators read in
  non local Contribution for L=           0  read in
    real space projection operators read in
  non local Contribution for L=           1  read in
    real space projection operators read in
  non local Contribution for L=           1  read in
    real space projection operators read in
    PAW grid and wavefunctions read in
 
   number of l-projection  operators is LMAX  =           4
   number of lm-projection operators is LMMAX =           8
 

 ----------------------------------------------------------------------------- 
|                                                                             |
|  ADVICE TO THIS USER RUNNING 'VASP/VAMP'   (HEAR YOUR MASTER'S VOICE ...):  |
|                                                                             |
|      You have a (more or less) 'small supercell' and for smaller cells      |
|      it is recommended  to use the reciprocal-space projection scheme!      |
|      The real space optimization is not  efficient for small cells and it   |
|      is also less accurate ...                                              |
|      Therefore set LREAL=.FALSE. in the  INCAR file                         |
|                                                                             |
 ----------------------------------------------------------------------------- 

 Optimization of the real space projectors (new method)

 maximal supplied QI-value         = 13.42
 optimisation between [QCUT,QGAM] = [ 11.67, 23.35] = [ 38.16,152.62] Ry 
 Optimized for a Real-space Cutoff    1.68 Angstroem

   l    n(q)    QCUT    max X(q) W(low)/X(q) W(high)/X(q)  e(spline) 
   0     12    11.673    13.244    0.27E-04    0.53E-05    0.55E-07
   0     12    11.673    14.240    0.39E-04    0.74E-05    0.11E-06
   1     11    11.673     4.828    0.65E-05    0.14E-04    0.51E-07
   1     11    11.673     3.934    0.16E-04    0.58E-04    0.38E-06
   2     11    11.673    87.714    0.23E-03    0.16E-03    0.84E-06
   2     11    11.673    59.874    0.22E-03    0.15E-03    0.81E-06
 Optimization of the real space projectors (new method)

 maximal supplied QI-value         = 15.12
 optimisation between [QCUT,QGAM] = [ 11.64, 23.28] = [ 37.95,151.78] Ry 
 Optimized for a Real-space Cutoff    1.49 Angstroem

   l    n(q)    QCUT    max X(q) W(low)/X(q) W(high)/X(q)  e(spline) 
   1     10    11.641     4.216    0.17E-04    0.40E-04    0.50E-07
   1     10    11.641     5.422    0.66E-04    0.10E-03    0.13E-06
   2      9    11.641    72.084    0.68E-04    0.13E-03    0.50E-06
   2      9    11.641    65.965    0.66E-04    0.13E-03    0.50E-06
   0     10    11.641    41.531    0.10E-03    0.87E-04    0.31E-06
   0     10    11.641    16.290    0.75E-04    0.66E-04    0.24E-06
 Optimization of the real space projectors (new method)

 maximal supplied QI-value         = 24.76
 optimisation between [QCUT,QGAM] = [ 11.64, 23.27] = [ 37.91,151.63] Ry 
 Optimized for a Real-space Cutoff    1.14 Angstroem

   l    n(q)    QCUT    max X(q) W(low)/X(q) W(high)/X(q)  e(spline) 
   0      8    11.635    20.381    0.10E-03    0.33E-03    0.24E-06
   0      8    11.635    15.268    0.11E-03    0.35E-03    0.26E-06
   1      7    11.635     5.964    0.24E-03    0.31E-03    0.30E-06
   1      7    11.635     5.382    0.22E-03    0.25E-03    0.26E-06
  PAW_PBE Ba_sv 06Sep2000               :
 energy of atom  1       EATOM= -700.8560
 kinetic energy error for atom=    0.0005 (will be added to EATOM!!)
  PAW_PBE Ti_pv 07Sep2000               :
 energy of atom  2       EATOM=-1042.5995
 kinetic energy error for atom=    0.0019 (will be added to EATOM!!)
  PAW_PBE O 08Apr2002                   :
 energy of atom  3       EATOM= -432.3788
 kinetic energy error for atom=    0.0208 (will be added to EATOM!!)
 
 
 POSCAR: Ba1 Ti1 O3                              
  positions in direct lattice
  velocities in cartesian coordinates
 exchange correlation table for  LEXCH =        8
   RHO(1)=    0.500       N(1)  =     2000
   RHO(2)=  100.500       N(2)  =     4000
 


--------------------------------------------------------------------------------------------------------


 ion  position               nearest neighbor table
   1  0.000  0.000  0.011-   3 2.84   4 2.84   3 2.84   4 2.84   5 2.84   5 2.84   5 2.84   5 2.84
                             3 2.91   4 2.91   4 2.91   3 2.91   2 3.49   2 3.49   2 3.49   2 3.49
   2  0.500  0.500  0.519-   5 1.93   4 2.01   3 2.01   4 2.01   3 2.01   5 2.18   1 3.49   1 3.49
                             1 3.49   1 3.49   1 3.53   1 3.53   1 3.53   1 3.53
   3  0.000  0.500  0.498-   2 2.01   2 2.01   1 2.84   1 2.84   1 2.91   1 2.91
   4  0.500  0.000  0.498-   2 2.01   2 2.01   1 2.84   1 2.84   1 2.91   1 2.91
   5  0.500  0.500  0.989-   2 1.93   2 2.18   1 2.84   1 2.84   1 2.84   1 2.84
 
  LATTYP: Found a simple tetragonal cell.
 ALAT       =     4.0189660000
 C/A-ratio  =     1.0237070928
  
  Lattice vectors:
  
 A1 = (   4.0189660000,   0.0000000000,   0.0000000000)
 A2 = (   0.0000000000,   4.0189660000,   0.0000000000)
 A3 = (   0.0000000000,   0.0000000000,   4.1142440000)


Analysis of symmetry for initial positions (statically):
=====================================================================
 Subroutine PRICEL returns:
 Original cell was already a primitive cell.
 

 Routine SETGRP: Setting up the symmetry group for a 
 simple tetragonal supercell.


 Subroutine GETGRP returns: Found  8 space group operations
 (whereof  8 operations were pure point group operations)
 out of a pool of 16 trial point group operations.


The static configuration has the point symmetry C_4v.


Analysis of symmetry for dynamics (positions and initial velocities):
=====================================================================
 Subroutine PRICEL returns:
 Original cell was already a primitive cell.
 

 Routine SETGRP: Setting up the symmetry group for a 
 simple tetragonal supercell.


 Subroutine GETGRP returns: Found  8 space group operations
 (whereof  8 operations were pure point group operations)
 out of a pool of 16 trial point group operations.


The dynamic configuration has the point symmetry C_4v.


Analysis of magnetic symmetry:
=====================================================================
 Subroutine PRICEL returns:
 Original cell was already a primitive cell.
 

 Subroutine MAGSYM returns: Found  8 space group operations
 (whereof  8 operations were pure point group operations)
 out of a pool of  8 trial space group operations
 (whereof  8 operations were pure point group operations)
 and found also     1 'primitive' translations


The magnetic configuration has the point symmetry C_4v.
 
 
 KPOINTS: pymatgen generated KPOINTS with grid den

Automatic generation of k-mesh.
Space group operators:
 irot       det(A)        alpha          n_x          n_y          n_z        tau_x        tau_y        tau_z
    1     1.000000     0.000000     1.000000     0.000000     0.000000     0.000000     0.000000     0.000000
    2     1.000000    90.000000     0.000000     0.000000    -1.000000     0.000000     0.000000     0.000000
    3     1.000000   180.000000     0.000000     0.000000     1.000000     0.000000     0.000000     0.000000
    4     1.000000    90.000000     0.000000     0.000000     1.000000     0.000000     0.000000     0.000000
    5    -1.000000   180.000000     0.000000     1.000000     0.000000     0.000000     0.000000     0.000000
    6    -1.000000   180.000000     0.707107     0.707107     0.000000     0.000000     0.000000     0.000000
    7    -1.000000   180.000000     1.000000     0.000000     0.000000     0.000000     0.000000     0.000000
    8    -1.000000   180.000000     0.707107    -0.707107     0.000000     0.000000     0.000000     0.000000
 
 Subroutine IBZKPT returns following result:
 ===========================================
 
 Found     40 irreducible k-points:
 
 Following reciprocal coordinates:
            Coordinates               Weight
  0.062500  0.062500  0.062500      8.000000
  0.187500  0.062500  0.062500     16.000000
  0.312500  0.062500  0.062500     16.000000
  0.437500  0.062500  0.062500     16.000000
  0.187500  0.187500  0.062500      8.000000
  0.312500  0.187500  0.062500     16.000000
  0.437500  0.187500  0.062500     16.000000
  0.312500  0.312500  0.062500      8.000000
  0.437500  0.312500  0.062500     16.000000
  0.437500  0.437500  0.062500      8.000000
  0.062500  0.062500  0.187500      8.000000
  0.187500  0.062500  0.187500     16.000000
  0.312500  0.062500  0.187500     16.000000
  0.437500  0.062500  0.187500     16.000000
  0.187500  0.187500  0.187500      8.000000
  0.312500  0.187500  0.187500     16.000000
  0.437500  0.187500  0.187500     16.000000
  0.312500  0.312500  0.187500      8.000000
  0.437500  0.312500  0.187500     16.000000
  0.437500  0.437500  0.187500      8.000000
  0.062500  0.062500  0.312500      8.000000
  0.187500  0.062500  0.312500     16.000000
  0.312500  0.062500  0.312500     16.000000
  0.437500  0.062500  0.312500     16.000000
  0.187500  0.187500  0.312500      8.000000
  0.312500  0.187500  0.312500     16.000000
  0.437500  0.187500  0.312500     16.000000
  0.312500  0.312500  0.312500      8.000000
  0.437500  0.312500  0.312500     16.000000
  0.437500  0.437500  0.312500      8.000000
  0.062500  0.062500  0.437500      8.000000
  0.187500  0.062500  0.437500     16.000000
  0.312500  0.062500  0.437500     16.000000
  0.437500  0.062500  0.437500     16.000000
  0.187500  0.187500  0.437500      8.000000
  0.312500  0.187500  0.437500     16.000000
  0.437500  0.187500  0.437500     16.000000
  0.312500  0.312500  0.437500      8.000000
  0.437500  0.312500  0.437500     16.000000
  0.437500  0.437500  0.437500      8.000000
 
 Following cartesian coordinates:
            Coordinates               Weight
  0.015551  0.015551  0.015191      8.000000
  0.046654  0.015551  0.015191     16.000000
  0.077756  0.015551  0.015191     16.000000
  0.108859  0.015551  0.015191     16.000000
  0.046654  0.046654  0.015191      8.000000
  0.077756  0.046654  0.015191     16.000000
  0.108859  0.046654  0.015191     16.000000
  0.077756  0.077756  0.015191      8.000000
  0.108859  0.077756  0.015191     16.000000
  0.108859  0.108859  0.015191      8.000000
  0.015551  0.015551  0.045573      8.000000
  0.046654  0.015551  0.045573     16.000000
  0.077756  0.015551  0.045573     16.000000
  0.108859  0.015551  0.045573     16.000000
  0.046654  0.046654  0.045573      8.000000
  0.077756  0.046654  0.045573     16.000000
  0.108859  0.046654  0.045573     16.000000
  0.077756  0.077756  0.045573      8.000000
  0.108859  0.077756  0.045573     16.000000
  0.108859  0.108859  0.045573      8.000000
  0.015551  0.015551  0.075956      8.000000
  0.046654  0.015551  0.075956     16.000000
  0.077756  0.015551  0.075956     16.000000
  0.108859  0.015551  0.075956     16.000000
  0.046654  0.046654  0.075956      8.000000
  0.077756  0.046654  0.075956     16.000000
  0.108859  0.046654  0.075956     16.000000
  0.077756  0.077756  0.075956      8.000000
  0.108859  0.077756  0.075956     16.000000
  0.108859  0.108859  0.075956      8.000000
  0.015551  0.015551  0.106338      8.000000
  0.046654  0.015551  0.106338     16.000000
  0.077756  0.015551  0.106338     16.000000
  0.108859  0.015551  0.106338     16.000000
  0.046654  0.046654  0.106338      8.000000
  0.077756  0.046654  0.106338     16.000000
  0.108859  0.046654  0.106338     16.000000
  0.077756  0.077756  0.106338      8.000000
  0.108859  0.077756  0.106338     16.000000
  0.108859  0.108859  0.106338      8.000000
 
 TETIRR: Found    703 inequivalent tetrahedra from     3072


--------------------------------------------------------------------------------------------------------




 Dimension of arrays:
   k-points           NKPTS =     40   k-points in BZ     NKDIM =     40   number of bands    NBANDS=     32
   number of dos      NEDOS =    301   number of ions     NIONS =      5
   non local maximal  LDIM  =      6   non local SUM 2l+1 LMDIM =     18
   total plane-waves  NPLWV =  28800
   max r-space proj   IRMAX =   8597   max aug-charges    IRDMAX=  27325
   dimension x,y,z NGX =    30 NGY =   30 NGZ =   32
   dimension x,y,z NGXF=    60 NGYF=   60 NGZF=   64
   support grid    NGXF=    60 NGYF=   60 NGZF=   64
   ions per type =               1   1   3
 NGX,Y,Z   is equivalent  to a cutoff of  12.41, 12.41, 12.93 a.u.
 NGXF,Y,Z  is equivalent  to a cutoff of  24.82, 24.82, 25.86 a.u.


 I would recommend the setting:
   dimension x,y,z NGX =    30 NGY =   30 NGZ =   31
 SYSTEM =  unknown system                          
 POSCAR =  Ba1 Ti1 O3                              

 Startparameter for this run:
   NWRITE =      2    write-flag & timer
   PREC   = accura    normal or accurate (medium, high low for compatibility)
   ISTART =      0    job   : 0-new  1-cont  2-samecut
   ICHARG =      0    charge: 1-file 2-atom 10-const
   ISPIN  =      2    spin polarized calculation?
   LNONCOLLINEAR =      F non collinear calculations
   LSORBIT =      F    spin-orbit coupling
   INIWAV =      1    electr: 0-lowe 1-rand  2-diag
   LASPH  =      F    aspherical Exc in radial PAW
   METAGGA=      F    non-selfconsistent MetaGGA calc.

 Electronic Relaxation 1
   ENCUT  =  520.0 eV  38.22 Ry    6.18 a.u.   7.47  7.47  7.65*2*pi/ulx,y,z
   ENINI  =  520.0     initial cutoff
   ENAUG  =  605.4 eV  augmentation charge cutoff
   NELM   =    100;   NELMIN=  2; NELMDL= -5     # of ELM steps 
   EDIFF  = 0.3E-03   stopping-criterion for ELM
   LREAL  =      T    real-space projection
   NLSPLINE    = F    spline interpolate recip. space projectors
   LCOMPAT=      F    compatible to vasp.4.4
   GGA_COMPAT  = T    GGA compatible to vasp.4.4-vasp.4.6
   LMAXPAW     = -100 max onsite density
   LMAXMIX     =    2 max onsite mixed and CHGCAR
   VOSKOWN=      0    Vosko Wilk Nusair interpolation
   ROPT   =   -0.00025  -0.00025  -0.00025
 Ionic relaxation
   EDIFFG = 0.3E-02   stopping-criterion for IOM
   NSW    =      0    number of steps for IOM
   NBLOCK =      1;   KBLOCK =      1    inner block; outer block 
   IBRION =     -1    ionic relax: 0-MD 1-quasi-New 2-CG
   NFREE  =      0    steps in history (QN), initial steepest desc. (CG)
   ISIF   =      3    stress and relaxation
   IWAVPR =     10    prediction:  0-non 1-charg 2-wave 3-comb
   ISYM   =      2    0-nonsym 1-usesym 2-fastsym
   LCORR  =      T    Harris-Foulkes like correction to forces

   POTIM  = 0.5000    time-step for ionic-motion
   TEIN   =    0.0    initial temperature
   TEBEG  =    0.0;   TEEND  =   0.0 temperature during run
   SMASS  =  -3.00    Nose mass-parameter (am)
   estimated Nose-frequenzy (Omega)   =  0.10E-29 period in steps =****** mass=  -0.369E-27a.u.
   SCALEE = 1.0000    scale energy and forces
   NPACO  =    256;   APACO  = 16.0  distance and # of slots for P.C.
   PSTRESS=    0.0 pullay stress

  Mass of Ions in am
   POMASS = 137.33 47.88 16.00
  Ionic Valenz
   ZVAL   =  10.00 10.00  6.00
  Atomic Wigner-Seitz radii
   RWIGS  =  -1.00 -1.00 -1.00
  virtual crystal weights 
   VCA    =   1.00  1.00  1.00
   NELECT =      38.0000    total number of electrons
   NUPDOWN=      -1.0000    fix difference up-down

 DOS related values:
   EMIN   =  10.00;   EMAX   =-10.00  energy-range for DOS
   EFERMI =   0.00
   ISMEAR =    -5;   SIGMA  =   0.05  broadening in eV -4-tet -1-fermi 0-gaus

 Electronic relaxation 2 (details)
   IALGO  =     38    algorithm
   LDIAG  =      T    sub-space diagonalisation (order eigenvalues)
   LSUBROT=      F    optimize rotation matrix (better conditioning)
   TURBO    =      0    0=normal 1=particle mesh
   IRESTART =      0    0=no restart 2=restart with 2 vectors
   NREBOOT  =      0    no. of reboots
   NMIN     =      0    reboot dimension
   EREF     =   0.00    reference energy to select bands
   IMIX   =      4    mixing-type and parameters
     AMIX     =   0.40;   BMIX     =  1.00
     AMIX_MAG =   1.60;   BMIX_MAG =  1.00
     AMIN     =   0.10
     WC   =   100.;   INIMIX=   1;  MIXPRE=   1;  MAXMIX= -45

 Intra band minimization:
   WEIMIN = 0.0000     energy-eigenvalue tresh-hold
   EBREAK =  0.20E-05  absolut break condition
   DEPER  =   0.30     relativ break condition  

   TIME   =   0.40     timestep for ELM

  volume/ion in A,a.u.               =      13.29        89.69
  Fermi-wavevector in a.u.,A,eV,Ry     =   1.358824  2.567805 25.121824  1.846402
  Thomas-Fermi vector in A             =   2.485624
 
 Write flags
   LWAVE  =      T    write WAVECAR
   LCHARG =      T    write CHGCAR
   LVTOT  =      F    write LOCPOT, total local potential
   LVHAR  =      T    write LOCPOT, Hartree potential only
   LELF   =      F    write electronic localiz. function (ELF)
   LORBIT =     11    0 simple, 1 ext, 2 COOP (PROOUT)


 Dipole corrections
   LMONO  =      F    monopole corrections only (constant potential shift)
   LDIPOL =      F    correct potential (dipole corrections)
   IDIPOL =      0    1-x, 2-y, 3-z, 4-all directions 
   EPSILON=  1.0000000 bulk dielectric constant

 Exchange correlation treatment:
   GGA     =    --    GGA type
   LEXCH   =     8    internal setting for exchange type
   VOSKOWN=      0    Vosko Wilk Nusair interpolation
   LHFCALC =     F    Hartree Fock is set to
   LHFONE  =     F    Hartree Fock one center treatment
   AEXX    =    0.0000 exact exchange contribution

 Linear response parameters
   LEPSILON=     F    determine dielectric tensor
   LRPA    =     F    only Hartree local field effects (RPA)
   LNABLA  =     F    use nabla operator in PAW spheres
   LVEL    =     F    velocity operator in full k-point grid
   LINTERFAST=   F  fast interpolation
   KINTER  =     0    interpolate to denser k-point grid
   CSHIFT  =0.1000    complex shift for real part using Kramers Kronig
   OMEGAMAX=  -1.0    maximum frequency
   DEG_THRESHOLD= 0.2000000E-02 threshold for treating states as degnerate
   RTIME   =    0.100 relaxation time in fs

 Orbital magnetization related:
   ORBITALMAG=     F  switch on orbital magnetization
   LCHIMAG   =     F  perturbation theory with respect to B field
   DQ        =  0.001000  dq finite difference perturbation B field



--------------------------------------------------------------------------------------------------------


 Static calculation
 charge density and potential will be updated during run
 spin polarized calculation
 Variant of blocked Davidson
 Davidson routine will perform the subspace rotation
 perform sub-space diagonalisation
    after iterative eigenvector-optimisation
 modified Broyden-mixing scheme, WC =      100.0
 initial mixing is a Kerker type mixing with AMIX =  0.4000 and BMIX =      1.0000
 Hartree-type preconditioning will be used
 using additional bands           13
 real space projection scheme for non local part
 use partial core corrections
 calculate Harris-corrections to forces 
   (improved forces if not selfconsistent)
 use gradient corrections 
 use of overlap-Matrix (Vanderbilt PP)
 Fermi weights with tetrahedron method with Bloechl corrections


--------------------------------------------------------------------------------------------------------


  energy-cutoff  :      520.00
  volume of cell :       66.45
      direct lattice vectors                 reciprocal lattice vectors
     4.018966000  0.000000000  0.000000000     0.248820219  0.000000000  0.000000000
     0.000000000  4.018966000  0.000000000     0.000000000  0.248820219  0.000000000
     0.000000000  0.000000000  4.114244000     0.000000000  0.000000000  0.243058020

  length of vectors
     4.018966000  4.018966000  4.114244000     0.248820219  0.248820219  0.243058020


 
 k-points in units of 2pi/SCALE and weight: pymatgen generated KPOINTS with grid den
   0.01555126  0.01555126  0.01519113       0.016
   0.04665379  0.01555126  0.01519113       0.031
   0.07775632  0.01555126  0.01519113       0.031
   0.10885885  0.01555126  0.01519113       0.031
   0.04665379  0.04665379  0.01519113       0.016
   0.07775632  0.04665379  0.01519113       0.031
   0.10885885  0.04665379  0.01519113       0.031
   0.07775632  0.07775632  0.01519113       0.016
   0.10885885  0.07775632  0.01519113       0.031
   0.10885885  0.10885885  0.01519113       0.016
   0.01555126  0.01555126  0.04557338       0.016
   0.04665379  0.01555126  0.04557338       0.031
   0.07775632  0.01555126  0.04557338       0.031
   0.10885885  0.01555126  0.04557338       0.031
   0.04665379  0.04665379  0.04557338       0.016
   0.07775632  0.04665379  0.04557338       0.031
   0.10885885  0.04665379  0.04557338       0.031
   0.07775632  0.07775632  0.04557338       0.016
   0.10885885  0.07775632  0.04557338       0.031
   0.10885885  0.10885885  0.04557338       0.016
   0.01555126  0.01555126  0.07595563       0.016
   0.04665379  0.01555126  0.07595563       0.031
   0.07775632  0.01555126  0.07595563       0.031
   0.10885885  0.01555126  0.07595563       0.031
   0.04665379  0.04665379  0.07595563       0.016
   0.07775632  0.04665379  0.07595563       0.031
   0.10885885  0.04665379  0.07595563       0.031
   0.07775632  0.07775632  0.07595563       0.016
   0.10885885  0.07775632  0.07595563       0.031
   0.10885885  0.10885885  0.07595563       0.016
   0.01555126  0.01555126  0.10633788       0.016
   0.04665379  0.01555126  0.10633788       0.031
   0.07775632  0.01555126  0.10633788       0.031
   0.10885885  0.01555126  0.10633788       0.031
   0.04665379  0.04665379  0.10633788       0.016
   0.07775632  0.04665379  0.10633788       0.031
   0.10885885  0.04665379  0.10633788       0.031
   0.07775632  0.07775632  0.10633788       0.016
   0.10885885  0.07775632  0.10633788       0.031
   0.10885885  0.10885885  0.10633788       0.016
 
 k-points in reciprocal lattice and weights: pymatgen generated KPOINTS with grid den
   0.06250000  0.06250000  0.06250000       0.016
   0.18750000  0.06250000  0.06250000       0.031
   0.31250000  0.06250000  0.06250000       0.031
   0.43750000  0.06250000  0.06250000       0.031
   0.18750000  0.18750000  0.06250000       0.016
   0.31250000  0.18750000  0.06250000       0.031
   0.43750000  0.18750000  0.06250000       0.031
   0.31250000  0.31250000  0.06250000       0.016
   0.43750000  0.31250000  0.06250000       0.031
   0.43750000  0.43750000  0.06250000       0.016
   0.06250000  0.06250000  0.18750000       0.016
   0.18750000  0.06250000  0.18750000       0.031
   0.31250000  0.06250000  0.18750000       0.031
   0.43750000  0.06250000  0.18750000       0.031
   0.18750000  0.18750000  0.18750000       0.016
   0.31250000  0.18750000  0.18750000       0.031
   0.43750000  0.18750000  0.18750000       0.031
   0.31250000  0.31250000  0.18750000       0.016
   0.43750000  0.31250000  0.18750000       0.031
   0.43750000  0.43750000  0.18750000       0.016
   0.06250000  0.06250000  0.31250000       0.016
   0.18750000  0.06250000  0.31250000       0.031
   0.31250000  0.06250000  0.31250000       0.031
   0.43750000  0.06250000  0.31250000       0.031
   0.18750000  0.18750000  0.31250000       0.016
   0.31250000  0.18750000  0.31250000       0.031
   0.43750000  0.18750000  0.31250000       0.031
   0.31250000  0.31250000  0.31250000       0.016
   0.43750000  0.31250000  0.31250000       0.031
   0.43750000  0.43750000  0.31250000       0.016
   0.06250000  0.06250000  0.43750000       0.016
   0.18750000  0.06250000  0.43750000       0.031
   0.31250000  0.06250000  0.43750000       0.031
   0.43750000  0.06250000  0.43750000       0.031
   0.18750000  0.18750000  0.43750000       0.016
   0.31250000  0.18750000  0.43750000       0.031
   0.43750000  0.18750000  0.43750000       0.031
   0.31250000  0.31250000  0.43750000       0.016
   0.43750000  0.31250000  0.43750000       0.031
   0.43750000  0.43750000  0.43750000       0.016
 
 position of ions in fractional coordinates (direct lattice) 
   0.00000000  0.00000000  0.01056600
   0.50000000  0.50000000  0.51882300
   0.00000000  0.50000000  0.49801000
   0.50000000  0.00000000  0.49801000
   0.50000000  0.50000000  0.98859100
 
 position of ions in cartesian coordinates  (Angst):
   0.00000000  0.00000000  0.04347110
   2.00948300  2.00948300  2.13456441
   0.00000000  2.00948300  2.04893465
   2.00948300  0.00000000  2.04893465
   2.00948300  2.00948300  4.06730459
 


--------------------------------------------------------------------------------------------------------


 k-point  1 :   0.0625 0.0625 0.0625  plane waves:    1808
 k-point  2 :   0.1875 0.0625 0.0625  plane waves:    1798
 k-point  3 :   0.3125 0.0625 0.0625  plane waves:    1792
 k-point  4 :   0.4375 0.0625 0.0625  plane waves:    1790
 k-point  5 :   0.1875 0.1875 0.0625  plane waves:    1792
 k-point  6 :   0.3125 0.1875 0.0625  plane waves:    1795
 k-point  7 :   0.4375 0.1875 0.0625  plane waves:    1792
 k-point  8 :   0.3125 0.3125 0.0625  plane waves:    1797
 k-point  9 :   0.4375 0.3125 0.0625  plane waves:    1787
 k-point 10 :   0.4375 0.4375 0.0625  plane waves:    1778
 k-point 11 :   0.0625 0.0625 0.1875  plane waves:    1805
 k-point 12 :   0.1875 0.0625 0.1875  plane waves:    1794
 k-point 13 :   0.3125 0.0625 0.1875  plane waves:    1794
 k-point 14 :   0.4375 0.0625 0.1875  plane waves:    1784
 k-point 15 :   0.1875 0.1875 0.1875  plane waves:    1791
 k-point 16 :   0.3125 0.1875 0.1875  plane waves:    1797
 k-point 17 :   0.4375 0.1875 0.1875  plane waves:    1780
 k-point 18 :   0.3125 0.3125 0.1875  plane waves:    1796
 k-point 19 :   0.4375 0.3125 0.1875  plane waves:    1778
 k-point 20 :   0.4375 0.4375 0.1875  plane waves:    1782
 k-point 21 :   0.0625 0.0625 0.3125  plane waves:    1796
 k-point 22 :   0.1875 0.0625 0.3125  plane waves:    1793
 k-point 23 :   0.3125 0.0625 0.3125  plane waves:    1792
 k-point 24 :   0.4375 0.0625 0.3125  plane waves:    1785
 k-point 25 :   0.1875 0.1875 0.3125  plane waves:    1790
 k-point 26 :   0.3125 0.1875 0.3125  plane waves:    1788
 k-point 27 :   0.4375 0.1875 0.3125  plane waves:    1780
 k-point 28 :   0.3125 0.3125 0.3125  plane waves:    1785
 k-point 29 :   0.4375 0.3125 0.3125  plane waves:    1784
 k-point 30 :   0.4375 0.4375 0.3125  plane waves:    1782
 k-point 31 :   0.0625 0.0625 0.4375  plane waves:    1794
 k-point 32 :   0.1875 0.0625 0.4375  plane waves:    1798
 k-point 33 :   0.3125 0.0625 0.4375  plane waves:    1796
 k-point 34 :   0.4375 0.0625 0.4375  plane waves:    1770
 k-point 35 :   0.1875 0.1875 0.4375  plane waves:    1784
 k-point 36 :   0.3125 0.1875 0.4375  plane waves:    1787
 k-point 37 :   0.4375 0.1875 0.4375  plane waves:    1785
 k-point 38 :   0.3125 0.3125 0.4375  plane waves:    1780
 k-point 39 :   0.4375 0.3125 0.4375  plane waves:    1791
 k-point 40 :   0.4375 0.4375 0.4375  plane waves:    1798

 maximum and minimum number of plane-waves per node :      1808     1770

 maximum number of plane-waves:      1808
 maximum index in each direction: 
   IXMAX=    7   IYMAX=    7   IZMAX=    7
   IXMIN=   -7   IYMIN=   -7   IZMIN=   -8

 NGX is ok and might be reduce to  30
 NGY is ok and might be reduce to  30
 NGZ is ok and might be reduce to  32

 serial   3D FFT for wavefunctions
 parallel 3D FFT for charge:
    minimum data exchange during FFTs selected (reduces bandwidth)


 total amount of memory used by VASP on root node    49524. kBytes
========================================================================

   base      :      30000. kBytes
   nonlr-proj:       3518. kBytes
   fftplans  :       1162. kBytes
   grid      :       5105. kBytes
   one-center:        155. kBytes
   wavefun   :       9584. kBytes
 
     INWAV:  cpu time    0.00: real time    0.00
 Broyden mixing: mesh for mixing (old mesh)
   NGX = 15   NGY = 15   NGZ = 15
  (NGX  = 60   NGY  = 60   NGZ  = 64)
  gives a total of   3375 points

 charge density for first step will be calculated from the start-wavefunctions


--------------------------------------------------------------------------------------------------------


 Maximum index for non-local projection operator         8310
 Maximum index for augmentation-charges         3859 (set IRDMAX)


--------------------------------------------------------------------------------------------------------


 initial charge from wavefunction
 First call to EWALD:  gamma=   0.438
 Maximum number of real-space cells 3x 3x 3
 Maximum number of reciprocal cells 3x 3x 3

 FEWALD executed in parallel
    FEWALD:  cpu time    0.00: real time    0.00


----------------------------------------- Iteration    1(   1)  ---------------------------------------


    POTLOK:  cpu time    0.09: real time    0.09
    SETDIJ:  cpu time    0.02: real time    0.02
     EDDAV:  cpu time   10.14: real time   10.14
 BZINTS: Fermi energy:-25.110874; 38.000000 electrons
         Band energy:***********;  BLOECHL correction: -1.369883
       DOS:  cpu time    0.10: real time    0.10
    --------------------------------------------
      LOOP:  cpu time   10.34: real time   10.35

 eigenvalue-minimisations  :  6272
 total energy-change (2. order) :-0.8924913E+03  (-0.3431282E+04)
 number of electron      37.9999998 magnetization       0.0000000
 augmentation part       -1.1982046 magnetization       0.0378234

 Free energy of the ion-electron system (eV)
  ---------------------------------------------------
  alpha Z        PSCENC =       252.14934681
  Ewald energy   TEWEN  =     -2493.57441055
  -Hartree energ DENC   =       -61.10090743
  -exchange      EXHF   =         0.00000000
  -V(xc)+E(xc)   XCENC  =       115.40070592
  PAW double counting   =    114037.56361341  -114037.01416899
  entropy T*S    EENTRO =         0.00000000
  eigenvalues    EBANDS =     -1746.44245296
  atomic energy  EATOM  =      3040.52701931
  ---------------------------------------------------
  free energy    TOTEN  =      -892.49125448 eV

  energy without entropy =     -892.49125448  energy(sigma->0) =     -892.49125448


--------------------------------------------------------------------------------------------------------




----------------------------------------- Iteration    1(   2)  ---------------------------------------


     EDDAV:  cpu time    8.69: real time    8.69
 BZINTS: Fermi energy:-42.343330; 38.000000 electrons
         Band energy:***********;  BLOECHL correction: -0.017133
       DOS:  cpu time    0.10: real time    0.10
    --------------------------------------------
      LOOP:  cpu time    8.79: real time    8.83

 eigenvalue-minimisations  :  5168
 total energy-change (2. order) :-0.4122929E+03  (-0.3945918E+03)
 number of electron      37.9999998 magnetization       0.0000000
 augmentation part       -1.1982046 magnetization       0.0378234

 Free energy of the ion-electron system (eV)
  ---------------------------------------------------
  alpha Z        PSCENC =       252.14934681
  Ewald energy   TEWEN  =     -2493.57441055
  -Hartree energ DENC   =       -61.10090743
  -exchange      EXHF   =         0.00000000
  -V(xc)+E(xc)   XCENC  =       115.40070592
  PAW double counting   =    114037.56361341  -114037.01416899
  entropy T*S    EENTRO =         0.00000000
  eigenvalues    EBANDS =     -2158.73537029
  atomic energy  EATOM  =      3040.52701931
  ---------------------------------------------------
  free energy    TOTEN  =     -1304.78417181 eV

  energy without entropy =    -1304.78417181  energy(sigma->0) =    -1304.78417181


--------------------------------------------------------------------------------------------------------




----------------------------------------- Iteration    1(   3)  ---------------------------------------


     EDDAV:  cpu time   10.09: real time   10.09
 BZINTS: Fermi energy:-43.182851; 38.000000 electrons
         Band energy:***********;  BLOECHL correction:  0.000000
       DOS:  cpu time    0.01: real time    0.01
    --------------------------------------------
      LOOP:  cpu time   10.11: real time   10.11

 eigenvalue-minimisations  :  6216
 total energy-change (2. order) :-0.2588126E+02  (-0.2565193E+02)
 number of electron      37.9999998 magnetization       0.0000000
 augmentation part       -1.1982046 magnetization       0.0378234

 Free energy of the ion-electron system (eV)
  ---------------------------------------------------
  alpha Z        PSCENC =       252.14934681
  Ewald energy   TEWEN  =     -2493.57441055
  -Hartree energ DENC   =       -61.10090743
  -exchange      EXHF   =         0.00000000
  -V(xc)+E(xc)   XCENC  =       115.40070592
  PAW double counting   =    114037.56361341  -114037.01416899
  entropy T*S    EENTRO =         0.00000000
  eigenvalues    EBANDS =     -2184.61662713
  atomic energy  EATOM  =      3040.52701931
  ---------------------------------------------------
  free energy    TOTEN  =     -1330.66542865 eV

  energy without entropy =    -1330.66542865  energy(sigma->0) =    -1330.66542865


--------------------------------------------------------------------------------------------------------




----------------------------------------- Iteration    1(   4)  ---------------------------------------


     EDDAV:  cpu time   11.17: real time   11.17
 BZINTS: Fermi energy:-43.227053; 38.000000 electrons
         Band energy:***********;  BLOECHL correction:  0.000000
       DOS:  cpu time    0.01: real time    0.01
    --------------------------------------------
      LOOP:  cpu time   11.19: real time   11.19

 eigenvalue-minimisations  :  6928
 total energy-change (2. order) :-0.8102534E+00  (-0.8099857E+00)
 number of electron      37.9999998 magnetization       0.0000000
 augmentation part       -1.1982046 magnetization       0.0378234

 Free energy of the ion-electron system (eV)
  ---------------------------------------------------
  alpha Z        PSCENC =       252.14934681
  Ewald energy   TEWEN  =     -2493.57441055
  -Hartree energ DENC   =       -61.10090743
  -exchange      EXHF   =         0.00000000
  -V(xc)+E(xc)   XCENC  =       115.40070592
  PAW double counting   =    114037.56361341  -114037.01416899
  entropy T*S    EENTRO =         0.00000000
  eigenvalues    EBANDS =     -2185.42688057
  atomic energy  EATOM  =      3040.52701931
  ---------------------------------------------------
  free energy    TOTEN  =     -1331.47568209 eV

  energy without entropy =    -1331.47568209  energy(sigma->0) =    -1331.47568209


--------------------------------------------------------------------------------------------------------




----------------------------------------- Iteration    1(   5)  ---------------------------------------


     EDDAV:  cpu time   12.26: real time   12.26
 BZINTS: Fermi energy:-43.096264; 38.000000 electrons
         Band energy:***********;  BLOECHL correction:  0.000000
       DOS:  cpu time    0.01: real time    0.02
    CHARGE:  cpu time    0.46: real time    0.46
    MIXING:  cpu time    0.00: real time    0.00
    --------------------------------------------
      LOOP:  cpu time   12.74: real time   12.74

 eigenvalue-minimisations  :  7808
 total energy-change (2. order) :-0.2932094E-01  (-0.2932037E-01)
 number of electron      37.9999984 magnetization      -0.0000000
 augmentation part       15.8003472 magnetization      -0.0018469

 Broyden mixing:
  rms(total) = 0.39028E+02    rms(broyden)= 0.39020E+02
  rms(prec ) = 0.57332E+02
  weight for this iteration     100.00

 Free energy of the ion-electron system (eV)
  ---------------------------------------------------
  alpha Z        PSCENC =       252.14934681
  Ewald energy   TEWEN  =     -2493.57441055
  -Hartree energ DENC   =       -61.10090743
  -exchange      EXHF   =         0.00000000
  -V(xc)+E(xc)   XCENC  =       115.40070592
  PAW double counting   =    114037.56361341  -114037.01416899
  entropy T*S    EENTRO =         0.00000000
  eigenvalues    EBANDS =     -2185.45620152
  atomic energy  EATOM  =      3040.52701931
  ---------------------------------------------------
  free energy    TOTEN  =     -1331.50500304 eV

  energy without entropy =    -1331.50500304  energy(sigma->0) =    -1331.50500304


--------------------------------------------------------------------------------------------------------




----------------------------------------- Iteration    1(   6)  ---------------------------------------


    POTLOK:  cpu time    0.09: real time    0.09
    SETDIJ:  cpu time    0.02: real time    0.02
     EDDAV:  cpu time   13.55: real time   13.55
 BZINTS: Fermi energy: -2.906288; 38.000000 electrons
         Band energy:-671.232839;  BLOECHL correction:  0.000000
       DOS:  cpu time    0.02: real time    0.02
    CHARGE:  cpu time    0.46: real time    0.46
    MIXING:  cpu time    0.00: real time    0.00
    --------------------------------------------
      LOOP:  cpu time   14.15: real time   14.14

 eigenvalue-minimisations  :  8776
 total energy-change (2. order) : 0.1091712E+04  (-0.3676253E+03)
 number of electron      37.9999968 magnetization       0.0000000
 augmentation part        6.7568578 magnetization       0.0048209

 Broyden mixing:
  rms(total) = 0.25057E+02    rms(broyden)= 0.25055E+02
  rms(prec ) = 0.29587E+02
  weight for this iteration     100.00

 eigenvalues of (default mixing * dielectric matrix)
  average eigenvalue GAMMA=   0.6493
  0.6493

 Free energy of the ion-electron system (eV)
  ---------------------------------------------------
  alpha Z        PSCENC =       252.14934681
  Ewald energy   TEWEN  =     -2493.57441055
  -Hartree energ DENC   =      -480.41202947
  -exchange      EXHF   =         0.00000000
  -V(xc)+E(xc)   XCENC  =       136.61871391
  PAW double counting   =    204930.07756138  -204953.94591921
  entropy T*S    EENTRO =         0.00000000
  eigenvalues    EBANDS =      -671.23283934
  atomic energy  EATOM  =      3040.52701931
  ---------------------------------------------------
  free energy    TOTEN  =      -239.79255716 eV

  energy without entropy =     -239.79255716  energy(sigma->0) =     -239.79255716


--------------------------------------------------------------------------------------------------------




----------------------------------------- Iteration    1(   7)  ---------------------------------------


    POTLOK:  cpu time    0.09: real time    0.09
    SETDIJ:  cpu time    0.02: real time    0.02
     EDDAV:  cpu time    9.73: real time    9.72
 BZINTS: Fermi energy:  1.254390; 38.000000 electrons
         Band energy:-456.855963;  BLOECHL correction:  0.000000
       DOS:  cpu time    0.02: real time    0.02
    CHARGE:  cpu time    0.46: real time    0.46
    MIXING:  cpu time    0.00: real time    0.00
    --------------------------------------------
      LOOP:  cpu time   10.31: real time   10.31

 eigenvalue-minimisations  :  5872
 total energy-change (2. order) : 0.1515140E+03  (-0.3596587E+02)
 number of electron      37.9999976 magnetization      -0.0000000
 augmentation part        5.3131704 magnetization       0.0007529

 Broyden mixing:
  rms(total) = 0.16366E+02    rms(broyden)= 0.16366E+02
  rms(prec ) = 0.18465E+02
  weight for this iteration     100.00

 eigenvalues of (default mixing * dielectric matrix)
  average eigenvalue GAMMA=   1.3450
  1.1416  1.5484

 Free energy of the ion-electron system (eV)
  ---------------------------------------------------
  alpha Z        PSCENC =       252.14934681
  Ewald energy   TEWEN  =     -2493.57441055
  -Hartree energ DENC   =      -549.73464041
  -exchange      EXHF   =         0.00000000
  -V(xc)+E(xc)   XCENC  =       141.94991669
  PAW double counting   =    105380.86455501  -105403.60440041
  entropy T*S    EENTRO =         0.00000000
  eigenvalues    EBANDS =      -456.85596326
  atomic energy  EATOM  =      3040.52701931
  ---------------------------------------------------
  free energy    TOTEN  =       -88.27857680 eV

  energy without entropy =      -88.27857680  energy(sigma->0) =      -88.27857680


--------------------------------------------------------------------------------------------------------




----------------------------------------- Iteration    1(   8)  ---------------------------------------


    POTLOK:  cpu time    0.09: real time    0.09
    SETDIJ:  cpu time    0.02: real time    0.02
     EDDAV:  cpu time   10.58: real time   10.58
 BZINTS: Fermi energy:  3.432825; 38.000000 electrons
         Band energy:-365.670844;  BLOECHL correction: -0.057319
       DOS:  cpu time    0.10: real time    0.10
    CHARGE:  cpu time    0.46: real time    0.46
    MIXING:  cpu time    0.00: real time    0.00
    --------------------------------------------
      LOOP:  cpu time   11.24: real time   11.25

 eigenvalue-minimisations  :  6416
 total energy-change (2. order) : 0.2846520E+02  (-0.2320846E+02)
 number of electron      37.9999997 magnetization       0.0004087
 augmentation part        7.5299092 magnetization      -0.0056392

 Broyden mixing:
  rms(total) = 0.79300E+01    rms(broyden)= 0.79289E+01
  rms(prec ) = 0.14656E+02
  weight for this iteration     100.00

 eigenvalues of (default mixing * dielectric matrix)
  average eigenvalue GAMMA=   1.0088
  1.5616  1.1632  0.3017

 Free energy of the ion-electron system (eV)
  ---------------------------------------------------
  alpha Z        PSCENC =       252.14934681
  Ewald energy   TEWEN  =     -2493.57441055
  -Hartree energ DENC   =      -623.75538899
  -exchange      EXHF   =         0.00000000
  -V(xc)+E(xc)   XCENC  =       146.14223142
  PAW double counting   =     22748.52297860   -22764.15430620
  entropy T*S    EENTRO =         0.00000000
  eigenvalues    EBANDS =      -365.67084412
  atomic energy  EATOM  =      3040.52701931
  ---------------------------------------------------
  free energy    TOTEN  =       -59.81337371 eV

  energy without entropy =      -59.81337371  energy(sigma->0) =      -59.81337371


--------------------------------------------------------------------------------------------------------




----------------------------------------- Iteration    1(   9)  ---------------------------------------


    POTLOK:  cpu time    0.29: real time    0.32
    SETDIJ:  cpu time    0.02: real time    0.02
     EDDAV:  cpu time   10.51: real time   10.64
 BZINTS: Fermi energy:  3.681805; 38.000000 electrons
         Band energy:-358.842350;  BLOECHL correction: -0.045480
       DOS:  cpu time    0.09: real time    0.09
    CHARGE:  cpu time    0.46: real time    0.47
    MIXING:  cpu time    0.00: real time    0.00
    --------------------------------------------
      LOOP:  cpu time   11.38: real time   11.54

 eigenvalue-minimisations  :  6224
 total energy-change (2. order) : 0.4653954E+01  (-0.2898091E+01)
 number of electron      37.9999995 magnetization      -0.0048589
 augmentation part        6.6586382 magnetization      -0.0086577

 Broyden mixing:
  rms(total) = 0.77306E+01    rms(broyden)= 0.77305E+01
  rms(prec ) = 0.12693E+02
  weight for this iteration     100.00

 eigenvalues of (default mixing * dielectric matrix)
  average eigenvalue GAMMA=   0.9324
  1.4561  1.4561  0.5158  0.3018

 Free energy of the ion-electron system (eV)
  ---------------------------------------------------
  alpha Z        PSCENC =       252.14934681
  Ewald energy   TEWEN  =     -2493.57441055
  -Hartree energ DENC   =      -626.21153535
  -exchange      EXHF   =         0.00000000
  -V(xc)+E(xc)   XCENC  =       146.15728476
  PAW double counting   =     22166.99377380   -22182.35854775
  entropy T*S    EENTRO =         0.00000000
  eigenvalues    EBANDS =      -358.84235032
  atomic energy  EATOM  =      3040.52701931
  ---------------------------------------------------
  free energy    TOTEN  =       -55.15941929 eV

  energy without entropy =      -55.15941929  energy(sigma->0) =      -55.15941929


--------------------------------------------------------------------------------------------------------




----------------------------------------- Iteration    1(  10)  ---------------------------------------


    POTLOK:  cpu time    0.09: real time    0.09
    SETDIJ:  cpu time    0.02: real time    0.02
     EDDAV:  cpu time    9.76: real time    9.76
 BZINTS: Fermi energy:  0.538488; 38.000000 electrons
         Band energy:-455.825013;  BLOECHL correction: -0.037463
       DOS:  cpu time    0.10: real time    0.10
    CHARGE:  cpu time    0.46: real time    0.46
    MIXING:  cpu time    0.00: real time    0.00
    --------------------------------------------
      LOOP:  cpu time   10.42: real time   10.43

 eigenvalue-minimisations  :  5864
 total energy-change (2. order) :-0.8868089E+01  (-0.5021161E+01)
 number of electron      37.9999989 magnetization      -0.0035363
 augmentation part        8.5181477 magnetization      -0.0174623

 Broyden mixing:
  rms(total) = 0.65687E+01    rms(broyden)= 0.65680E+01
  rms(prec ) = 0.15533E+02
  weight for this iteration     100.00

 eigenvalues of (default mixing * dielectric matrix)
  average eigenvalue GAMMA=   1.0861
  1.9409  1.9409  0.8588  0.4211  0.2685

 Free energy of the ion-electron system (eV)
  ---------------------------------------------------
  alpha Z        PSCENC =       252.14934681
  Ewald energy   TEWEN  =     -2493.57441055
  -Hartree energ DENC   =      -536.46550932
  -exchange      EXHF   =         0.00000000
  -V(xc)+E(xc)   XCENC  =       140.21805721
  PAW double counting   =     16953.85243951   -16964.90943832
  entropy T*S    EENTRO =         0.00000000
  eigenvalues    EBANDS =      -455.82501262
  atomic energy  EATOM  =      3040.52701931
  ---------------------------------------------------
  free energy    TOTEN  =       -64.02750797 eV

  energy without entropy =      -64.02750797  energy(sigma->0) =      -64.02750797


--------------------------------------------------------------------------------------------------------




----------------------------------------- Iteration    1(  11)  ---------------------------------------


    POTLOK:  cpu time    0.09: real time    0.09
    SETDIJ:  cpu time    0.02: real time    0.02
     EDDAV:  cpu time   11.42: real time   11.42
 BZINTS: Fermi energy: -0.756709; 38.000000 electrons
         Band energy:-485.074481;  BLOECHL correction: -0.012147
       DOS:  cpu time    0.09: real time    0.09
    CHARGE:  cpu time    0.46: real time    0.46
    MIXING:  cpu time    0.00: real time    0.00
    --------------------------------------------
      LOOP:  cpu time   12.08: real time   12.08

 eigenvalue-minimisations  :  7120
 total energy-change (2. order) : 0.5854606E+01  (-0.1654744E+02)
 number of electron      37.9999985 magnetization      -0.0408160
 augmentation part        6.1619122 magnetization      -0.0045731

 Broyden mixing:
  rms(total) = 0.39053E+01    rms(broyden)= 0.39038E+01
  rms(prec ) = 0.67862E+01
  weight for this iteration     100.00

 eigenvalues of (default mixing * dielectric matrix)
  average eigenvalue GAMMA=   0.9957
  2.6100  0.9686  0.9686  0.9587  0.2342  0.2342

 Free energy of the ion-electron system (eV)
  ---------------------------------------------------
  alpha Z        PSCENC =       252.14934681
  Ewald energy   TEWEN  =     -2493.57441055
  -Hartree energ DENC   =      -502.52832494
  -exchange      EXHF   =         0.00000000
  -V(xc)+E(xc)   XCENC  =       137.08917867
  PAW double counting   =     10418.38797793   -10425.14920908
  entropy T*S    EENTRO =         0.00000000
  eigenvalues    EBANDS =      -485.07448060
  atomic energy  EATOM  =      3040.52701931
  ---------------------------------------------------
  free energy    TOTEN  =       -58.17290244 eV

  energy without entropy =      -58.17290244  energy(sigma->0) =      -58.17290244


--------------------------------------------------------------------------------------------------------




----------------------------------------- Iteration    1(  12)  ---------------------------------------


    POTLOK:  cpu time    0.09: real time    0.09
    SETDIJ:  cpu time    0.02: real time    0.02
     EDDAV:  cpu time   10.88: real time   10.90
 BZINTS: Fermi energy:  0.848033; 38.000000 electrons
         Band energy:-418.709574;  BLOECHL correction: -0.050710
       DOS:  cpu time    0.10: real time    0.10
    CHARGE:  cpu time    0.46: real time    0.46
    MIXING:  cpu time    0.00: real time    0.00
    --------------------------------------------
      LOOP:  cpu time   11.55: real time   11.57

 eigenvalue-minimisations  :  6712
 total energy-change (2. order) :-0.1171733E+02  (-0.1615689E+02)
 number of electron      37.9999994 magnetization       0.0065818
 augmentation part        8.4803746 magnetization      -0.0171942

 Broyden mixing:
  rms(total) = 0.65680E+01    rms(broyden)= 0.65678E+01
  rms(prec ) = 0.15489E+02
  weight for this iteration     100.00

 eigenvalues of (default mixing * dielectric matrix)
  average eigenvalue GAMMA=   0.9115
  2.5332  1.0433  1.0433  0.9343  0.3113  0.3113  0.2034

 Free energy of the ion-electron system (eV)
  ---------------------------------------------------
  alpha Z        PSCENC =       252.14934681
  Ewald energy   TEWEN  =     -2493.57441055
  -Hartree energ DENC   =      -587.18909630
  -exchange      EXHF   =         0.00000000
  -V(xc)+E(xc)   XCENC  =       143.19563453
  PAW double counting   =      2820.11462191    -2826.40377793
  entropy T*S    EENTRO =         0.00000000
  eigenvalues    EBANDS =      -418.70957388
  atomic energy  EATOM  =      3040.52701931
  ---------------------------------------------------
  free energy    TOTEN  =       -69.89023610 eV

  energy without entropy =      -69.89023610  energy(sigma->0) =      -69.89023610


--------------------------------------------------------------------------------------------------------




----------------------------------------- Iteration    1(  13)  ---------------------------------------


    POTLOK:  cpu time    0.09: real time    0.09
    SETDIJ:  cpu time    0.02: real time    0.02
     EDDAV:  cpu time   10.75: real time   10.76
 BZINTS: Fermi energy:  1.097556; 38.000000 electrons
         Band energy:-399.055557;  BLOECHL correction:  0.000000
       DOS:  cpu time    0.02: real time    0.02
    CHARGE:  cpu time    0.46: real time    0.46
    MIXING:  cpu time    0.00: real time    0.00
    --------------------------------------------
      LOOP:  cpu time   11.34: real time   11.39

 eigenvalue-minimisations  :  6616
 total energy-change (2. order) : 0.2487004E+02  (-0.3679556E+01)
 number of electron      37.9999985 magnetization       0.0145482
 augmentation part        5.6154568 magnetization       0.0159201

 Broyden mixing:
  rms(total) = 0.16381E+01    rms(broyden)= 0.16372E+01
  rms(prec ) = 0.31854E+01
  weight for this iteration     100.00

 eigenvalues of (default mixing * dielectric matrix)
  average eigenvalue GAMMA=   0.8953
  2.4060  1.1058  1.1058  1.0616  0.6074  0.3346  0.3346  0.2063

 Free energy of the ion-electron system (eV)
  ---------------------------------------------------
  alpha Z        PSCENC =       252.14934681
  Ewald energy   TEWEN  =     -2493.57441055
  -Hartree energ DENC   =      -581.90624358
  -exchange      EXHF   =         0.00000000
  -V(xc)+E(xc)   XCENC  =       142.23100109
  PAW double counting   =      3143.51267279    -3148.90402314
  entropy T*S    EENTRO =         0.00000000
  eigenvalues    EBANDS =      -399.05555701
  atomic energy  EATOM  =      3040.52701931
  ---------------------------------------------------
  free energy    TOTEN  =       -45.02019428 eV

  energy without entropy =      -45.02019428  energy(sigma->0) =      -45.02019428


--------------------------------------------------------------------------------------------------------




----------------------------------------- Iteration    1(  14)  ---------------------------------------


    POTLOK:  cpu time    0.09: real time    0.09
    SETDIJ:  cpu time    0.02: real time    0.02
     EDDAV:  cpu time   10.42: real time   10.44
 BZINTS: Fermi energy:  1.513931; 38.000000 electrons
         Band energy:-381.357382;  BLOECHL correction:  0.000000
       DOS:  cpu time    0.02: real time    0.02
    CHARGE:  cpu time    0.46: real time    0.46
    MIXING:  cpu time    0.00: real time    0.00
    --------------------------------------------
      LOOP:  cpu time   11.01: real time   11.03

 eigenvalue-minimisations  :  6344
 total energy-change (2. order) : 0.2322574E+01  (-0.2857557E+00)
 number of electron      37.9999984 magnetization       0.0028192
 augmentation part        5.3457076 magnetization       0.0014013

 Broyden mixing:
  rms(total) = 0.12940E+01    rms(broyden)= 0.12939E+01
  rms(prec ) = 0.23307E+01
  weight for this iteration     100.00

 eigenvalues of (default mixing * dielectric matrix)
  average eigenvalue GAMMA=   0.9341
  2.2710  1.1819  1.1819  1.2932  0.7920  0.7920  0.3447  0.3447  0.2057

 Free energy of the ion-electron system (eV)
  ---------------------------------------------------
  alpha Z        PSCENC =       252.14934681
  Ewald energy   TEWEN  =     -2493.57441055
  -Hartree energ DENC   =      -597.48385297
  -exchange      EXHF   =         0.00000000
  -V(xc)+E(xc)   XCENC  =       143.19611847
  PAW double counting   =      3305.86329927    -3312.01775844
  entropy T*S    EENTRO =         0.00000000
  eigenvalues    EBANDS =      -381.35738191
  atomic energy  EATOM  =      3040.52701931
  ---------------------------------------------------
  free energy    TOTEN  =       -42.69762001 eV

  energy without entropy =      -42.69762001  energy(sigma->0) =      -42.69762001


--------------------------------------------------------------------------------------------------------




----------------------------------------- Iteration    1(  15)  ---------------------------------------


    POTLOK:  cpu time    0.09: real time    0.09
    SETDIJ:  cpu time    0.02: real time    0.02
     EDDAV:  cpu time    9.95: real time    9.96
 BZINTS: Fermi energy:  2.405884; 38.000000 electrons
         Band energy:-354.637824;  BLOECHL correction:  0.000000
       DOS:  cpu time    0.01: real time    0.01
    CHARGE:  cpu time    0.46: real time    0.46
    MIXING:  cpu time    0.00: real time    0.00
    --------------------------------------------
      LOOP:  cpu time   10.54: real time   10.55

 eigenvalue-minimisations  :  6008
 total energy-change (2. order) : 0.2257677E+01  (-0.2696627E+00)
 number of electron      37.9999984 magnetization       0.0067984
 augmentation part        5.0467156 magnetization       0.0053218

 Broyden mixing:
  rms(total) = 0.66595E+00    rms(broyden)= 0.66590E+00
  rms(prec ) = 0.11153E+01
  weight for this iteration     100.00

 eigenvalues of (default mixing * dielectric matrix)
  average eigenvalue GAMMA=   0.9604
  2.1082  1.3998  1.3998  1.5820  0.9129  0.6553  0.6553  0.3423  0.3423  0.2057

 Free energy of the ion-electron system (eV)
  ---------------------------------------------------
  alpha Z        PSCENC =       252.14934681
  Ewald energy   TEWEN  =     -2493.57441055
  -Hartree energ DENC   =      -622.20838101
  -exchange      EXHF   =         0.00000000
  -V(xc)+E(xc)   XCENC  =       144.83137941
  PAW double counting   =      3584.64340126    -3592.17047395
  entropy T*S    EENTRO =         0.00000000
  eigenvalues    EBANDS =      -354.63782417
  atomic energy  EATOM  =      3040.52701931
  ---------------------------------------------------
  free energy    TOTEN  =       -40.43994289 eV

  energy without entropy =      -40.43994289  energy(sigma->0) =      -40.43994289


--------------------------------------------------------------------------------------------------------




----------------------------------------- Iteration    1(  16)  ---------------------------------------


    POTLOK:  cpu time    0.09: real time    0.09
    SETDIJ:  cpu time    0.02: real time    0.02
     EDDAV:  cpu time   11.10: real time   11.09
 BZINTS: Fermi energy:  2.666296; 38.000000 electrons
         Band energy:-347.176352;  BLOECHL correction:  0.000000
       DOS:  cpu time    0.01: real time    0.02
    CHARGE:  cpu time    0.46: real time    0.46
    MIXING:  cpu time    0.00: real time    0.00
    --------------------------------------------
      LOOP:  cpu time   11.68: real time   11.70

 eigenvalue-minimisations  :  6848
 total energy-change (2. order) : 0.2290715E+00  (-0.4200752E-01)
 number of electron      37.9999984 magnetization       0.0078974
 augmentation part        4.8941739 magnetization       0.0077204

 Broyden mixing:
  rms(total) = 0.60191E+00    rms(broyden)= 0.60190E+00
  rms(prec ) = 0.96650E+00
  weight for this iteration     100.00

 eigenvalues of (default mixing * dielectric matrix)
  average eigenvalue GAMMA=   1.0567
  2.3046  1.7129  1.7129  1.3824  1.0291  1.0291  0.9463  0.6173  0.3419  0.3419
  0.2057

 Free energy of the ion-electron system (eV)
  ---------------------------------------------------
  alpha Z        PSCENC =       252.14934681
  Ewald energy   TEWEN  =     -2493.57441055
  -Hartree energ DENC   =      -629.51250379
  -exchange      EXHF   =         0.00000000
  -V(xc)+E(xc)   XCENC  =       145.26618504
  PAW double counting   =      3638.80365537    -3646.69381160
  entropy T*S    EENTRO =         0.00000000
  eigenvalues    EBANDS =      -347.17635198
  atomic energy  EATOM  =      3040.52701931
  ---------------------------------------------------
  free energy    TOTEN  =       -40.21087139 eV

  energy without entropy =      -40.21087139  energy(sigma->0) =      -40.21087139


--------------------------------------------------------------------------------------------------------




----------------------------------------- Iteration    1(  17)  ---------------------------------------


    POTLOK:  cpu time    0.09: real time    0.09
    SETDIJ:  cpu time    0.02: real time    0.02
     EDDAV:  cpu time   10.97: real time   10.97
 BZINTS: Fermi energy:  2.627189; 38.000000 electrons
         Band energy:-343.925226;  BLOECHL correction:  0.000000
       DOS:  cpu time    0.02: real time    0.02
    CHARGE:  cpu time    0.47: real time    0.46
    MIXING:  cpu time    0.00: real time    0.00
    --------------------------------------------
      LOOP:  cpu time   11.56: real time   11.77

 eigenvalue-minimisations  :  6760
 total energy-change (2. order) :-0.1238322E+00  (-0.1729139E-01)
 number of electron      37.9999983 magnetization       0.0039599
 augmentation part        4.8239663 magnetization       0.0049790

 Broyden mixing:
  rms(total) = 0.62267E+00    rms(broyden)= 0.62267E+00
  rms(prec ) = 0.11807E+01
  weight for this iteration     100.00

 eigenvalues of (default mixing * dielectric matrix)
  average eigenvalue GAMMA=   1.2316
  2.7709  2.7709  2.4448  1.2820  1.2820  1.0506  0.9473  0.6707  0.6707  0.3420
  0.3420  0.2057

 Free energy of the ion-electron system (eV)
  ---------------------------------------------------
  alpha Z        PSCENC =       252.14934681
  Ewald energy   TEWEN  =     -2493.57441055
  -Hartree energ DENC   =      -632.94308495
  -exchange      EXHF   =         0.00000000
  -V(xc)+E(xc)   XCENC  =       145.44392125
  PAW double counting   =      3560.59209765    -3568.60436714
  entropy T*S    EENTRO =         0.00000000
  eigenvalues    EBANDS =      -343.92522600
  atomic energy  EATOM  =      3040.52701931
  ---------------------------------------------------
  free energy    TOTEN  =       -40.33470363 eV

  energy without entropy =      -40.33470363  energy(sigma->0) =      -40.33470363


--------------------------------------------------------------------------------------------------------




----------------------------------------- Iteration    1(  18)  ---------------------------------------


    POTLOK:  cpu time    0.09: real time    0.09
    SETDIJ:  cpu time    0.02: real time    0.02
     EDDAV:  cpu time   10.34: real time   10.34
 BZINTS: Fermi energy:  3.038937; 38.000000 electrons
         Band energy:-326.009878;  BLOECHL correction:  0.000000
       DOS:  cpu time    0.01: real time    0.01
    CHARGE:  cpu time    0.46: real time    0.46
    MIXING:  cpu time    0.00: real time    0.00
    --------------------------------------------
      LOOP:  cpu time   10.93: real time   10.93

 eigenvalue-minimisations  :  6280
 total energy-change (2. order) : 0.1688941E+00  (-0.9601197E-01)
 number of electron      37.9999984 magnetization       0.0050857
 augmentation part        4.6762864 magnetization       0.0060924

 Broyden mixing:
  rms(total) = 0.35852E+00    rms(broyden)= 0.35848E+00
  rms(prec ) = 0.88600E+00
  weight for this iteration     100.00

 eigenvalues of (default mixing * dielectric matrix)
  average eigenvalue GAMMA=   1.2786
  3.3233  3.3233  2.1428  1.4008  1.4008  1.0933  0.8966  0.7648  0.7648  0.3420
  0.3420  0.2057  0.6218

 Free energy of the ion-electron system (eV)
  ---------------------------------------------------
  alpha Z        PSCENC =       252.14934681
  Ewald energy   TEWEN  =     -2493.57441055
  -Hartree energ DENC   =      -650.85005672
  -exchange      EXHF   =         0.00000000
  -V(xc)+E(xc)   XCENC  =       146.65402533
  PAW double counting   =      3677.69076011    -3686.75261606
  entropy T*S    EENTRO =         0.00000000
  eigenvalues    EBANDS =      -326.00987780
  atomic energy  EATOM  =      3040.52701931
  ---------------------------------------------------
  free energy    TOTEN  =       -40.16580957 eV

  energy without entropy =      -40.16580957  energy(sigma->0) =      -40.16580957


--------------------------------------------------------------------------------------------------------




----------------------------------------- Iteration    1(  19)  ---------------------------------------


    POTLOK:  cpu time    0.09: real time    0.09
    SETDIJ:  cpu time    0.02: real time    0.02
     EDDAV:  cpu time   10.90: real time   10.90
 BZINTS: Fermi energy:  3.396779; 38.000000 electrons
         Band energy:-314.420617;  BLOECHL correction:  0.000000
       DOS:  cpu time    0.02: real time    0.02
    CHARGE:  cpu time    0.46: real time    0.46
    MIXING:  cpu time    0.00: real time    0.00
    --------------------------------------------
      LOOP:  cpu time   11.49: real time   11.49

 eigenvalue-minimisations  :  6704
 total energy-change (2. order) :-0.4206585E+00  (-0.4690669E-01)
 number of electron      37.9999984 magnetization       0.0026122
 augmentation part        4.5583902 magnetization       0.0036791

 Broyden mixing:
  rms(total) = 0.62421E+00    rms(broyden)= 0.62420E+00
  rms(prec ) = 0.12614E+01
  weight for this iteration     100.00

 eigenvalues of (default mixing * dielectric matrix)
  average eigenvalue GAMMA=   1.2201
  2.6513  2.6513  2.0559  2.0559  1.1434  1.1434  1.1702  0.9986  0.9986  0.2057
  0.3420  0.3420  0.6921  0.6314

 Free energy of the ion-electron system (eV)
  ---------------------------------------------------
  alpha Z        PSCENC =       252.14934681
  Ewald energy   TEWEN  =     -2493.57441055
  -Hartree energ DENC   =      -662.86238517
  -exchange      EXHF   =         0.00000000
  -V(xc)+E(xc)   XCENC  =       147.46755068
  PAW double counting   =      3829.68290783    -3839.55588001
  entropy T*S    EENTRO =         0.00000000
  eigenvalues    EBANDS =      -314.42061696
  atomic energy  EATOM  =      3040.52701931
  ---------------------------------------------------
  free energy    TOTEN  =       -40.58646805 eV

  energy without entropy =      -40.58646805  energy(sigma->0) =      -40.58646805


--------------------------------------------------------------------------------------------------------




----------------------------------------- Iteration    1(  20)  ---------------------------------------


    POTLOK:  cpu time    0.09: real time    0.09
    SETDIJ:  cpu time    0.02: real time    0.02
     EDDAV:  cpu time   10.33: real time   10.33
 BZINTS: Fermi energy:  3.217623; 38.000000 electrons
         Band energy:-319.838977;  BLOECHL correction:  0.000000
       DOS:  cpu time    0.01: real time    0.02
    CHARGE:  cpu time    0.46: real time    0.46
    MIXING:  cpu time    0.00: real time    0.00
    --------------------------------------------
      LOOP:  cpu time   10.92: real time   10.92

 eigenvalue-minimisations  :  6280
 total energy-change (2. order) : 0.2807946E+00  (-0.1250528E-01)
 number of electron      37.9999984 magnetization       0.0019073
 augmentation part        4.6185138 magnetization       0.0023725

 Broyden mixing:
  rms(total) = 0.48009E+00    rms(broyden)= 0.48009E+00
  rms(prec ) = 0.10069E+01
  weight for this iteration     100.00

 eigenvalues of (default mixing * dielectric matrix)
  average eigenvalue GAMMA=   1.2182
  2.8926  2.4719  2.4719  1.4602  1.4602  1.2485  1.2485  1.0085  1.0085  0.3420
  0.3420  0.2057  0.7456  0.7456  0.6208

 Free energy of the ion-electron system (eV)
  ---------------------------------------------------
  alpha Z        PSCENC =       252.14934681
  Ewald energy   TEWEN  =     -2493.57441055
  -Hartree energ DENC   =      -657.10683741
  -exchange      EXHF   =         0.00000000
  -V(xc)+E(xc)   XCENC  =       147.14316339
  PAW double counting   =      3741.56665301    -3751.17163067
  entropy T*S    EENTRO =         0.00000000
  eigenvalues    EBANDS =      -319.83897739
  atomic energy  EATOM  =      3040.52701931
  ---------------------------------------------------
  free energy    TOTEN  =       -40.30567349 eV

[...]
      3     -30.0251      1.00000
      4     -21.8208      1.00000
      5     -13.4329      1.00000
      6     -13.1668      1.00000
      7     -13.0993      1.00000
      8      -7.3904      1.00000
      9      -7.3384      1.00000
     10      -7.1185      1.00000
     11      -1.1858      1.00000
     12      -0.6952      1.00000
     13      -0.4369      1.00000
     14       0.2642      1.00000
     15       0.4493      1.00000
     16       0.6195      1.00000
     17       2.1495      1.00000
     18       2.2578      1.00000
     19       2.7441      1.00000
     20       6.3335      0.00000
     21       6.4587      0.00000
     22       6.6581      0.00000
     23       8.4329      0.00000
     24       9.9832      0.00000
     25      10.3359      0.00000
     26      11.0871      0.00000
     27      11.3344      0.00000
     28      11.4967      0.00000
     29      12.9864      0.00000
     30      15.4284      0.00000
     31      16.7078      0.00000
     32      16.9658      0.00000

 k-point    38 :       0.3125    0.3125    0.4375
  band No.  band energies     occupation 
      1     -30.0744      1.00000
      2     -30.0434      1.00000
      3     -30.0431      1.00000
      4     -21.8149      1.00000
      5     -13.3857      1.00000
      6     -13.1269      1.00000
      7     -13.0634      1.00000
      8      -7.5780      1.00000
      9      -7.4285      1.00000
     10      -7.2129      1.00000
     11      -1.0344      1.00000
     12      -0.4711      1.00000
     13      -0.3787      1.00000
     14      -0.0480      1.00000
     15       0.5222      1.00000
     16       0.5289      1.00000
     17       2.3837      1.00000
     18       2.4197      1.00000
     19       2.6337      1.00000
     20       6.4450      0.00000
     21       6.5332      0.00000
     22       6.5421      0.00000
     23       9.2281      0.00000
     24       9.5427      0.00000
     25      10.4991      0.00000
     26      10.5143      0.00000
     27      10.7017      0.00000
     28      11.6205      0.00000
     29      12.4446      0.00000
     30      15.1413      0.00000
     31      16.8456      0.00000
     32      17.4291      0.00000

 k-point    39 :       0.4375    0.3125    0.4375
  band No.  band energies     occupation 
      1     -30.0738      1.00000
      2     -30.0557      1.00000
      3     -30.0427      1.00000
      4     -21.7970      1.00000
      5     -13.2357      1.00000
      6     -13.1030      1.00000
      7     -13.0477      1.00000
      8      -7.6336      1.00000
      9      -7.5674      1.00000
     10      -7.4311      1.00000
     11      -1.2233      1.00000
     12      -0.6919      1.00000
     13      -0.3920      1.00000
     14       0.0671      1.00000
     15       0.4381      1.00000
     16       0.5381      1.00000
     17       2.4840      1.00000
     18       2.6125      1.00000
     19       2.7796      1.00000
     20       6.5919      0.00000
     21       6.6932      0.00000
     22       6.7479      0.00000
     23       9.2769      0.00000
     24       9.8704      0.00000
     25      10.1217      0.00000
     26      10.3194      0.00000
     27      10.5738      0.00000
     28      11.9719      0.00000
     29      12.8242      0.00000
     30      15.2550      0.00000
     31      17.2234      0.00000
     32      17.4080      0.00000

 k-point    40 :       0.4375    0.4375    0.4375
  band No.  band energies     occupation 
      1     -30.0732      1.00000
      2     -30.0552      1.00000
      3     -30.0551      1.00000
      4     -21.7800      1.00000
      5     -13.1047      1.00000
      6     -13.0382      1.00000
      7     -13.0129      1.00000
      8      -7.7727      1.00000
      9      -7.7373      1.00000
     10      -7.6435      1.00000
     11      -1.3634      1.00000
     12      -0.7767      1.00000
     13      -0.6586      1.00000
     14       0.3342      1.00000
     15       0.4801      1.00000
     16       0.5327      1.00000
     17       2.7442      1.00000
     18       2.7872      1.00000
     19       2.9138      1.00000
     20       6.8050      0.00000
     21       6.8081      0.00000
     22       6.8926      0.00000
     23       9.4427      0.00000
     24       9.6297      0.00000
     25       9.7262      0.00000
     26      10.2508      0.00000
     27      10.2986      0.00000
     28      12.6457      0.00000
     29      12.8376      0.00000
     30      15.1505      0.00000
     31      17.6732      0.00000
     32      17.8000      0.00000


--------------------------------------------------------------------------------------------------------


 soft charge-density along one line, spin component           1
         0         1         2         3         4         5         6         7         8         9
 total charge-density along one line
 
 soft charge-density along one line, spin component           2
         0         1         2         3         4         5         6         7         8         9
 total charge-density along one line
 
 pseudopotential strength for first ion, spin component:           1
  1.211  -5.033   0.000  -0.003   0.000   0.000   0.000   0.000
 -5.033   0.681  -0.000   0.002   0.000   0.000  -0.001  -0.000
  0.000  -0.000  -7.680  -0.000   0.000   4.457  -0.000   0.000
 -0.003   0.002  -0.000  -7.681   0.000  -0.000   4.457   0.000
  0.000   0.000   0.000   0.000  -7.680   0.000   0.000   4.457
  0.000   0.000   4.457  -0.000   0.000   6.766   0.000  -0.000
  0.000  -0.001  -0.000   4.457   0.000   0.000   6.767  -0.000
  0.000  -0.000   0.000   0.000   4.457  -0.000  -0.000   6.766
  0.000  -0.000  -0.000   0.000   0.000  -0.000   0.000   0.000
 -0.000   0.000  -0.001   0.000   0.000  -0.000   0.000   0.000
 -0.000   0.000  -0.000  -0.001   0.000  -0.000  -0.000   0.000
  0.000  -0.000   0.000   0.000  -0.001   0.000   0.000  -0.000
  0.000  -0.000  -0.000  -0.000   0.000  -0.000  -0.000   0.000
  0.000  -0.000  -0.000   0.000   0.000  -0.000   0.000   0.000
 -0.000   0.000  -0.002   0.000   0.000  -0.000   0.000   0.000
 -0.001   0.000  -0.000  -0.002   0.000  -0.000  -0.000   0.000
  0.000  -0.000   0.000   0.000  -0.002   0.000   0.000  -0.000
  0.000  -0.000  -0.000  -0.000   0.000  -0.000  -0.000   0.000
 pseudopotential strength for first ion, spin component:           2
  1.211  -5.033   0.000  -0.003   0.000   0.000   0.000  -0.000
 -5.033   0.681  -0.000   0.002   0.000   0.000  -0.001  -0.000
  0.000  -0.000  -7.680  -0.000   0.000   4.457  -0.000   0.000
 -0.003   0.002  -0.000  -7.681   0.000  -0.000   4.457   0.000
  0.000   0.000   0.000   0.000  -7.680   0.000   0.000   4.457
  0.000   0.000   4.457  -0.000   0.000   6.766   0.000  -0.000
  0.000  -0.001  -0.000   4.457   0.000   0.000   6.767  -0.000
 -0.000  -0.000   0.000   0.000   4.457  -0.000  -0.000   6.766
  0.000  -0.000  -0.000   0.000   0.000  -0.000   0.000   0.000
 -0.000   0.000  -0.001   0.000   0.000  -0.000   0.000   0.000
 -0.000   0.000  -0.000  -0.001   0.000  -0.000  -0.000   0.000
  0.000  -0.000   0.000   0.000  -0.001   0.000   0.000  -0.000
  0.000  -0.000  -0.000  -0.000   0.000  -0.000  -0.000   0.000
  0.000  -0.000  -0.000   0.000   0.000  -0.000   0.000   0.000
 -0.000   0.000  -0.002   0.000   0.000  -0.000   0.000   0.000
 -0.001   0.000  -0.000  -0.002   0.000  -0.000  -0.000   0.000
  0.000  -0.000   0.000   0.000  -0.002   0.000   0.000  -0.000
  0.000  -0.000  -0.000  -0.000   0.000  -0.000  -0.000   0.000
 total augmentation occupancy for first ion, spin component:           1
  2.004  -0.004   0.000  -0.000   0.000   0.000  -0.001   0.000   0.000   0.000  -0.001   0.000   0.000   0.000  -0.000   0.000
 -0.004   0.393   0.000  -0.012   0.000   0.000   0.003   0.000   0.000   0.000  -0.020   0.000   0.000   0.000   0.000   0.011
  0.000   0.000   2.021   0.000   0.000  -0.009   0.000   0.000   0.000  -0.019   0.000   0.000   0.000   0.000   0.008   0.000
 -0.000  -0.012   0.000   2.021   0.000   0.000  -0.009   0.000   0.000   0.000  -0.010   0.000   0.000   0.000   0.000   0.004
  0.000   0.000   0.000   0.000   2.021   0.000   0.000  -0.009  -0.000   0.000   0.000  -0.019   0.000  -0.000   0.000   0.000
  0.000   0.000  -0.009   0.000   0.000   0.010  -0.000   0.000   0.000   0.007   0.000   0.000   0.000   0.000  -0.004   0.000
 -0.001   0.003   0.000  -0.009   0.000  -0.000   0.010   0.000   0.000  -0.000   0.004   0.000   0.000   0.000  -0.000  -0.002
  0.000   0.000   0.000   0.000  -0.009   0.000   0.000   0.010   0.000   0.000   0.000   0.007   0.000   0.000   0.000   0.000
  0.000   0.000   0.000   0.000   0.000   0.000   0.000   0.000   2.897   0.000   0.000   0.000   0.000  -1.538   0.000   0.000
 -0.000  -0.000  -0.019   0.000   0.000   0.007   0.000   0.000   0.000   2.715   0.000   0.000   0.000   0.000  -1.440   0.000
 -0.001  -0.020  -0.000  -0.010   0.000   0.000   0.004   0.000   0.000   0.000   1.805   0.000   0.000   0.000   0.000  -0.951
  0.000   0.000   0.000   0.000  -0.019   0.000   0.000   0.007   0.000   0.000   0.000   2.715   0.000   0.000   0.000   0.000
  0.000   0.000  -0.000   0.000   0.000   0.000   0.000   0.000   0.000   0.000   0.000   0.000   1.702   0.000   0.000   0.000
  0.000   0.000   0.000   0.000  -0.000   0.000   0.000  -0.000  -1.538   0.000   0.000   0.000   0.000   0.818   0.000   0.000
  0.000  -0.000   0.008  -0.000   0.000  -0.004   0.000   0.000   0.000  -1.440   0.000   0.000   0.000   0.000   0.765   0.000
  0.000   0.011   0.000   0.004   0.000   0.000  -0.002   0.000   0.000   0.000  -0.951   0.000   0.000   0.000   0.000   0.502
  0.000   0.000   0.000   0.000   0.008   0.000   0.000  -0.004   0.000   0.000   0.000  -1.440   0.000   0.000   0.000   0.000
  0.000   0.000   0.000   0.000   0.000   0.000   0.000   0.000  -0.000   0.000   0.000   0.000  -0.896   0.000   0.000   0.000
 total augmentation occupancy for first ion, spin component:           2
 -0.000  -0.000   0.000   0.000   0.000   0.000   0.000   0.000   0.000  -0.000  -0.000   0.000   0.000   0.000   0.000   0.000
 -0.000   0.000   0.000   0.000   0.000   0.000  -0.000   0.000   0.000   0.000   0.000   0.000   0.000   0.000   0.000  -0.000
  0.000   0.000  -0.000   0.000   0.000  -0.000   0.000   0.000   0.000  -0.000   0.000  -0.000   0.000   0.000   0.000  -0.000
  0.000   0.000   0.000  -0.000   0.000   0.000  -0.000   0.000   0.000   0.000  -0.000   0.000   0.000   0.000   0.000   0.000
  0.000   0.000   0.000   0.000  -0.000   0.000   0.000  -0.000  -0.000   0.000   0.000  -0.000   0.000   0.000  -0.000   0.000
  0.000   0.000  -0.000   0.000   0.000  -0.000  -0.000   0.000   0.000  -0.000   0.000   0.000  -0.000   0.000   0.000   0.000
  0.000  -0.000   0.000  -0.000   0.000  -0.000  -0.000   0.000   0.000   0.000   0.000   0.000   0.000   0.000   0.000  -0.000
  0.000   0.000   0.000   0.000  -0.000   0.000   0.000  -0.000  -0.000   0.000   0.000  -0.000   0.000   0.000   0.000  -0.000
  0.000   0.000   0.000   0.000  -0.000   0.000   0.000  -0.000   0.000   0.000   0.000   0.000   0.000  -0.000   0.000   0.000
 -0.000   0.000  -0.000   0.000   0.000  -0.000   0.000   0.000   0.000  -0.000   0.000   0.000  -0.000   0.000  -0.000   0.000
 -0.000   0.000   0.000  -0.000   0.000   0.000   0.000   0.000   0.000   0.000   0.000   0.000   0.000   0.000   0.000  -0.000
  0.000   0.000  -0.000   0.000  -0.000   0.000   0.000  -0.000   0.000   0.000   0.000  -0.000   0.000   0.000   0.000   0.000
  0.000   0.000   0.000   0.000   0.000  -0.000   0.000   0.000   0.000  -0.000   0.000   0.000  -0.000   0.000  -0.000   0.000
  0.000   0.000   0.000   0.000   0.000   0.000   0.000   0.000  -0.000   0.000   0.000   0.000   0.000   0.000   0.000   0.000
  0.000   0.000   0.000   0.000  -0.000   0.000   0.000   0.000   0.000  -0.000   0.000   0.000  -0.000   0.000   0.000   0.000
  0.000  -0.000  -0.000   0.000   0.000   0.000  -0.000  -0.000   0.000   0.000  -0.000   0.000   0.000   0.000   0.000   0.000
  0.000   0.000   0.000   0.000   0.000  -0.000   0.000   0.000   0.000   0.000   0.000  -0.000   0.000   0.000   0.000   0.000
  0.000   0.000  -0.000   0.000   0.000   0.000   0.000   0.000   0.000   0.000   0.000   0.000   0.000   0.000   0.000   0.000


------------------------ aborting loop because EDIFF is reached ----------------------------------------


 


 total charge     
 
# of ion     s       p       d       tot
----------------------------------------
  1        2.005   5.647   0.307   7.960
  2        0.295   6.407   1.878   8.580
  3        1.575   3.312   0.000   4.887
  4        1.552   3.594   0.000   5.146
  5        1.564   3.450   0.000   5.014
------------------------------------------------
tot        6.991  22.410   2.185  31.586
 


 magnetization (x)
 
# of ion     s       p       d       tot
----------------------------------------
  1       -0.000  -0.000  -0.000  -0.000
  2       -0.000  -0.000  -0.000  -0.000
  3        0.000   0.000   0.000   0.000
  4        0.000   0.000   0.000   0.000
  5        0.000   0.000   0.000   0.000
------------------------------------------------
tot       -0.000   0.000  -0.000   0.000
 
    CHARGE:  cpu time    0.46: real time    0.46
    FORLOC:  cpu time    0.00: real time    0.00
    FORNL :  cpu time    2.55: real time    2.55
    STRESS:  cpu time    7.70: real time    7.70
    FORCOR:  cpu time    0.09: real time    0.09
    FORHAR:  cpu time    0.01: real time    0.01
    MIXING:  cpu time    0.00: real time    0.00
    OFIELD:  cpu time    0.00: real time    0.00

  FORCE on cell =-STRESS in cart. coord.  units (eV):
  Direction    XX          YY          ZZ          XY          YZ          ZX
  --------------------------------------------------------------------------------------
  Alpha Z   252.14935   252.14935   252.14935
  Ewald    -822.30177  -822.30177  -848.97397    -0.00000    -0.00000     0.00000
  Hartree   220.31378   220.31378   204.11682    -0.00000    -0.00000    -0.00000
  E(xc)    -171.23140  -171.23140  -171.28229     0.00000     0.00000    -0.00000
  Local     -41.56690   -41.56690     1.42750    -0.00000     0.00000    -0.00000
  n-local  -129.26435  -126.49814  -128.20233    -0.35884    -0.33419    -0.29545
  augment    63.29247    63.29247    63.08480    -0.00000     0.00000     0.00000
  Kinetic   621.26002   633.04477   626.59453    -3.11491    -3.19963    -2.72612
  Fock        0.00000     0.00000     0.00000     0.00000     0.00000     0.00000
  -------------------------------------------------------------------------------------
  Total      -0.07332    -0.07332    -1.08559     0.00000     0.00000     0.00000
  in kB      -1.76763    -1.76763   -26.17330     0.00000     0.00000     0.00000
  external pressure =       -9.90 kB  Pullay stress =        0.00 kB


 VOLUME and BASIS-vectors are now :
 -----------------------------------------------------------------------------
  energy-cutoff  :      520.00
  volume of cell :       66.45
      direct lattice vectors                 reciprocal lattice vectors
     4.018966000  0.000000000  0.000000000     0.248820219  0.000000000  0.000000000
     0.000000000  4.018966000  0.000000000     0.000000000  0.248820219  0.000000000
     0.000000000  0.000000000  4.114244000     0.000000000  0.000000000  0.243058020

  length of vectors
     4.018966000  4.018966000  4.114244000     0.248820219  0.248820219  0.243058020


 FORCES acting on ions
    electron-ion (+dipol)            ewald-force                    non-local-force                 convergence-correction
 -----------------------------------------------------------------------------------------------
   -.621E-14 -.288E-14 0.323E+01   -.872E-14 -.352E-15 -.288E+01   0.000E+00 -.130E-17 -.399E+00   -.375E-15 0.714E-14 0.509E-02
   0.167E-12 0.203E-11 0.323E+02   0.665E-14 0.237E-14 -.314E+02   0.000E+00 0.000E+00 -.362E+00   -.327E-13 -.686E-13 -.481E-01
   -.161E-13 0.462E-13 0.904E+01   -.194E-13 0.662E-14 -.939E+01   0.000E+00 0.000E+00 0.296E+00   0.367E-13 -.408E-13 0.548E-02
   0.132E-12 -.194E-13 0.904E+01   0.864E-14 -.642E-14 -.939E+01   0.000E+00 0.108E-18 0.296E+00   -.921E-14 0.504E-14 0.548E-02
   0.119E-12 0.869E-12 -.485E+02   0.117E-13 -.384E-14 0.531E+02   0.000E+00 0.000E+00 -.488E+01   -.536E-13 -.751E-13 -.277E-01
 -----------------------------------------------------------------------------------------------
   0.395E-12 0.292E-11 0.511E+01   -.114E-14 -.163E-14 0.711E-14   0.000E+00 -.119E-17 -.505E+01   -.592E-13 -.172E-12 -.597E-01
 
 
 POSITION                                       TOTAL-FORCE (eV/Angst)
 -----------------------------------------------------------------------------------
      0.00000      0.00000      0.04347         0.000000     -0.000000     -0.049869
      2.00948      2.00948      2.13456         0.000000      0.000000      0.479010
      0.00000      2.00948      2.04893         0.000000     -0.000000     -0.047780
      2.00948      0.00000      2.04893        -0.000000     -0.000000     -0.047780
      2.00948      2.00948      4.06730         0.000000     -0.000000     -0.333581
 -----------------------------------------------------------------------------------
    total drift:                                0.000000      0.000000      0.001793


--------------------------------------------------------------------------------------------------------



  FREE ENERGIE OF THE ION-ELECTRON SYSTEM (eV)
  ---------------------------------------------------
  free  energy   TOTEN  =       -39.90439241 eV

  energy  without entropy=      -39.90439241  energy(sigma->0) =      -39.90439241
 


--------------------------------------------------------------------------------------------------------


    POTLOK:  cpu time    0.11: real time    0.54


--------------------------------------------------------------------------------------------------------


 writing wavefunctions
     LOOP+:  cpu time  336.84: real time  339.09
    4ORBIT:  cpu time    0.00: real time    0.00
 


 total charge     
 
# of ion     s       p       d       tot
----------------------------------------
  1        2.005   5.647   0.307   7.960
  2        0.295   6.407   1.878   8.580
  3        1.575   3.312   0.000   4.887
  4        1.552   3.594   0.000   5.146
  5        1.564   3.450   0.000   5.014
------------------------------------------------
tot        6.991  22.410   2.185  31.586
 


 magnetization (x)
 
# of ion     s       p       d       tot
----------------------------------------
  1       -0.000  -0.000  -0.000  -0.000
  2       -0.000  -0.000  -0.000  -0.000
  3        0.000   0.000   0.000   0.000
  4        0.000   0.000   0.000   0.000
  5        0.000   0.000   0.000   0.000
------------------------------------------------
tot       -0.000   0.000  -0.000   0.000
 
 BZINTS: Fermi energy:  2.997695; 38.000000 electrons
         Band energy:-331.306260;  BLOECHL correction:  0.000000

 total amount of memory used by VASP on root node    49524. kBytes
========================================================================

   base      :      30000. kBytes
   nonlr-proj:       3518. kBytes
   fftplans  :       1162. kBytes
   grid      :       5105. kBytes
   one-center:        155. kBytes
   wavefun   :       9584. kBytes
 
  
  
 General timing and accounting informations for this job:
 ========================================================
  
                  Total CPU time used (sec):      346.641
                            User time (sec):      333.643
                          System time (sec):       12.998
                         Elapsed time (sec):      351.053
  
                   Maximum memory used (kb):       67044.
                   Average memory used (kb):           0.
  
                          Minor page faults:      3366350
                          Major page faults:            9
                 Voluntary context switches:         1262
