<?xml version="1.0" encoding="ISO-8859-1"?>
<modeling>
 <generator>
  <i name="program" type="string">vasp </i>
  <i name="version" type="string">5.3.5  </i>
  <i name="subversion" type="string">31Mar14 (build Oct 24 2014 12:38:34) complex                          parallel </i>
  <i name="platform" type="string">LinuxIFC </i>
  <i name="date" type="string">2016 10 20 </i>
  <i name="time" type="string">19:24:47 </i>
 </generator>
 <incar>
  <i type="string" name="PREC">accurate</i>
  <i type="string" name="ALGO"> Normal</i>
  <i type="int" name="ISPIN">     2</i>
  <i type="int" name="ICHARG">     0</i>
  <i type="int" name="NELM">   100</i>
  <i type="int" name="IBRION">    -1</i>
  <i name="EDIFF">      0.00025000</i>
  <i type="int" name="NSW">     0</i>
  <i type="int" name="ISIF">     3</i>
  <i name="ENCUT">    520.00000000</i>
  <v name="MAGMOM">      0.60000000      0.60000000      0.60000000      0.60000000      0.60000000</v>
  <i type="string" name="LREAL"> Auto</i>
  <i type="int" name="ISMEAR">    -5</i>
  <i name="SIGMA">      0.05000000</i>
  <i type="logical" name="LWAVE"> T  </i>
  <i type="logical" name="LCHARG"> T  </i>
  <i type="logical" name="LVHAR"> T  </i>
  <i type="logical" name="LORBIT"> F  </i>
  <i type="logical" name="LAECHG"> T  </i>
  <i type="int" name="NELM">   100</i>
 </incar>
 <kpoints>
  <generation param="Monkhorst-Pack">
   <v type="int" name="divisions">       8        8        8 </v>
   <v name="usershift">      0.00000000       0.00000000       0.00000000 </v>
   <v name="genvec1">      0.12500000       0.00000000       0.00000000 </v>
   <v name="genvec2">      0.00000000       0.12500000       0.00000000 </v>
   <v name="genvec3">      0.00000000       0.00000000       0.12500000 </v>
   <v name="shift">      0.50000000       0.50000000       0.50000000 </v>
  </generation>
  <varray name="kpointlist" >
   <v>       0.06250000       0.06250000       0.06250000 </v>
   <v>       0.18750000       0.06250000       0.06250000 </v>
   <v>       0.31250000       0.06250000       0.06250000 </v>
   <v>       0.43750000       0.06250000       0.06250000 </v>
   <v>       0.18750000       0.18750000       0.06250000 </v>
   <v>       0.31250000       0.18750000       0.06250000 </v>
   <v>       0.43750000       0.18750000       0.06250000 </v>
   <v>       0.31250000       0.31250000       0.06250000 </v>
   <v>       0.43750000       0.31250000       0.06250000 </v>
   <v>       0.43750000       0.43750000       0.06250000 </v>
   <v>       0.06250000       0.06250000       0.18750000 </v>
   <v>       0.18750000       0.06250000       0.18750000 </v>
   <v>       0.31250000       0.06250000       0.18750000 </v>
   <v>       0.43750000       0.06250000       0.18750000 </v>
   <v>       0.18750000       0.18750000       0.18750000 </v>
   <v>       0.31250000       0.18750000       0.18750000 </v>
   <v>       0.43750000       0.18750000       0.18750000 </v>
   <v>       0.31250000       0.31250000       0.18750000 </v>
   <v>       0.43750000       0.31250000       0.18750000 </v>
   <v>       0.43750000       0.43750000       0.18750000 </v>
   <v>       0.06250000       0.06250000       0.31250000 </v>
   <v>       0.18750000       0.06250000       0.31250000 </v>
   <v>       0.31250000       0.06250000       0.31250000 </v>
   <v>       0.43750000       0.06250000       0.31250000 </v>
   <v>       0.18750000       0.18750000       0.31250000 </v>
   <v>       0.31250000       0.18750000       0.31250000 </v>
   <v>       0.43750000       0.18750000       0.31250000 </v>
   <v>       0.31250000       0.31250000       0.31250000 </v>
   <v>       0.43750000       0.31250000       0.31250000 </v>
   <v>       0.43750000       0.43750000       0.31250000 </v>
   <v>       0.06250000       0.06250000       0.43750000 </v>
   <v>       0.18750000       0.06250000       0.43750000 </v>
   <v>       0.31250000       0.06250000       0.43750000 </v>
   <v>       0.43750000       0.06250000       0.43750000 </v>
   <v>       0.18750000       0.18750000       0.43750000 </v>
   <v>       0.31250000       0.18750000       0.43750000 </v>
   <v>       0.43750000       0.18750000       0.43750000 </v>
   <v>       0.31250000       0.31250000       0.43750000 </v>
   <v>       0.43750000       0.31250000       0.43750000 </v>
   <v>       0.43750000       0.43750000       0.43750000 </v>
  </varray>
  <varray name="weights" >
   <v>       0.01562500 </v>
   <v>       0.03125000 </v>
   <v>       0.03125000 </v>
   <v>       0.03125000 </v>
   <v>       0.01562500 </v>
   <v>       0.03125000 </v>
   <v>       0.03125000 </v>
   <v>       0.01562500 </v>
   <v>       0.03125000 </v>
   <v>       0.01562500 </v>
   <v>       0.01562500 </v>
   <v>       0.03125000 </v>
   <v>       0.03125000 </v>
   <v>       0.03125000 </v>
   <v>       0.01562500 </v>
   <v>       0.03125000 </v>
   <v>       0.03125000 </v>
   <v>       0.01562500 </v>
   <v>       0.03125000 </v>
   <v>       0.01562500 </v>
   <v>       0.01562500 </v>
   <v>       0.03125000 </v>
   <v>       0.03125000 </v>
   <v>       0.03125000 </v>
   <v>       0.01562500 </v>
   <v>       0.03125000 </v>
   <v>       0.03125000 </v>
   <v>       0.01562500 </v>
   <v>       0.03125000 </v>
   <v>       0.01562500 </v>
   <v>       0.01562500 </v>
   <v>       0.03125000 </v>
   <v>       0.03125000 </v>
   <v>       0.03125000 </v>
   <v>       0.01562500 </v>
   <v>       0.03125000 </v>
   <v>       0.03125000 </v>
   <v>       0.01562500 </v>
   <v>       0.03125000 </v>
   <v>       0.01562500 </v>
  </varray>
  <varray name="tetrahedronlist"  type="int" >
   <v type="int" >        4        1        2        5       11 </v>
   <v type="int" >        4        2        5       11       12 </v>
   <v type="int" >        4        5       11       12       15 </v>
   <v type="int" >        4        2        3        6       12 </v>
   <v type="int" >        4        2        5        6       12 </v>
   <v type="int" >        4        5        6       12       15 </v>
   <v type="int" >        4        3        6       12       13 </v>
   <v type="int" >        4        6       12       13       16 </v>
   <v type="int" >        4        6       12       15       16 </v>
   <v type="int" >        4        3        4        7       13 </v>
   <v type="int" >        4        3        6        7       13 </v>
   <v type="int" >        4        6        7       13       16 </v>
   <v type="int" >        4        4        7       13       14 </v>
   <v type="int" >        4        7       13       14       17 </v>
   <v type="int" >        4        7       13       16       17 </v>
   <v type="int" >        4        4        4        7       14 </v>
   <v type="int" >        4        4        7        7       14 </v>
   <v type="int" >        4        7        7       14       17 </v>
   <v type="int" >        4        4        7       14       14 </v>
   <v type="int" >        4        7       14       14       17 </v>
   <v type="int" >        4        7       14       17       17 </v>
   <v type="int" >        4        3        4        6       14 </v>
   <v type="int" >        4        4        6        7       14 </v>
   <v type="int" >        4        6        7       14       17 </v>
   <v type="int" >        4        3        6       13       14 </v>
   <v type="int" >        4        6       13       14       16 </v>
   <v type="int" >        4        6       14       16       17 </v>
   <v type="int" >        4        2        3        5       13 </v>
   <v type="int" >        4        3        5        6       13 </v>
   <v type="int" >        4        5        6       13       16 </v>
   <v type="int" >        4        2        5       12       13 </v>
   <v type="int" >        4        5       12       13       15 </v>
   <v type="int" >        4        5       13       15       16 </v>
   <v type="int" >        8        1        2        2       12 </v>
   <v type="int" >        4        2        2        5       12 </v>
   <v type="int" >        4        2        5       12       15 </v>
   <v type="int" >        4        1        2       11       12 </v>
   <v type="int" >        8        2       11       12       12 </v>
   <v type="int" >        4        2       12       12       15 </v>
   <v type="int" >        4        1        1        2       11 </v>
   <v type="int" >        4        1        2        2       11 </v>
   <v type="int" >        4        2        2       11       12 </v>
   <v type="int" >        4        1        2       11       11 </v>
   <v type="int" >        4        2       11       11       12 </v>
   <v type="int" >        4        5        6        8       15 </v>
   <v type="int" >        4        6        8       15       16 </v>
   <v type="int" >        4        8       15       16       18 </v>
   <v type="int" >        4        6        7        9       16 </v>
   <v type="int" >        4        6        8        9       16 </v>
   <v type="int" >        4        8        9       16       18 </v>
   <v type="int" >        4        7        9       16       17 </v>
   <v type="int" >        4        9       16       17       19 </v>
   <v type="int" >        4        9       16       18       19 </v>
   <v type="int" >        4        7        7        9       17 </v>
   <v type="int" >        4        7        9        9       17 </v>
   <v type="int" >        4        9        9       17       19 </v>
   <v type="int" >        4        7        9       17       17 </v>
   <v type="int" >        4        9       17       17       19 </v>
   <v type="int" >        4        9       17       19       19 </v>
   <v type="int" >        4        6        7        8       17 </v>
   <v type="int" >        4        7        8        9       17 </v>
   <v type="int" >        4        8        9       17       19 </v>
   <v type="int" >        4        6        8       16       17 </v>
   <v type="int" >        4        8       16       17       18 </v>
   <v type="int" >        4        8       17       18       19 </v>
   <v type="int" >        4        5        6        6       16 </v>
   <v type="int" >        4        6        6        8       16 </v>
   <v type="int" >        4        6        8       16       18 </v>
   <v type="int" >        4        5        6       15       16 </v>
   <v type="int" >        4        6       15       16       16 </v>
   <v type="int" >        4        6       16       16       18 </v>
   <v type="int" >        4        2        3        5       15 </v>
   <v type="int" >        4        3        5        6       15 </v>
   <v type="int" >        4        3        6       15       16 </v>
   <v type="int" >        4        2        3       12       15 </v>
   <v type="int" >        4        3       12       13       15 </v>
   <v type="int" >        4        3       13       15       16 </v>
   <v type="int" >        4        2        2        3       12 </v>
   <v type="int" >        4        2        3        3       12 </v>
   <v type="int" >        4        3        3       12       13 </v>
   <v type="int" >        4        2        3       12       12 </v>
   <v type="int" >        4        3       12       12       13 </v>
   <v type="int" >        4        3       12       13       13 </v>
   <v type="int" >        4        8        9       10       18 </v>
   <v type="int" >        4        9       10       18       19 </v>
   <v type="int" >        4       10       18       19       20 </v>
   <v type="int" >        8        9        9       10       19 </v>
   <v type="int" >        4        9       10       10       19 </v>
   <v type="int" >        4       10       10       19       20 </v>
   <v type="int" >        4        9       10       19       19 </v>
   <v type="int" >        4       10       19       19       20 </v>
   <v type="int" >        4       10       19       20       20 </v>
   <v type="int" >        4        8        9        9       19 </v>
   <v type="int" >        4        9       10       19       20 </v>
   <v type="int" >        4        8        9       18       19 </v>
   <v type="int" >        4        9       18       19       19 </v>
   <v type="int" >        8        9       19       19       20 </v>
   <v type="int" >        4        6        7        8       18 </v>
   <v type="int" >        4        7        8        9       18 </v>
   <v type="int" >        4        7        9       18       19 </v>
   <v type="int" >        4        6        7       16       18 </v>
   <v type="int" >        4        7       16       17       18 </v>
   <v type="int" >        4        7       17       18       19 </v>
   <v type="int" >        4        3        4        6       16 </v>
   <v type="int" >        4        4        6        7       16 </v>
   <v type="int" >        4        4        7       16       17 </v>
   <v type="int" >        4        3        4       13       16 </v>
   <v type="int" >        4        4       13       14       16 </v>
   <v type="int" >        4        4       14       16       17 </v>
   <v type="int" >        4        3        3        4       13 </v>
   <v type="int" >        4        3        4        4       13 </v>
   <v type="int" >        4        4        4       13       14 </v>
   <v type="int" >        4        3        4       13       13 </v>
   <v type="int" >        4        4       13       13       14 </v>
   <v type="int" >        4        4       13       14       14 </v>
   <v type="int" >        4       10       10       10       20 </v>
   <v type="int" >        4       10       10       20       20 </v>
   <v type="int" >        4       10       20       20       20 </v>
   <v type="int" >        4        9        9       10       20 </v>
   <v type="int" >        4        9       10       10       20 </v>
   <v type="int" >        4        9       10       20       20 </v>
   <v type="int" >        4        9        9       19       20 </v>
   <v type="int" >        4        9       19       20       20 </v>
   <v type="int" >        4        7        7        9       19 </v>
   <v type="int" >        4        7        9        9       19 </v>
   <v type="int" >        4        7        9       19       19 </v>
   <v type="int" >        4        7        7       17       19 </v>
   <v type="int" >        4        7       17       17       19 </v>
   <v type="int" >        4        7       17       19       19 </v>
   <v type="int" >        4        4        4        7       17 </v>
   <v type="int" >        4        4        7        7       17 </v>
   <v type="int" >        4        4        7       17       17 </v>
   <v type="int" >        4        4        4       14       17 </v>
   <v type="int" >        4        4       14       14       17 </v>
   <v type="int" >        4        4       14       17       17 </v>
   <v type="int" >        8        4        4        4       14 </v>
   <v type="int" >        8        4        4       14       14 </v>
   <v type="int" >        8        4       14       14       14 </v>
   <v type="int" >        4        8        9       10       20 </v>
   <v type="int" >        4        8        9       19       20 </v>
   <v type="int" >        4        8       18       19       20 </v>
   <v type="int" >        4        6        7        9       19 </v>
   <v type="int" >        4        6        8        9       19 </v>
   <v type="int" >        4        6        8       18       19 </v>
   <v type="int" >        4        6        7       17       19 </v>
   <v type="int" >        4        6       16       17       19 </v>
   <v type="int" >        4        6       16       18       19 </v>
   <v type="int" >        4        3        4        7       17 </v>
   <v type="int" >        4        3        6        7       17 </v>
   <v type="int" >        4        3        6       16       17 </v>
   <v type="int" >        4        3        4       14       17 </v>
   <v type="int" >        4        3       13       14       17 </v>
   <v type="int" >        4        3       13       16       17 </v>
   <v type="int" >        4        3        4        4       14 </v>
   <v type="int" >        4        3        3        4       14 </v>
   <v type="int" >        4        3        3       13       14 </v>
   <v type="int" >        4        3        4       14       14 </v>
   <v type="int" >        4        3       13       14       14 </v>
   <v type="int" >        4        3       13       13       14 </v>
   <v type="int" >        4        5        6        8       18 </v>
   <v type="int" >        4        5        6       16       18 </v>
   <v type="int" >        4        5       15       16       18 </v>
   <v type="int" >        4        2        3        6       16 </v>
   <v type="int" >        4        2        5        6       16 </v>
   <v type="int" >        4        2        5       15       16 </v>
   <v type="int" >        4        2        3       13       16 </v>
   <v type="int" >        4        2       12       13       16 </v>
   <v type="int" >        4        2       12       15       16 </v>
   <v type="int" >        4        2        3        3       13 </v>
   <v type="int" >        4        2        2        3       13 </v>
   <v type="int" >        4        2        2       12       13 </v>
   <v type="int" >        4        2        3       13       13 </v>
   <v type="int" >        4        2       12       13       13 </v>
   <v type="int" >        4        2       12       12       13 </v>
   <v type="int" >        4        1        2        5       15 </v>
   <v type="int" >        4        1        2       12       15 </v>
   <v type="int" >        4        1       11       12       15 </v>
   <v type="int" >        4        1        1        2       12 </v>
   <v type="int" >        4        1        1       11       12 </v>
   <v type="int" >        4        1        2       12       12 </v>
   <v type="int" >        4        1       11       12       12 </v>
   <v type="int" >        4        1       11       11       12 </v>
   <v type="int" >        4        1        1        1       11 </v>
   <v type="int" >        4        1        1       11       11 </v>
   <v type="int" >        4        1       11       11       11 </v>
   <v type="int" >        4       11       12       15       21 </v>
   <v type="int" >        4       12       15       21       22 </v>
   <v type="int" >        4       15       21       22       25 </v>
   <v type="int" >        4       12       13       16       22 </v>
   <v type="int" >        4       12       15       16       22 </v>
   <v type="int" >        4       15       16       22       25 </v>
   <v type="int" >        4       13       16       22       23 </v>
   <v type="int" >        4       16       22       23       26 </v>
   <v type="int" >        4       16       22       25       26 </v>
   <v type="int" >        4       13       14       17       23 </v>
   <v type="int" >        4       13       16       17       23 </v>
   <v type="int" >        4       16       17       23       26 </v>
   <v type="int" >        4       14       17       23       24 </v>
   <v type="int" >        4       17       23       24       27 </v>
   <v type="int" >        4       17       23       26       27 </v>
   <v type="int" >        4       14       14       17       24 </v>
   <v type="int" >        4       14       17       17       24 </v>
   <v type="int" >        4       17       17       24       27 </v>
   <v type="int" >        4       14       17       24       24 </v>
   <v type="int" >        4       17       24       24       27 </v>
   <v type="int" >        4       17       24       27       27 </v>
   <v type="int" >        4       13       14       16       24 </v>
   <v type="int" >        4       14       16       17       24 </v>
   <v type="int" >        4       16       17       24       27 </v>
   <v type="int" >        4       13       16       23       24 </v>
   <v type="int" >        4       16       23       24       26 </v>
   <v type="int" >        4       16       24       26       27 </v>
   <v type="int" >        4       12       13       15       23 </v>
   <v type="int" >        4       13       15       16       23 </v>
   <v type="int" >        4       15       16       23       26 </v>
   <v type="int" >        4       12       15       22       23 </v>
   <v type="int" >        4       15       22       23       25 </v>
   <v type="int" >        4       15       23       25       26 </v>
   <v type="int" >        8       11       12       12       22 </v>
   <v type="int" >        4       12       12       15       22 </v>
   <v type="int" >        4       12       15       22       25 </v>
   <v type="int" >        4       11       12       21       22 </v>
   <v type="int" >        8       12       21       22       22 </v>
   <v type="int" >        4       12       22       22       25 </v>
   <v type="int" >        4       11       11       12       21 </v>
   <v type="int" >        4       11       12       12       21 </v>
   <v type="int" >        4       12       12       21       22 </v>
   <v type="int" >        4       11       12       21       21 </v>
   <v type="int" >        4       12       21       21       22 </v>
   <v type="int" >        4       15       16       18       25 </v>
   <v type="int" >        4       16       18       25       26 </v>
   <v type="int" >        4       18       25       26       28 </v>
   <v type="int" >        4       16       17       19       26 </v>
   <v type="int" >        4       16       18       19       26 </v>
   <v type="int" >        4       18       19       26       28 </v>
   <v type="int" >        4       17       19       26       27 </v>
   <v type="int" >        4       19       26       27       29 </v>
   <v type="int" >        4       19       26       28       29 </v>
   <v type="int" >        4       17       17       19       27 </v>
   <v type="int" >        4       17       19       19       27 </v>
   <v type="int" >        4       19       19       27       29 </v>
   <v type="int" >        4       17       19       27       27 </v>
   <v type="int" >        4       19       27       27       29 </v>
   <v type="int" >        4       19       27       29       29 </v>
   <v type="int" >        4       16       17       18       27 </v>
   <v type="int" >        4       17       18       19       27 </v>
   <v type="int" >        4       18       19       27       29 </v>
   <v type="int" >        4       16       18       26       27 </v>
   <v type="int" >        4       18       26       27       28 </v>
   <v type="int" >        4       18       27       28       29 </v>
   <v type="int" >        4       15       16       16       26 </v>
   <v type="int" >        4       16       16       18       26 </v>
   <v type="int" >        4       16       18       26       28 </v>
   <v type="int" >        4       15       16       25       26 </v>
   <v type="int" >        4       16       25       26       26 </v>
   <v type="int" >        4       16       26       26       28 </v>
   <v type="int" >        4       12       13       15       25 </v>
   <v type="int" >        4       13       15       16       25 </v>
   <v type="int" >        4       13       16       25       26 </v>
   <v type="int" >        4       12       13       22       25 </v>
   <v type="int" >        4       13       22       23       25 </v>
   <v type="int" >        4       13       23       25       26 </v>
   <v type="int" >        4       12       12       13       22 </v>
   <v type="int" >        4       12       13       13       22 </v>
   <v type="int" >        4       13       13       22       23 </v>
   <v type="int" >        4       12       13       22       22 </v>
   <v type="int" >        4       13       22       22       23 </v>
   <v type="int" >        4       13       22       23       23 </v>
   <v type="int" >        4       18       19       20       28 </v>
   <v type="int" >        4       19       20       28       29 </v>
   <v type="int" >        4       20       28       29       30 </v>
   <v type="int" >        8       19       19       20       29 </v>
   <v type="int" >        4       19       20       20       29 </v>
   <v type="int" >        4       20       20       29       30 </v>
   <v type="int" >        4       19       20       29       29 </v>
   <v type="int" >        4       20       29       29       30 </v>
   <v type="int" >        4       20       29       30       30 </v>
   <v type="int" >        4       18       19       19       29 </v>
   <v type="int" >        4       19       20       29       30 </v>
   <v type="int" >        4       18       19       28       29 </v>
   <v type="int" >        4       19       28       29       29 </v>
   <v type="int" >        8       19       29       29       30 </v>
   <v type="int" >        4       16       17       18       28 </v>
   <v type="int" >        4       17       18       19       28 </v>
   <v type="int" >        4       17       19       28       29 </v>
   <v type="int" >        4       16       17       26       28 </v>
   <v type="int" >        4       17       26       27       28 </v>
   <v type="int" >        4       17       27       28       29 </v>
   <v type="int" >        4       13       14       16       26 </v>
   <v type="int" >        4       14       16       17       26 </v>
   <v type="int" >        4       14       17       26       27 </v>
   <v type="int" >        4       13       14       23       26 </v>
   <v type="int" >        4       14       23       24       26 </v>
   <v type="int" >        4       14       24       26       27 </v>
   <v type="int" >        4       13       13       14       23 </v>
   <v type="int" >        4       13       14       14       23 </v>
   <v type="int" >        4       14       14       23       24 </v>
   <v type="int" >        4       13       14       23       23 </v>
   <v type="int" >        4       14       23       23       24 </v>
   <v type="int" >        4       14       23       24       24 </v>
   <v type="int" >        4       20       20       20       30 </v>
   <v type="int" >        4       20       20       30       30 </v>
   <v type="int" >        4       20       30       30       30 </v>
   <v type="int" >        4       19       19       20       30 </v>
   <v type="int" >        4       19       20       20       30 </v>
   <v type="int" >        4       19       20       30       30 </v>
   <v type="int" >        4       19       19       29       30 </v>
   <v type="int" >        4       19       29       30       30 </v>
   <v type="int" >        4       17       17       19       29 </v>
   <v type="int" >        4       17       19       19       29 </v>
   <v type="int" >        4       17       19       29       29 </v>
   <v type="int" >        4       17       17       27       29 </v>
   <v type="int" >        4       17       27       27       29 </v>
   <v type="int" >        4       17       27       29       29 </v>
   <v type="int" >        4       14       14       17       27 </v>
   <v type="int" >        4       14       17       17       27 </v>
   <v type="int" >        4       14       17       27       27 </v>
   <v type="int" >        4       14       14       24       27 </v>
   <v type="int" >        4       14       24       24       27 </v>
   <v type="int" >        4       14       24       27       27 </v>
   <v type="int" >        8       14       14       14       24 </v>
   <v type="int" >        8       14       14       24       24 </v>
   <v type="int" >        8       14       24       24       24 </v>
   <v type="int" >        4       18       19       20       30 </v>
   <v type="int" >        4       18       19       29       30 </v>
   <v type="int" >        4       18       28       29       30 </v>
   <v type="int" >        4       16       17       19       29 </v>
   <v type="int" >        4       16       18       19       29 </v>
   <v type="int" >        4       16       18       28       29 </v>
   <v type="int" >        4       16       17       27       29 </v>
   <v type="int" >        4       16       26       27       29 </v>
   <v type="int" >        4       16       26       28       29 </v>
   <v type="int" >        4       13       14       17       27 </v>
   <v type="int" >        4       13       16       17       27 </v>
   <v type="int" >        4       13       16       26       27 </v>
   <v type="int" >        4       13       14       24       27 </v>
   <v type="int" >        4       13       23       24       27 </v>
   <v type="int" >        4       13       23       26       27 </v>
   <v type="int" >        4       13       14       14       24 </v>
   <v type="int" >        4       13       13       14       24 </v>
   <v type="int" >        4       13       13       23       24 </v>
   <v type="int" >        4       13       14       24       24 </v>
   <v type="int" >        4       13       23       24       24 </v>
   <v type="int" >        4       13       23       23       24 </v>
   <v type="int" >        4       15       16       18       28 </v>
   <v type="int" >        4       15       16       26       28 </v>
   <v type="int" >        4       15       25       26       28 </v>
   <v type="int" >        4       12       13       16       26 </v>
   <v type="int" >        4       12       15       16       26 </v>
   <v type="int" >        4       12       15       25       26 </v>
   <v type="int" >        4       12       13       23       26 </v>
   <v type="int" >        4       12       22       23       26 </v>
   <v type="int" >        4       12       22       25       26 </v>
   <v type="int" >        4       12       13       13       23 </v>
   <v type="int" >        4       12       12       13       23 </v>
   <v type="int" >        4       12       12       22       23 </v>
   <v type="int" >        4       12       13       23       23 </v>
   <v type="int" >        4       12       22       23       23 </v>
   <v type="int" >        4       12       22       22       23 </v>
   <v type="int" >        4       11       12       15       25 </v>
   <v type="int" >        4       11       12       22       25 </v>
   <v type="int" >        4       11       21       22       25 </v>
   <v type="int" >        4       11       11       12       22 </v>
   <v type="int" >        4       11       11       21       22 </v>
   <v type="int" >        4       11       12       22       22 </v>
   <v type="int" >        4       11       21       22       22 </v>
   <v type="int" >        4       11       21       21       22 </v>
   <v type="int" >        4       11       11       11       21 </v>
   <v type="int" >        4       11       11       21       21 </v>
   <v type="int" >        4       11       21       21       21 </v>
   <v type="int" >        4       21       22       25       31 </v>
   <v type="int" >        4       22       25       31       32 </v>
   <v type="int" >        4       25       31       32       35 </v>
   <v type="int" >        4       22       23       26       32 </v>
   <v type="int" >        4       22       25       26       32 </v>
   <v type="int" >        4       25       26       32       35 </v>
   <v type="int" >        4       23       26       32       33 </v>
   <v type="int" >        4       26       32       33       36 </v>
   <v type="int" >        4       26       32       35       36 </v>
   <v type="int" >        4       23       24       27       33 </v>
   <v type="int" >        4       23       26       27       33 </v>
   <v type="int" >        4       26       27       33       36 </v>
   <v type="int" >        4       24       27       33       34 </v>
   <v type="int" >        4       27       33       34       37 </v>
   <v type="int" >        4       27       33       36       37 </v>
   <v type="int" >        4       24       24       27       34 </v>
   <v type="int" >        4       24       27       27       34 </v>
   <v type="int" >        4       27       27       34       37 </v>
   <v type="int" >        4       24       27       34       34 </v>
   <v type="int" >        4       27       34       34       37 </v>
   <v type="int" >        4       27       34       37       37 </v>
   <v type="int" >        4       23       24       26       34 </v>
   <v type="int" >        4       24       26       27       34 </v>
   <v type="int" >        4       26       27       34       37 </v>
   <v type="int" >        4       23       26       33       34 </v>
   <v type="int" >        4       26       33       34       36 </v>
   <v type="int" >        4       26       34       36       37 </v>
   <v type="int" >        4       22       23       25       33 </v>
   <v type="int" >        4       23       25       26       33 </v>
   <v type="int" >        4       25       26       33       36 </v>
   <v type="int" >        4       22       25       32       33 </v>
   <v type="int" >        4       25       32       33       35 </v>
   <v type="int" >        4       25       33       35       36 </v>
   <v type="int" >        8       21       22       22       32 </v>
   <v type="int" >        4       22       22       25       32 </v>
   <v type="int" >        4       22       25       32       35 </v>
   <v type="int" >        4       21       22       31       32 </v>
   <v type="int" >        8       22       31       32       32 </v>
   <v type="int" >        4       22       32       32       35 </v>
   <v type="int" >        4       21       21       22       31 </v>
   <v type="int" >        4       21       22       22       31 </v>
   <v type="int" >        4       22       22       31       32 </v>
   <v type="int" >        4       21       22       31       31 </v>
   <v type="int" >        4       22       31       31       32 </v>
   <v type="int" >        4       25       26       28       35 </v>
   <v type="int" >        4       26       28       35       36 </v>
   <v type="int" >        4       28       35       36       38 </v>
   <v type="int" >        4       26       27       29       36 </v>
   <v type="int" >        4       26       28       29       36 </v>
   <v type="int" >        4       28       29       36       38 </v>
   <v type="int" >        4       27       29       36       37 </v>
   <v type="int" >        4       29       36       37       39 </v>
   <v type="int" >        4       29       36       38       39 </v>
   <v type="int" >        4       27       27       29       37 </v>
   <v type="int" >        4       27       29       29       37 </v>
   <v type="int" >        4       29       29       37       39 </v>
   <v type="int" >        4       27       29       37       37 </v>
   <v type="int" >        4       29       37       37       39 </v>
   <v type="int" >        4       29       37       39       39 </v>
   <v type="int" >        4       26       27       28       37 </v>
   <v type="int" >        4       27       28       29       37 </v>
   <v type="int" >        4       28       29       37       39 </v>
   <v type="int" >        4       26       28       36       37 </v>
   <v type="int" >        4       28       36       37       38 </v>
   <v type="int" >        4       28       37       38       39 </v>
   <v type="int" >        4       25       26       26       36 </v>
   <v type="int" >        4       26       26       28       36 </v>
   <v type="int" >        4       26       28       36       38 </v>
   <v type="int" >        4       25       26       35       36 </v>
   <v type="int" >        4       26       35       36       36 </v>
   <v type="int" >        4       26       36       36       38 </v>
   <v type="int" >        4       22       23       25       35 </v>
   <v type="int" >        4       23       25       26       35 </v>
   <v type="int" >        4       23       26       35       36 </v>
   <v type="int" >        4       22       23       32       35 </v>
   <v type="int" >        4       23       32       33       35 </v>
   <v type="int" >        4       23       33       35       36 </v>
   <v type="int" >        4       22       22       23       32 </v>
   <v type="int" >        4       22       23       23       32 </v>
   <v type="int" >        4       23       23       32       33 </v>
   <v type="int" >        4       22       23       32       32 </v>
   <v type="int" >        4       23       32       32       33 </v>
   <v type="int" >        4       23       32       33       33 </v>
   <v type="int" >        4       28       29       30       38 </v>
   <v type="int" >        4       29       30       38       39 </v>
   <v type="int" >        4       30       38       39       40 </v>
   <v type="int" >        8       29       29       30       39 </v>
   <v type="int" >        4       29       30       30       39 </v>
   <v type="int" >        4       30       30       39       40 </v>
   <v type="int" >        4       29       30       39       39 </v>
   <v type="int" >        4       30       39       39       40 </v>
   <v type="int" >        4       30       39       40       40 </v>
   <v type="int" >        4       28       29       29       39 </v>
   <v type="int" >        4       29       30       39       40 </v>
   <v type="int" >        4       28       29       38       39 </v>
   <v type="int" >        4       29       38       39       39 </v>
   <v type="int" >        8       29       39       39       40 </v>
   <v type="int" >        4       26       27       28       38 </v>
   <v type="int" >        4       27       28       29       38 </v>
   <v type="int" >        4       27       29       38       39 </v>
   <v type="int" >        4       26       27       36       38 </v>
   <v type="int" >        4       27       36       37       38 </v>
   <v type="int" >        4       27       37       38       39 </v>
   <v type="int" >        4       23       24       26       36 </v>
   <v type="int" >        4       24       26       27       36 </v>
   <v type="int" >        4       24       27       36       37 </v>
   <v type="int" >        4       23       24       33       36 </v>
   <v type="int" >        4       24       33       34       36 </v>
   <v type="int" >        4       24       34       36       37 </v>
   <v type="int" >        4       23       23       24       33 </v>
   <v type="int" >        4       23       24       24       33 </v>
   <v type="int" >        4       24       24       33       34 </v>
   <v type="int" >        4       23       24       33       33 </v>
   <v type="int" >        4       24       33       33       34 </v>
   <v type="int" >        4       24       33       34       34 </v>
   <v type="int" >        4       30       30       30       40 </v>
   <v type="int" >        4       30       30       40       40 </v>
   <v type="int" >        4       30       40       40       40 </v>
   <v type="int" >        4       29       29       30       40 </v>
   <v type="int" >        4       29       30       30       40 </v>
   <v type="int" >        4       29       30       40       40 </v>
   <v type="int" >        4       29       29       39       40 </v>
   <v type="int" >        4       29       39       40       40 </v>
   <v type="int" >        4       27       27       29       39 </v>
   <v type="int" >        4       27       29       29       39 </v>
   <v type="int" >        4       27       29       39       39 </v>
   <v type="int" >        4       27       27       37       39 </v>
   <v type="int" >        4       27       37       37       39 </v>
   <v type="int" >        4       27       37       39       39 </v>
   <v type="int" >        4       24       24       27       37 </v>
   <v type="int" >        4       24       27       27       37 </v>
   <v type="int" >        4       24       27       37       37 </v>
   <v type="int" >        4       24       24       34       37 </v>
   <v type="int" >        4       24       34       34       37 </v>
   <v type="int" >        4       24       34       37       37 </v>
   <v type="int" >        8       24       24       24       34 </v>
   <v type="int" >        8       24       24       34       34 </v>
   <v type="int" >        8       24       34       34       34 </v>
   <v type="int" >        4       28       29       30       40 </v>
   <v type="int" >        4       28       29       39       40 </v>
   <v type="int" >        4       28       38       39       40 </v>
   <v type="int" >        4       26       27       29       39 </v>
   <v type="int" >        4       26       28       29       39 </v>
   <v type="int" >        4       26       28       38       39 </v>
   <v type="int" >        4       26       27       37       39 </v>
   <v type="int" >        4       26       36       37       39 </v>
   <v type="int" >        4       26       36       38       39 </v>
   <v type="int" >        4       23       24       27       37 </v>
   <v type="int" >        4       23       26       27       37 </v>
   <v type="int" >        4       23       26       36       37 </v>
   <v type="int" >        4       23       24       34       37 </v>
   <v type="int" >        4       23       33       34       37 </v>
   <v type="int" >        4       23       33       36       37 </v>
   <v type="int" >        4       23       24       24       34 </v>
   <v type="int" >        4       23       23       24       34 </v>
   <v type="int" >        4       23       23       33       34 </v>
   <v type="int" >        4       23       24       34       34 </v>
   <v type="int" >        4       23       33       34       34 </v>
   <v type="int" >        4       23       33       33       34 </v>
   <v type="int" >        4       25       26       28       38 </v>
   <v type="int" >        4       25       26       36       38 </v>
   <v type="int" >        4       25       35       36       38 </v>
   <v type="int" >        4       22       23       26       36 </v>
   <v type="int" >        4       22       25       26       36 </v>
   <v type="int" >        4       22       25       35       36 </v>
   <v type="int" >        4       22       23       33       36 </v>
   <v type="int" >        4       22       32       33       36 </v>
   <v type="int" >        4       22       32       35       36 </v>
   <v type="int" >        4       22       23       23       33 </v>
   <v type="int" >        4       22       22       23       33 </v>
   <v type="int" >        4       22       22       32       33 </v>
   <v type="int" >        4       22       23       33       33 </v>
   <v type="int" >        4       22       32       33       33 </v>
   <v type="int" >        4       22       32       32       33 </v>
   <v type="int" >        4       21       22       25       35 </v>
   <v type="int" >        4       21       22       32       35 </v>
   <v type="int" >        4       21       31       32       35 </v>
   <v type="int" >        4       21       21       22       32 </v>
   <v type="int" >        4       21       21       31       32 </v>
   <v type="int" >        4       21       22       32       32 </v>
   <v type="int" >        4       21       31       32       32 </v>
   <v type="int" >        4       21       31       31       32 </v>
   <v type="int" >        4       21       21       21       31 </v>
   <v type="int" >        4       21       21       31       31 </v>
   <v type="int" >        4       21       31       31       31 </v>
   <v type="int" >        4       31       31       32       35 </v>
   <v type="int" >        4       31       32       32       35 </v>
   <v type="int" >        4       31       32       35       35 </v>
   <v type="int" >        4       32       32       33       36 </v>
   <v type="int" >        4       32       32       35       36 </v>
   <v type="int" >        4       32       35       35       36 </v>
   <v type="int" >        4       32       33       33       36 </v>
   <v type="int" >        4       32       33       36       36 </v>
   <v type="int" >        4       32       35       36       36 </v>
   <v type="int" >        4       33       33       34       37 </v>
   <v type="int" >        4       33       33       36       37 </v>
   <v type="int" >        4       33       36       36       37 </v>
   <v type="int" >        4       33       34       34       37 </v>
   <v type="int" >        4       33       34       37       37 </v>
   <v type="int" >        4       33       36       37       37 </v>
   <v type="int" >        8       34       34       34       37 </v>
   <v type="int" >        8       34       34       37       37 </v>
   <v type="int" >        8       34       37       37       37 </v>
   <v type="int" >        4       33       34       34       36 </v>
   <v type="int" >        4       34       34       36       37 </v>
   <v type="int" >        4       34       36       37       37 </v>
   <v type="int" >        4       33       33       34       36 </v>
   <v type="int" >        4       33       34       36       36 </v>
   <v type="int" >        4       34       36       36       37 </v>
   <v type="int" >        4       32       33       33       35 </v>
   <v type="int" >        4       33       33       35       36 </v>
   <v type="int" >        4       33       35       36       36 </v>
   <v type="int" >        4       32       32       33       35 </v>
   <v type="int" >        4       32       33       35       35 </v>
   <v type="int" >        4       33       35       35       36 </v>
   <v type="int" >       12       31       32       32       32 </v>
   <v type="int" >        4       32       32       32       35 </v>
   <v type="int" >        2       32       32       35       35 </v>
   <v type="int" >       10       31       31       32       32 </v>
   <v type="int" >        8       31       31       31       32 </v>
   <v type="int" >        4       35       35       36       38 </v>
   <v type="int" >        4       35       36       36       38 </v>
   <v type="int" >        4       35       36       38       38 </v>
   <v type="int" >        4       36       36       37       39 </v>
   <v type="int" >        4       36       36       38       39 </v>
   <v type="int" >        4       36       38       38       39 </v>
   <v type="int" >        4       36       37       37       39 </v>
   <v type="int" >        4       36       37       39       39 </v>
   <v type="int" >        4       36       38       39       39 </v>
   <v type="int" >        8       37       37       37       39 </v>
   <v type="int" >        8       37       37       39       39 </v>
   <v type="int" >        8       37       39       39       39 </v>
   <v type="int" >        4       36       37       37       38 </v>
   <v type="int" >        4       37       37       38       39 </v>
   <v type="int" >        4       37       38       39       39 </v>
   <v type="int" >        4       36       36       37       38 </v>
   <v type="int" >        4       36       37       38       38 </v>
   <v type="int" >        4       37       38       38       39 </v>
   <v type="int" >        4       35       36       36       36 </v>
   <v type="int" >        4       36       36       36       38 </v>
   <v type="int" >        2       36       36       38       38 </v>
   <v type="int" >        2       35       35       36       36 </v>
   <v type="int" >        8       32       32       32       33 </v>
   <v type="int" >        8       32       32       33       33 </v>
   <v type="int" >        8       32       33       33       33 </v>
   <v type="int" >        4       38       38       39       40 </v>
   <v type="int" >        4       38       39       39       40 </v>
   <v type="int" >        4       38       39       40       40 </v>
   <v type="int" >       12       39       39       39       40 </v>
   <v type="int" >       10       39       39       40       40 </v>
   <v type="int" >        8       39       40       40       40 </v>
   <v type="int" >        4       38       39       39       39 </v>
   <v type="int" >        2       38       38       39       39 </v>
   <v type="int" >        8       33       33       33       34 </v>
   <v type="int" >        8       33       33       34       34 </v>
   <v type="int" >        8       33       34       34       34 </v>
   <v type="int" >        6       40       40       40       40 </v>
   <v type="int" >       12       34       34       34       34 </v>
   <v type="int" >        6       31       31       31       31 </v>
   <v type="int" >        4        1        1        2        5 </v>
   <v type="int" >        4        1        2        2        5 </v>
   <v type="int" >        4        1        2        5        5 </v>
   <v type="int" >        4        2        2        3        6 </v>
   <v type="int" >        4        2        2        5        6 </v>
   <v type="int" >        4        2        5        5        6 </v>
   <v type="int" >        4        2        3        3        6 </v>
   <v type="int" >        4        2        3        6        6 </v>
   <v type="int" >        4        2        5        6        6 </v>
   <v type="int" >        4        3        3        4        7 </v>
   <v type="int" >        4        3        3        6        7 </v>
   <v type="int" >        4        3        6        6        7 </v>
   <v type="int" >        4        3        4        4        7 </v>
   <v type="int" >        4        3        4        7        7 </v>
   <v type="int" >        4        3        6        7        7 </v>
   <v type="int" >        8        4        4        4        7 </v>
   <v type="int" >        8        4        4        7        7 </v>
   <v type="int" >        8        4        7        7        7 </v>
   <v type="int" >        4        3        4        4        6 </v>
   <v type="int" >        4        4        4        6        7 </v>
   <v type="int" >        4        4        6        7        7 </v>
   <v type="int" >        4        3        3        4        6 </v>
   <v type="int" >        4        3        4        6        6 </v>
   <v type="int" >        4        4        6        6        7 </v>
   <v type="int" >        4        2        3        3        5 </v>
   <v type="int" >        4        3        3        5        6 </v>
   <v type="int" >        4        3        5        6        6 </v>
   <v type="int" >        4        2        2        3        5 </v>
   <v type="int" >        4        2        3        5        5 </v>
   <v type="int" >        4        3        5        5        6 </v>
   <v type="int" >       12        1        2        2        2 </v>
   <v type="int" >        4        2        2        2        5 </v>
   <v type="int" >        2        2        2        5        5 </v>
   <v type="int" >       10        1        1        2        2 </v>
   <v type="int" >        8        1        1        1        2 </v>
   <v type="int" >        4        5        5        6        8 </v>
   <v type="int" >        4        5        6        6        8 </v>
   <v type="int" >        4        5        6        8        8 </v>
   <v type="int" >        4        6        6        7        9 </v>
   <v type="int" >        4        6        6        8        9 </v>
   <v type="int" >        4        6        8        8        9 </v>
   <v type="int" >        4        6        7        7        9 </v>
   <v type="int" >        4        6        7        9        9 </v>
   <v type="int" >        4        6        8        9        9 </v>
   <v type="int" >        8        7        7        7        9 </v>
   <v type="int" >        8        7        7        9        9 </v>
   <v type="int" >        8        7        9        9        9 </v>
   <v type="int" >        4        6        7        7        8 </v>
   <v type="int" >        4        7        7        8        9 </v>
   <v type="int" >        4        7        8        9        9 </v>
   <v type="int" >        4        6        6        7        8 </v>
   <v type="int" >        4        6        7        8        8 </v>
   <v type="int" >        4        7        8        8        9 </v>
   <v type="int" >        4        5        6        6        6 </v>
   <v type="int" >        4        6        6        6        8 </v>
   <v type="int" >        2        6        6        8        8 </v>
   <v type="int" >        2        5        5        6        6 </v>
   <v type="int" >        8        2        2        2        3 </v>
   <v type="int" >        8        2        2        3        3 </v>
   <v type="int" >        8        2        3        3        3 </v>
   <v type="int" >        4        8        8        9       10 </v>
   <v type="int" >        4        8        9        9       10 </v>
   <v type="int" >        4        8        9       10       10 </v>
   <v type="int" >       12        9        9        9       10 </v>
   <v type="int" >       10        9        9       10       10 </v>
   <v type="int" >        8        9       10       10       10 </v>
   <v type="int" >        4        8        9        9        9 </v>
   <v type="int" >        2        8        8        9        9 </v>
   <v type="int" >        8        3        3        3        4 </v>
   <v type="int" >        8        3        3        4        4 </v>
   <v type="int" >        8        3        4        4        4 </v>
   <v type="int" >        6       10       10       10       10 </v>
   <v type="int" >       12        4        4        4        4 </v>
   <v type="int" >        6        1        1        1        1 </v>
  </varray>
  <i name="volumeweight">      0.00032552 </i>
 </kpoints>
 <parameters>
  <separator name="general" >
   <i type="string" name="SYSTEM">unknown system</i>
   <i type="logical" name="LCOMPAT"> F  </i>
  </separator>
  <separator name="electronic" >
   <i type="string" name="PREC">accura</i>
   <i name="ENMAX">    520.00000000</i>
   <i name="ENAUG">    605.39200000</i>
   <i name="EDIFF">      0.00025000</i>
   <i type="int" name="IALGO">    38</i>
   <i type="int" name="IWAVPR">    10</i>
   <i type="int" name="NBANDS">    32</i>
   <i name="NELECT">     38.00000000</i>
   <i type="int" name="TURBO">     0</i>
   <i type="int" name="IRESTART">     0</i>
   <i type="int" name="NREBOOT">     0</i>
   <i type="int" name="NMIN">     0</i>
   <i name="EREF">      0.00000000</i>
   <separator name="electronic smearing" >
    <i type="int" name="ISMEAR">    -5</i>
    <i name="SIGMA">      0.05000000</i>
    <i name="KSPACING">      0.50000000</i>
    <i type="logical" name="KGAMMA"> T  </i>
   </separator>
   <separator name="electronic projectors" >
    <i type="logical" name="LREAL"> T  </i>
    <v name="ROPT">     -0.00025000     -0.00025000     -0.00025000</v>
    <i type="int" name="LMAXPAW">  -100</i>
    <i type="int" name="LMAXMIX">     2</i>
    <i type="logical" name="NLSPLINE"> F  </i>
   </separator>
   <separator name="electronic startup" >
    <i type="int" name="ISTART">     0</i>
    <i type="int" name="ICHARG">     0</i>
    <i type="int" name="INIWAV">     1</i>
   </separator>
   <separator name="electronic spin" >
    <i type="int" name="ISPIN">     2</i>
    <i type="logical" name="LNONCOLLINEAR"> F  </i>
    <v name="MAGMOM">      0.60000000      0.60000000      0.60000000      0.60000000      0.60000000</v>
    <i name="NUPDOWN">     -1.00000000</i>
    <i type="logical" name="LSORBIT"> F  </i>
    <v name="SAXIS">      0.00000000      0.00000000      1.00000000</v>
    <i type="logical" name="LSPIRAL"> F  </i>
    <v name="QSPIRAL">      0.00000000      0.00000000      0.00000000</v>
    <i type="logical" name="LZEROZ"> F  </i>
   </separator>
   <separator name="electronic exchange-correlation" >
    <i type="logical" name="LASPH"> F  </i>
    <i type="logical" name="LMETAGGA"> F  </i>
   </separator>
   <separator name="electronic convergence" >
    <i type="int" name="NELM">   100</i>
    <i type="int" name="NELMDL">    -5</i>
    <i type="int" name="NELMIN">     2</i>
    <i name="ENINI">    520.00000000</i>
    <separator name="electronic convergence detail" >
     <i type="logical" name="LDIAG"> T  </i>
     <i type="logical" name="LSUBROT"> F  </i>
     <i name="WEIMIN">      0.00000000</i>
     <i name="EBREAK">      0.00000195</i>
     <i name="DEPER">      0.30000000</i>
     <i type="int" name="NRMM">     4</i>
     <i name="TIME">      0.40000000</i>
    </separator>
   </separator>
   <separator name="electronic mixer" >
    <i name="AMIX">      0.40000000</i>
    <i name="BMIX">      1.00000000</i>
    <i name="AMIN">      0.10000000</i>
    <i name="AMIX_MAG">      1.60000000</i>
    <i name="BMIX_MAG">      1.00000000</i>
    <separator name="electronic mixer details" >
     <i type="int" name="IMIX">     4</i>
     <i type="int" name="MAXMIX">   -45</i>
     <i name="WC">    100.00000000</i>
     <i type="int" name="INIMIX">     1</i>
     <i type="int" name="MIXPRE">     1</i>
     <i type="int" name="MREMOVE">     5</i>
    </separator>
   </separator>
   <separator name="electronic dipolcorrection" >
    <i type="logical" name="LDIPOL"> F  </i>
    <i type="logical" name="LMONO"> F  </i>
    <i type="int" name="IDIPOL">     0</i>
    <i name="EPSILON">      1.00000000</i>
    <v name="DIPOL">   -100.00000000   -100.00000000   -100.00000000</v>
    <i name="EFIELD">      0.00000000</i>
   </separator>
  </separator>
  <separator name="grids" >
   <i type="int" name="NGX">    30</i>
   <i type="int" name="NGY">    30</i>
   <i type="int" name="NGZ">    32</i>
   <i type="int" name="NGXF">    60</i>
   <i type="int" name="NGYF">    60</i>
   <i type="int" name="NGZF">    64</i>
   <i type="logical" name="ADDGRID"> F  </i>
  </separator>
  <separator name="ionic" >
   <i type="int" name="NSW">     0</i>
   <i type="int" name="IBRION">    -1</i>
   <i type="int" name="ISIF">     3</i>
   <i name="PSTRESS">      0.00000000</i>
   <i name="EDIFFG">      0.00250000</i>
   <i type="int" name="NFREE">     0</i>
   <i name="POTIM">      0.50000000</i>
   <i name="SMASS">     -3.00000000</i>
   <i name="SCALEE">      1.00000000</i>
  </separator>
  <separator name="ionic md" >
   <i name="TEBEG">      0.00010000</i>
   <i name="TEEND">      0.00010000</i>
   <i type="int" name="NBLOCK">     1</i>
   <i type="int" name="KBLOCK">     1</i>
   <i type="int" name="NPACO">   256</i>
   <i name="APACO">     16.00000000</i>
  </separator>
  <separator name="symmetry" >
   <i type="int" name="ISYM">     2</i>
   <i name="SYMPREC">      0.00001000</i>
  </separator>
  <separator name="dos" >
   <i type="logical" name="LORBIT"> F  </i>
   <v name="RWIGS">     -1.00000000     -1.00000000     -1.00000000</v>
   <i type="int" name="NEDOS">   301</i>
   <i name="EMIN">     10.00000000</i>
   <i name="EMAX">    -10.00000000</i>
   <i name="EFERMI">      0.00000000</i>
  </separator>
  <separator name="writing" >
   <i type="int" name="NWRITE">     2</i>
   <i type="logical" name="LWAVE"> T  </i>
   <i type="logical" name="LCHARG"> T  </i>
   <i type="logical" name="LPARD"> F  </i>
   <i type="logical" name="LVTOT"> F  </i>
   <i type="logical" name="LVHAR"> T  </i>
   <i type="logical" name="LELF"> F  </i>
   <i type="logical" name="LOPTICS"> F  </i>
   <v name="STM">      0.00000000      0.00000000      0.00000000      0.00000000      0.00000000      0.00000000      0.00000000</v>
  </separator>
  <separator name="performance" >
   <i type="int" name="NPAR">     8</i>
   <i type="int" name="NSIM">     4</i>
   <i type="int" name="NBLK">    -1</i>
   <i type="logical" name="LPLANE"> T  </i>
   <i type="logical" name="LSCALAPACK"> T  </i>
   <i type="logical" name="LSCAAWARE"> F  </i>
   <i type="logical" name="LSCALU"> F  </i>
   <i type="logical" name="LASYNC"> F  </i>
   <i type="logical" name="LORBITALREAL"> F  </i>
  </separator>
  <separator name="miscellaneous" >
   <i type="int" name="IDIOT">     3</i>
   <i type="logical" name="LMUSIC"> F  </i>
   <v name="POMASS">    137.32700000     47.88000000     16.00000000</v>
   <v name="DARWINR">      0.00000000      0.00000000      0.00000000</v>
   <v name="DARWINV">      1.00000000      1.00000000      1.00000000</v>
   <i type="logical" name="LCORR"> T  </i>
  </separator>
  <i type="logical" name="GGA_COMPAT"> T  </i>
  <i type="logical" name="LBERRY"> F  </i>
  <i type="int" name="ICORELEVEL">     0</i>
  <i type="logical" name="LDAU"> F  </i>
  <i type="int" name="I_CONSTRAINED_M">     0</i>
  <separator name="electronic exchange-correlation" >
   <i type="string" name="GGA">--</i>
   <i type="int" name="VOSKOWN">     0</i>
   <i type="logical" name="LHFCALC"> F  </i>
   <i type="string" name="PRECFOCK"></i>
   <i type="logical" name="LSYMGRAD"> F  </i>
   <i type="logical" name="LHFONE"> F  </i>
   <i type="logical" name="LRHFCALC"> F  </i>
   <i type="logical" name="LTHOMAS"> F  </i>
   <i type="logical" name="LMODELHF"> F  </i>
   <i name="ENCUT4O">     -1.00000000</i>
   <i type="int" name="EXXOEP">     0</i>
   <i type="int" name="FOURORBIT">     0</i>
   <i name="AEXX">      0.00000000</i>
   <i name="HFALPHA">      0.00000000</i>
   <i name="MCALPHA">      0.00000000</i>
   <i name="ALDAX">      1.00000000</i>
   <i name="AGGAX">      1.00000000</i>
   <i name="ALDAC">      1.00000000</i>
   <i name="AGGAC">      1.00000000</i>
   <i type="int" name="NKREDX">     1</i>
   <i type="int" name="NKREDY">     1</i>
   <i type="int" name="NKREDZ">     1</i>
   <i type="logical" name="SHIFTRED"> F  </i>
   <i type="logical" name="ODDONLY"> F  </i>
   <i type="logical" name="EVENONLY"> F  </i>
   <i type="int" name="LMAXFOCK">     0</i>
   <i type="int" name="NMAXFOCKAE">     0</i>
   <i type="logical" name="LFOCKAEDFT"> F  </i>
   <i name="HFSCREEN">      0.00000000</i>
   <i name="HFSCREENC">      0.00000000</i>
   <i type="int" name="NBANDSGWLOW">     0</i>
  </separator>
  <separator name="vdW DFT" >
   <i type="logical" name="LUSE_VDW"> F  </i>
   <i name="Zab_VDW">     -0.84910000</i>
   <i name="PARAM1">      0.12340000</i>
   <i name="PARAM2">      1.00000000</i>
   <i name="PARAM3">      0.00000000</i>
  </separator>
  <separator name="model GW" >
   <i type="int" name="MODEL_GW">     0</i>
   <i name="MODEL_EPS0">      7.97443559</i>
   <i name="MODEL_ALPHA">      1.00000000</i>
  </separator>
  <separator name="linear response parameters" >
   <i type="logical" name="LEPSILON"> F  </i>
   <i type="logical" name="LRPA"> F  </i>
   <i type="logical" name="LNABLA"> F  </i>
   <i type="logical" name="LVEL"> F  </i>
   <i type="int" name="KINTER">     0</i>
   <i name="CSHIFT">      0.10000000</i>
   <i name="OMEGAMAX">     -1.00000000</i>
   <i name="DEG_THRESHOLD">      0.00200000</i>
  </separator>
  <separator name="orbital magnetization" >
   <i type="logical" name="NUCIND"> F  </i>
   <v name="MAGPOS">      0.00000000      0.00000000      0.00000000</v>
   <i type="logical" name="LNICSALL"> T  </i>
   <i type="logical" name="ORBITALMAG"> F  </i>
   <i type="logical" name="LMAGBLOCH"> F  </i>
   <i type="logical" name="LCHIMAG"> F  </i>
   <i type="logical" name="LGAUGE"> T  </i>
   <i type="int" name="MAGATOM">     0</i>
   <v name="MAGDIPOL">      0.00000000      0.00000000      0.00000000</v>
   <v name="AVECCONST">      0.00000000      0.00000000      0.00000000</v>
  </separator>
  <separator name="response functions" >
   <i type="logical" name="LADDER"> F  </i>
   <i type="logical" name="LFXC"> F  </i>
   <i type="logical" name="LHARTREE"> T  </i>
   <i type="int" name="IBSE">     0</i>
   <i type="logical" name="LTCTE"> F  </i>
   <i type="logical" name="LTETE"> F  </i>
   <i type="logical" name="LTRIPLET"> F  </i>
   <i type="logical" name="LFXCEPS"> F  </i>
   <i type="logical" name="LFXHEG"> F  </i>
   <i type="logical" name="L2ORDER"> F  </i>
   <i type="logical" name="LUSEW"> F  </i>
   <i name="ENCUTGW">     -2.00000000</i>
   <i name="ENCUTGWSOFT">     -2.00000000</i>
   <i name="ENCUTLF">     -1.00000000</i>
   <i type="int" name="LMAXMP2">    -1</i>
   <i name="SCISSOR">      0.00000000</i>
   <i type="int" name="NOMEGA">     0</i>
   <i type="int" name="NOMEGAR">     0</i>
   <i type="int" name="NBANDSGW">    -1</i>
   <i type="int" name="NBANDSO">    -1</i>
   <i type="int" name="NBANDSV">    -1</i>
   <i type="int" name="NELM">   100</i>
   <i type="int" name="DIM">     3</i>
   <i type="int" name="ANTIRES">     0</i>
   <i name="OMEGAMAX">    -30.00000000</i>
   <i name="OMEGAMIN">    -30.00000000</i>
   <i name="OMEGATL">   -200.00000000</i>
   <i type="int" name="OMEGAGRID">     0</i>
   <i name="CSHIFT">     -0.10000000</i>
   <i type="logical" name="SELFENERGY"> F  </i>
   <i type="logical" name="LSPECTRAL"> F  </i>
   <i type="logical" name="ODDONLYGW"> F  </i>
   <i type="logical" name="EVENONLYGW"> F  </i>
   <i type="int" name="NKREDLFX">     1</i>
   <i type="int" name="NKREDLFY">     1</i>
   <i type="int" name="NKREDLFZ">     1</i>
   <i type="int" name="MAXMEM">  1800</i>
   <i type="int" name="TELESCOPE">     0</i>
   <i type="int" name="TAUPAR">     1</i>
  </separator>
  <separator name="External order field" >
   <i name="OFIELD_KAPPA">      0.00000000</i>
   <v name="OFIELD_K">      0.00000000      0.00000000      0.00000000</v>
   <i name="OFIELD_Q6_NEAR">      0.00000000</i>
   <i name="OFIELD_Q6_FAR">      0.00000000</i>
   <i name="OFIELD_A">      0.00000000</i>
  </separator>
 </parameters>
 <atominfo>
  <atoms>       5 </atoms>
  <types>       3 </types>
  <array name="atoms" >
   <dimension dim="1">ion</dimension>
   <field type="string">element</field>
   <field type="int">atomtype</field>
   <set>
    <rc><c>Ba</c><c>   1</c></rc>
    <rc><c>Ti</c><c>   2</c></rc>
    <rc><c>O </c><c>   3</c></rc>
    <rc><c>O </c><c>   3</c></rc>
    <rc><c>O </c><c>   3</c></rc>
   </set>
  </array>
  <array name="atomtypes" >
   <dimension dim="1">type</dimension>
   <field type="int">atomspertype</field>
   <field type="string">element</field>
   <field>mass</field>
   <field>valence</field>
   <field type="string">pseudopotential</field>
   <set>
    <rc><c>   1</c><c>Ba</c><c>    137.32700000</c><c>     10.00000000</c><c>  PAW_PBE Ba_sv 06Sep2000               </c></rc>
    <rc><c>   1</c><c>Ti</c><c>     47.88000000</c><c>     10.00000000</c><c>  PAW_PBE Ti_pv 07Sep2000               </c></rc>
    <rc><c>   3</c><c>O </c><c>     16.00000000</c><c>      6.00000000</c><c>  PAW_PBE O 08Apr2002                   </c></rc>
   </set>
  </array>
 </atominfo>
 <structure name="initialpos" >
  <crystal>
   <varray name="basis" >
    <v>       4.01896600       0.00000000       0.00000000 </v>
    <v>       0.00000000       4.01896600       0.00000000 </v>
    <v>       0.00000000       0.00000000       4.11424400 </v>
   </varray>
   <i name="volume">     66.45362994 </i>
   <varray name="rec_basis" >
    <v>       0.24882022       0.00000000       0.00000000 </v>
    <v>       0.00000000       0.24882022       0.00000000 </v>
    <v>       0.00000000       0.00000000       0.24305802 </v>
   </varray>
  </crystal>
  <varray name="positions" >
   <v>       0.00000000       0.00000000       0.01056600 </v>
   <v>       0.50000000       0.50000000       0.51882300 </v>
   <v>       0.00000000       0.50000000       0.49801000 </v>
   <v>       0.50000000       0.00000000       0.49801000 </v>
   <v>       0.50000000       0.50000000       0.98859100 </v>
  </varray>
 </structure>
 <calculation>
  <scstep>
   <time name="dav">   10.14   10.14</time>
   <time name="total">   10.34   10.35</time>
   <energy>
    <i name="alphaZ">    252.14934681 </i>
    <i name="ewald">  -2493.57441055 </i>
    <i name="hartreedc">    -61.10090743 </i>
    <i name="XCdc">    115.40070592 </i>
    <i name="pawpsdc"> 114037.56361341 </i>
    <i name="pawaedc">-114037.01416899 </i>
    <i name="eentropy">      0.00000000 </i>
    <i name="bandstr">  -1746.44245296 </i>
    <i name="atom">   3040.52701931 </i>
    <i name="e_fr_energy">   -892.49125448 </i>
    <i name="e_wo_entrp">   -892.49125448 </i>
    <i name="e_0_energy">   -892.49125448 </i>
   </energy>
  </scstep>
  <scstep>
   <time name="dav">    8.69    8.69</time>
   <time name="total">    8.79    8.83</time>
   <energy>
    <i name="e_fr_energy">  -1304.78417181 </i>
    <i name="e_wo_entrp">  -1304.78417181 </i>
    <i name="e_0_energy">  -1304.78417181 </i>
   </energy>
  </scstep>
  <scstep>
   <time name="dav">   10.09   10.09</time>
   <time name="total">   10.11   10.11</time>
   <energy>
    <i name="e_fr_energy">  -1330.66542865 </i>
    <i name="e_wo_entrp">  -1330.66542865 </i>
    <i name="e_0_energy">  -1330.66542865 </i>
   </energy>
  </scstep>
  <scstep>
   <time name="dav">   11.17   11.17</time>
   <time name="total">   11.19   11.19</time>
   <energy>
    <i name="e_fr_energy">  -1331.47568209 </i>
    <i name="e_wo_entrp">  -1331.47568209 </i>
    <i name="e_0_energy">  -1331.47568209 </i>
   </energy>
  </scstep>
  <scstep>
   <time name="dav">   12.26   12.26</time>
   <time name="total">   12.74   12.74</time>
   <energy>
    <i name="e_fr_energy">  -1331.50500304 </i>
    <i name="e_wo_entrp">  -1331.50500304 </i>
    <i name="e_0_energy">  -1331.50500304 </i>
   </energy>
  </scstep>
  <scstep>
   <time name="dav">   13.55   13.55</time>
   <time name="total">   14.15   14.14</time>
   <energy>
    <i name="e_fr_energy">   -239.79255716 </i>
    <i name="e_wo_entrp">   -239.79255716 </i>
    <i name="e_0_energy">   -239.79255716 </i>
   </energy>
  </scstep>
  <scstep>
   <time name="dav">    9.73    9.72</time>
   <time name="total">   10.31   10.31</time>
   <energy>
    <i name="e_fr_energy">    -88.27857680 </i>
    <i name="e_wo_entrp">    -88.27857680 </i>
    <i name="e_0_energy">    -88.27857680 </i>
   </energy>
  </scstep>
  <scstep>
   <time name="dav">   10.58   10.58</time>
   <time name="total">   11.24   11.25</time>
   <energy>
    <i name="e_fr_energy">    -59.81337371 </i>
    <i name="e_wo_entrp">    -59.81337371 </i>
    <i name="e_0_energy">    -59.81337371 </i>
   </energy>
  </scstep>
  <scstep>
   <time name="dav">   10.51   10.64</time>
   <time name="total">   11.38   11.54</time>
   <energy>
    <i name="e_fr_energy">    -55.15941929 </i>
    <i name="e_wo_entrp">    -55.15941929 </i>
    <i name="e_0_energy">    -55.15941929 </i>
   </energy>
  </scstep>
  <scstep>
   <time name="dav">    9.76    9.76</time>
   <time name="total">   10.42   10.43</time>
   <energy>
    <i name="e_fr_energy">    -64.02750797 </i>
    <i name="e_wo_entrp">    -64.02750797 </i>
    <i name="e_0_energy">    -64.02750797 </i>
   </energy>
  </scstep>
  <scstep>
   <time name="dav">   11.42   11.42</time>
   <time name="total">   12.08   12.08</time>
   <energy>
    <i name="e_fr_energy">    -58.17290244 </i>
    <i name="e_wo_entrp">    -58.17290244 </i>
    <i name="e_0_energy">    -58.17290244 </i>
   </energy>
  </scstep>
  <scstep>
   <time name="dav">   10.88   10.90</time>
   <time name="total">   11.55   11.57</time>
   <energy>
    <i name="e_fr_energy">    -69.89023610 </i>
    <i name="e_wo_entrp">    -69.89023610 </i>
    <i name="e_0_energy">    -69.89023610 </i>
   </energy>
  </scstep>
  <scstep>
   <time name="dav">   10.75   10.76</time>
   <time name="total">   11.34   11.39</time>
   <energy>
    <i name="e_fr_energy">    -45.02019428 </i>
    <i name="e_wo_entrp">    -45.02019428 </i>
    <i name="e_0_energy">    -45.02019428 </i>
   </energy>
  </scstep>
  <scstep>
   <time name="dav">   10.42   10.44</time>
   <time name="total">   11.01   11.03</time>
   <energy>
    <i name="e_fr_energy">    -42.69762001 </i>
    <i name="e_wo_entrp">    -42.69762001 </i>
    <i name="e_0_energy">    -42.69762001 </i>
   </energy>
  </scstep>
  <scstep>
   <time name="dav">    9.95    9.96</time>
   <time name="total">   10.54   10.55</time>
   <energy>
    <i name="e_fr_energy">    -40.43994289 </i>
    <i name="e_wo_entrp">    -40.43994289 </i>
    <i name="e_0_energy">    -40.43994289 </i>
   </energy>
  </scstep>
  <scstep>
   <time name="dav">   11.10   11.09</time>
   <time name="total">   11.68   11.70</time>
   <energy>
    <i name="e_fr_energy">    -40.21087139 </i>
    <i name="e_wo_entrp">    -40.21087139 </i>
    <i name="e_0_energy">    -40.21087139 </i>
   </energy>
  </scstep>
  <scstep>
   <time name="dav">   10.97   10.97</time>
   <time name="total">   11.56   11.77</time>
   <energy>
    <i name="e_fr_energy">    -40.33470363 </i>
    <i name="e_wo_entrp">    -40.33470363 </i>
    <i name="e_0_energy">    -40.33470363 </i>
   </energy>
  </scstep>
  <scstep>
   <time name="dav">   10.34   10.34</time>
   <time name="total">   10.93   10.93</time>
   <energy>
    <i name="e_fr_energy">    -40.16580957 </i>
    <i name="e_wo_entrp">    -40.16580957 </i>
    <i name="e_0_energy">    -40.16580957 </i>
   </energy>
  </scstep>
  <scstep>
   <time name="dav">   10.90   10.90</time>
   <time name="total">   11.49   11.49</time>
   <energy>
    <i name="e_fr_energy">    -40.58646805 </i>
    <i name="e_wo_entrp">    -40.58646805 </i>
    <i name="e_0_energy">    -40.58646805 </i>
   </energy>
  </scstep>
  <scstep>
   <time name="dav">   10.33   10.33</time>
   <time name="total">   10.92   10.92</time>
   <energy>
    <i name="e_fr_energy">    -40.30567349 </i>
    <i name="e_wo_entrp">    -40.30567349 </i>
    <i name="e_0_energy">    -40.30567349 </i>
   </energy>
  </scstep>
  <scstep>
   <time name="dav">   10.51   10.50</time>
   <time name="total">   11.10   11.10</time>
   <energy>
    <i name="e_fr_energy">    -40.09043175 </i>
    <i name="e_wo_entrp">    -40.09043175 </i>
    <i name="e_0_energy">    -40.09043175 </i>
   </energy>
  </scstep>
  <scstep>
   <time name="dav">   11.31   11.31</time>
   <time name="total">   11.90   11.90</time>
   <energy>
    <i name="e_fr_energy">    -40.01242095 </i>
    <i name="e_wo_entrp">    -40.01242095 </i>
    <i name="e_0_energy">    -40.01242095 </i>
   </energy>
  </scstep>
  <scstep>
   <time name="dav">   10.83   10.84</time>
   <time name="total">   11.43   11.46</time>
   <energy>
    <i name="e_fr_energy">    -39.95126625 </i>
    <i name="e_wo_entrp">    -39.95126625 </i>
    <i name="e_0_energy">    -39.95126625 </i>
   </energy>
  </scstep>
  <scstep>
   <time name="dav">   11.05   11.05</time>
   <time name="total">   11.64   11.65</time>
   <energy>
    <i name="e_fr_energy">    -39.92007873 </i>
    <i name="e_wo_entrp">    -39.92007873 </i>
    <i name="e_0_energy">    -39.92007873 </i>
   </energy>
  </scstep>
  <scstep>
   <time name="dav">   11.55   11.54</time>
   <time name="total">   12.15   12.15</time>
   <energy>
    <i name="e_fr_energy">    -39.91102357 </i>
    <i name="e_wo_entrp">    -39.91102357 </i>
    <i name="e_0_energy">    -39.91102357 </i>
   </energy>
  </scstep>
  <scstep>
   <time name="dav">   11.57   11.56</time>
   <time name="total">   12.16   12.63</time>
   <energy>
    <i name="e_fr_energy">    -39.90754723 </i>
    <i name="e_wo_entrp">    -39.90754723 </i>
    <i name="e_0_energy">    -39.90754723 </i>
   </energy>
  </scstep>
  <scstep>
   <time name="dav">   10.71   10.70</time>
   <time name="total">   11.30   11.30</time>
   <energy>
    <i name="e_fr_energy">    -39.90474453 </i>
    <i name="e_wo_entrp">    -39.90474453 </i>
    <i name="e_0_energy">    -39.90474453 </i>
   </energy>
  </scstep>
  <scstep>
   <time name="dav">   10.47   10.47</time>
   <time name="total">   11.07   11.08</time>
   <energy>
    <i name="e_fr_energy">    -39.90445836 </i>
    <i name="e_wo_entrp">    -39.90445836 </i>
    <i name="e_0_energy">    -39.90445836 </i>
   </energy>
  </scstep>
  <scstep>
   <time name="dav">    7.60    7.60</time>
   <time name="total">    7.73    7.74</time>
   <energy>
    <i name="alphaZ">    252.14934681 </i>
    <i name="ewald">  -2493.57441055 </i>
    <i name="hartreedc">   -644.89834042 </i>
    <i name="XCdc">    146.50476109 </i>
    <i name="pawpsdc">   3574.73471711 </i>
    <i name="pawaedc">  -3584.04122612 </i>
    <i name="eentropy">      0.00000000 </i>
    <i name="bandstr">   -331.30625963 </i>
    <i name="atom">   3040.52701931 </i>
    <i name="e_fr_energy">    -39.90439241 </i>
    <i name="e_wo_entrp">    -39.90439241 </i>
    <i name="e_0_energy">    -39.90439241 </i>
   </energy>
  </scstep>
  <structure>
   <crystal>
    <varray name="basis" >
     <v>       4.01896600       0.00000000       0.00000000 </v>
     <v>       0.00000000       4.01896600       0.00000000 </v>
     <v>       0.00000000       0.00000000       4.11424400 </v>
    </varray>
    <i name="volume">     66.45362994 </i>
    <varray name="rec_basis" >
     <v>       0.24882022       0.00000000       0.00000000 </v>
     <v>       0.00000000       0.24882022       0.00000000 </v>
     <v>       0.00000000       0.00000000       0.24305802 </v>
    </varray>
   </crystal>
   <varray name="positions" >
    <v>       0.00000000       0.00000000       0.01056600 </v>
    <v>       0.50000000       0.50000000       0.51882300 </v>
    <v>       0.00000000       0.50000000       0.49801000 </v>
    <v>       0.50000000       0.00000000       0.49801000 </v>
    <v>       0.50000000       0.50000000       0.98859100 </v>
   </varray>
  </structure>
  <varray name="forces" >
   <v>       0.00000000      -0.00000000      -0.04986881 </v>
   <v>       0.00000000       0.00000000       0.47900983 </v>
   <v>       0.00000000      -0.00000000      -0.04777991 </v>
   <v>      -0.00000000      -0.00000000      -0.04777991 </v>
   <v>       0.00000000      -0.00000000      -0.33358119 </v>
  </varray>
  <varray name="stress" >
   <v>      -1.76762929       0.00000000       0.00000000 </v>
   <v>       0.00000000      -1.76762929       0.00000000 </v>
   <v>       0.00000000       0.00000000     -26.17329873 </v>
  </varray>
  <energy>
   <i name="e_fr_energy">    -39.90439241 </i>
   <i name="e_wo_entrp">    -39.90439241 </i>
   <i name="e_0_energy">      0.00000000 </i>
  </energy>
  <time name="totalsc">  336.84  339.09</time>
  <eigenvalues>
   <array>
    <dimension dim="1">band</dimension>
    <dimension dim="2">kpoint</dimension>
    <dimension dim="3">spin</dimension>
    <field>eigene</field>
    <field>occ</field>
    <set>
     <set comment="spin 1">
      <set comment="kpoint 1">
       <r>  -30.0447    1.0000 </r>
       <r>  -30.0155    1.0000 </r>
       <r>  -30.0154    1.0000 </r>
       <r>  -21.9839    1.0000 </r>
       <r>  -13.9005    1.0000 </r>
       <r>  -13.2107    1.0000 </r>
       <r>  -13.2082    1.0000 </r>
       <r>   -7.1767    1.0000 </r>
       <r>   -7.1423    1.0000 </r>
       <r>   -7.0891    1.0000 </r>
       <r>    0.4590    1.0000 </r>
       <r>    0.5605    1.0000 </r>
       <r>    0.5893    1.0000 </r>
       <r>    1.6215    1.0000 </r>
       <r>    1.6288    1.0000 </r>
       <r>    1.8897    1.0000 </r>
       <r>    2.3487    1.0000 </r>
       <r>    2.5983    1.0000 </r>
       <r>    2.6048    1.0000 </r>
       <r>    4.8228    0.0000 </r>
       <r>    4.9167    0.0000 </r>
       <r>    4.9353    0.0000 </r>
       <r>    6.8517    0.0000 </r>
       <r>    6.9236    0.0000 </r>
       <r>    8.0223    0.0000 </r>
       <r>    8.2697    0.0000 </r>
       <r>   10.1608    0.0000 </r>
       <r>   11.3056    0.0000 </r>
       <r>   11.3164    0.0000 </r>
[...]
        <r>  0.0466  0.0264  0.0010  0.0118  0.0000  0.0000  0.0000  0.0000  0.0000 </r>
        <r>  0.0001  0.0107  0.0004  0.0082  0.0000  0.0000  0.0000  0.0000  0.0000 </r>
        <r>  0.0028  0.0016  0.0044  0.0021  0.0000  0.0000  0.0000  0.0000  0.0000 </r>
       </set>
       <set comment="band 27">
        <r>  0.0008  0.0002  0.0001  0.0034  0.3824  0.0071  0.0065  0.0148  0.0002 </r>
        <r>  0.0002  0.0006  0.0081  0.0002  0.0004  0.0096  0.1287  0.0007  0.0378 </r>
        <r>  0.0003  0.0005  0.0014  0.0450  0.0000  0.0000  0.0000  0.0000  0.0000 </r>
        <r>  0.0017  0.0012  0.0054  0.0003  0.0000  0.0000  0.0000  0.0000  0.0000 </r>
        <r>  0.0420  0.0254  0.0238  0.0008  0.0000  0.0000  0.0000  0.0000  0.0000 </r>
       </set>
       <set comment="band 28">
        <r>  0.0005  0.0028  0.0002  0.0002  0.0030  0.0020  0.1977  0.0007  0.4522 </r>
        <r>  0.0000  0.0000  0.0002  0.0002  0.0003  0.0002  0.0001  0.0020  0.0000 </r>
        <r>  0.0000  0.0001  0.0330  0.0001  0.0000  0.0000  0.0000  0.0000  0.0000 </r>
        <r>  0.0000  0.0001  0.0039  0.0043  0.0000  0.0000  0.0000  0.0000  0.0000 </r>
        <r>  0.0001  0.0001  0.0000  0.0421  0.0000  0.0000  0.0000  0.0000  0.0000 </r>
       </set>
       <set comment="band 29">
        <r>  0.0020  0.0000  0.0007  0.0013  0.0026  0.0039  0.5302  0.0000  0.2184 </r>
        <r>  0.0000  0.0000  0.0002  0.0003  0.0001  0.0000  0.0001  0.0000  0.0000 </r>
        <r>  0.0000  0.0077  0.0107  0.0001  0.0000  0.0000  0.0000  0.0000  0.0000 </r>
        <r>  0.0000  0.0000  0.0028  0.0033  0.0000  0.0000  0.0000  0.0000  0.0000 </r>
        <r>  0.0000  0.0070  0.0001  0.0031  0.0000  0.0000  0.0000  0.0000  0.0000 </r>
       </set>
       <set comment="band 30">
        <r>  0.3987  0.0000  0.0022  0.0021  0.0039  0.0029  0.0006  0.0007  0.0151 </r>
        <r>  0.0000  0.0000  0.0000  0.0000  0.0021  0.0012  0.0000  0.0064  0.0000 </r>
        <r>  0.0003  0.0070  0.0268  0.0000  0.0000  0.0000  0.0000  0.0000  0.0000 </r>
        <r>  0.0000  0.0000  0.0122  0.0085  0.0000  0.0000  0.0000  0.0000  0.0000 </r>
        <r>  0.0004  0.0114  0.0000  0.0309  0.0000  0.0000  0.0000  0.0000  0.0000 </r>
       </set>
       <set comment="band 31">
        <r>  0.0137  0.0026  0.0588  0.0469  0.0107  0.0126  0.0139  0.0082  0.0056 </r>
        <r>  0.0004  0.0118  0.0085  0.0093  0.0011  0.0011  0.0001  0.0002  0.0001 </r>
        <r>  0.0059  0.0345  0.0002  0.0026  0.0000  0.0000  0.0000  0.0000  0.0000 </r>
        <r>  0.0022  0.0063  0.0342  0.0502  0.0000  0.0000  0.0000  0.0000  0.0000 </r>
        <r>  0.0042  0.0244  0.0029  0.0001  0.0000  0.0000  0.0000  0.0000  0.0000 </r>
       </set>
       <set comment="band 32">
        <r>  0.0213  0.0004  0.0448  0.0605  0.0099  0.0065  0.0200  0.0013  0.0167 </r>
        <r>  0.0005  0.0019  0.0068  0.0023  0.0011  0.0013  0.0006  0.0005  0.0001 </r>
        <r>  0.0034  0.0273  0.0001  0.0007  0.0000  0.0000  0.0000  0.0000  0.0000 </r>
        <r>  0.0002  0.0016  0.0449  0.0435  0.0000  0.0000  0.0000  0.0000  0.0000 </r>
        <r>  0.0044  0.0307  0.0008  0.0007  0.0000  0.0000  0.0000  0.0000  0.0000 </r>
       </set>
      </set>
      <set comment="kpoint 40">
       <set comment="band 1">
        <r>  0.0000  0.0000  0.0000  0.0000  0.0000  0.0000  0.0000  0.0000  0.0000 </r>
        <r>  0.0000  0.0001  0.9802  0.0001  0.0000  0.0000  0.0000  0.0000  0.0000 </r>
        <r>  0.0000  0.0000  0.0000  0.0000  0.0000  0.0000  0.0000  0.0000  0.0000 </r>
        <r>  0.0000  0.0000  0.0000  0.0000  0.0000  0.0000  0.0000  0.0000  0.0000 </r>
        <r>  0.0063  0.0000  0.0007  0.0000  0.0000  0.0000  0.0000  0.0000  0.0000 </r>
       </set>
       <set comment="band 2">
        <r>  0.0000  0.0000  0.0000  0.0000  0.0000  0.0000  0.0000  0.0000  0.0000 </r>
        <r>  0.0000  0.4896  0.0002  0.4896  0.0000  0.0000  0.0000  0.0000  0.0000 </r>
        <r>  0.0035  0.0000  0.0000  0.0001  0.0000  0.0000  0.0000  0.0000  0.0000 </r>
        <r>  0.0035  0.0001  0.0000  0.0000  0.0000  0.0000  0.0000  0.0000  0.0000 </r>
        <r>  0.0000  0.0000  0.0000  0.0000  0.0000  0.0000  0.0000  0.0000  0.0000 </r>
       </set>
       <set comment="band 3">
        <r>  0.0000  0.0000  0.0000  0.0000  0.0000  0.0000  0.0000  0.0000  0.0000 </r>
        <r>  0.0000  0.4897  0.0000  0.4897  0.0000  0.0000  0.0000  0.0000  0.0000 </r>
        <r>  0.0035  0.0000  0.0000  0.0001  0.0000  0.0000  0.0000  0.0000  0.0000 </r>
        <r>  0.0035  0.0001  0.0000  0.0000  0.0000  0.0000  0.0000  0.0000  0.0000 </r>
        <r>  0.0000  0.0000  0.0000  0.0000  0.0000  0.0000  0.0000  0.0000  0.0000 </r>
       </set>
       <set comment="band 4">
        <r>  0.9808  0.0000  0.0000  0.0000  0.0000  0.0000  0.0000  0.0000  0.0000 </r>
        <r>  0.0000  0.0000  0.0000  0.0000  0.0000  0.0000  0.0000  0.0000  0.0000 </r>
        <r>  0.0000  0.0000  0.0000  0.0000  0.0000  0.0000  0.0000  0.0000  0.0000 </r>
        <r>  0.0000  0.0000  0.0000  0.0000  0.0000  0.0000  0.0000  0.0000  0.0000 </r>
        <r>  0.0000  0.0000  0.0000  0.0000  0.0000  0.0000  0.0000  0.0000  0.0000 </r>
       </set>
       <set comment="band 5">
        <r>  0.0000  0.0019  0.0005  0.0019  0.0048  0.0006  0.0000  0.0006  0.0000 </r>
        <r>  0.0033  0.0042  0.0274  0.0042  0.0000  0.0000  0.0032  0.0000  0.0000 </r>
        <r>  0.0824  0.0000  0.0000  0.0000  0.0000  0.0000  0.0000  0.0000  0.0000 </r>
        <r>  0.0824  0.0000  0.0000  0.0000  0.0000  0.0000  0.0000  0.0000  0.0000 </r>
        <r>  0.5997  0.0000  0.0003  0.0000  0.0000  0.0000  0.0000  0.0000  0.0000 </r>
       </set>
       <set comment="band 6">
        <r>  0.0000  0.0001  0.0018  0.0001  0.0013  0.0021  0.0000  0.0021  0.0000 </r>
        <r>  0.0012  0.0154  0.0077  0.0154  0.0000  0.0001  0.0025  0.0001  0.0000 </r>
        <r>  0.3007  0.0000  0.0000  0.0000  0.0000  0.0000  0.0000  0.0000  0.0000 </r>
        <r>  0.3007  0.0000  0.0000  0.0000  0.0000  0.0000  0.0000  0.0000  0.0000 </r>
        <r>  0.1680  0.0000  0.0001  0.0000  0.0000  0.0000  0.0000  0.0000  0.0000 </r>
       </set>
       <set comment="band 7">
        <r>  0.0000  0.0007  0.0000  0.0007  0.0000  0.0027  0.0000  0.0027  0.0000 </r>
        <r>  0.0000  0.0198  0.0000  0.0198  0.0000  0.0001  0.0000  0.0001  0.0025 </r>
        <r>  0.3855  0.0000  0.0000  0.0000  0.0000  0.0000  0.0000  0.0000  0.0000 </r>
        <r>  0.3855  0.0000  0.0000  0.0000  0.0000  0.0000  0.0000  0.0000  0.0000 </r>
        <r>  0.0000  0.0000  0.0000  0.0000  0.0000  0.0000  0.0000  0.0000  0.0000 </r>
       </set>
       <set comment="band 8">
        <r>  0.0000  0.4032  0.0000  0.4032  0.0000  0.0000  0.0000  0.0000  0.0001 </r>
        <r>  0.0000  0.0001  0.0000  0.0001  0.0000  0.0035  0.0000  0.0035  0.0000 </r>
        <r>  0.0011  0.0000  0.0074  0.0000  0.0000  0.0000  0.0000  0.0000  0.0000 </r>
        <r>  0.0011  0.0000  0.0074  0.0000  0.0000  0.0000  0.0000  0.0000  0.0000 </r>
        <r>  0.0000  0.0086  0.0000  0.0086  0.0000  0.0000  0.0000  0.0000  0.0000 </r>
       </set>
       <set comment="band 9">
        <r>  0.0001  0.3320  0.1440  0.3320  0.0001  0.0000  0.0001  0.0000  0.0000 </r>
        <r>  0.0000  0.0001  0.0000  0.0001  0.0014  0.0028  0.0001  0.0028  0.0000 </r>
        <r>  0.0001  0.0029  0.0062  0.0000  0.0000  0.0000  0.0000  0.0000  0.0000 </r>
        <r>  0.0001  0.0000  0.0062  0.0029  0.0000  0.0000  0.0000  0.0000  0.0000 </r>
        <r>  0.0034  0.0065  0.0000  0.0065  0.0000  0.0000  0.0000  0.0000  0.0000 </r>
       </set>
       <set comment="band 10">
        <r>  0.0002  0.0722  0.6685  0.0722  0.0000  0.0001  0.0000  0.0001  0.0000 </r>
        <r>  0.0000  0.0000  0.0000  0.0000  0.0058  0.0005  0.0000  0.0005  0.0000 </r>
        <r>  0.0028  0.0122  0.0012  0.0000  0.0000  0.0000  0.0000  0.0000  0.0000 </r>
        <r>  0.0028  0.0000  0.0012  0.0122  0.0000  0.0000  0.0000  0.0000  0.0000 </r>
        <r>  0.0007  0.0014  0.0000  0.0014  0.0000  0.0000  0.0000  0.0000  0.0000 </r>
       </set>
       <set comment="band 11">
        <r>  0.0000  0.0000  0.0000  0.0000  0.0006  0.0002  0.0000  0.0002  0.0000 </r>
        <r>  0.2148  0.0017  0.0012  0.0017  0.0000  0.0001  0.0049  0.0001  0.0000 </r>
        <r>  0.0006  0.0001  0.0001  0.1937  0.0000  0.0000  0.0000  0.0000  0.0000 </r>
        <r>  0.0006  0.1937  0.0001  0.0001  0.0000  0.0000  0.0000  0.0000  0.0000 </r>
        <r>  0.0005  0.0001  0.1355  0.0001  0.0000  0.0000  0.0000  0.0000  0.0000 </r>
       </set>
       <set comment="band 12">
        <r>  0.0000  0.0001  0.0000  0.0001  0.0000  0.0001  0.0000  0.0001  0.0000 </r>
        <r>  0.0000  0.0019  0.0000  0.0019  0.0000  0.0001  0.0000  0.0001  0.3892 </r>
        <r>  0.0001  0.0000  0.0001  0.2499  0.0000  0.0000  0.0000  0.0000  0.0000 </r>
        <r>  0.0001  0.2499  0.0001  0.0000  0.0000  0.0000  0.0000  0.0000  0.0000 </r>
        <r>  0.0000  0.0000  0.0000  0.0000  0.0000  0.0000  0.0000  0.0000  0.0000 </r>
       </set>
       <set comment="band 13">
        <r>  0.0000  0.0001  0.0000  0.0001  0.0005  0.0001  0.0000  0.0001  0.0000 </r>
        <r>  0.0020  0.0005  0.0037  0.0005  0.0000  0.0000  0.3717  0.0000  0.0000 </r>
        <r>  0.0000  0.0000  0.0001  0.0651  0.0000  0.0000  0.0000  0.0000  0.0000 </r>
        <r>  0.0000  0.0651  0.0001  0.0000  0.0000  0.0000  0.0000  0.0000  0.0000 </r>
        <r>  0.0004  0.0000  0.3689  0.0000  0.0000  0.0000  0.0000  0.0000  0.0000 </r>
       </set>
       <set comment="band 14">
        <r>  0.0026  0.0142  0.0984  0.0142  0.0005  0.0016  0.0003  0.0016  0.0000 </r>
        <r>  0.0002  0.0001  0.0000  0.0001  0.1289  0.0195  0.0000  0.0195  0.0000 </r>
        <r>  0.0000  0.1668  0.0274  0.0002  0.0000  0.0000  0.0000  0.0000  0.0000 </r>
        <r>  0.0000  0.0002  0.0274  0.1668  0.0000  0.0000  0.0000  0.0000  0.0000 </r>
        <r>  0.0000  0.0236  0.0002  0.0236  0.0000  0.0000  0.0000  0.0000  0.0000 </r>
       </set>
       <set comment="band 15">
        <r>  0.0006  0.0511  0.0332  0.0511  0.0018  0.0000  0.0011  0.0000  0.0000 </r>
        <r>  0.0001  0.0003  0.0001  0.0003  0.0400  0.0643  0.0000  0.0643  0.0000 </r>
        <r>  0.0000  0.0514  0.0842  0.0001  0.0000  0.0000  0.0000  0.0000  0.0000 </r>
        <r>  0.0000  0.0001  0.0842  0.0514  0.0000  0.0000  0.0000  0.0000  0.0000 </r>
        <r>  0.0001  0.0840  0.0001  0.0840  0.0000  0.0000  0.0000  0.0000  0.0000 </r>
       </set>
       <set comment="band 16">
        <r>  0.0000  0.0687  0.0000  0.0687  0.0000  0.0007  0.0000  0.0007  0.0014 </r>
        <r>  0.0000  0.0004  0.0000  0.0004  0.0000  0.0845  0.0000  0.0845  0.0001 </r>
        <r>  0.0000  0.0001  0.1183  0.0001  0.0000  0.0000  0.0000  0.0000  0.0000 </r>
        <r>  0.0000  0.0001  0.1183  0.0001  0.0000  0.0000  0.0000  0.0000  0.0000 </r>
        <r>  0.0000  0.1019  0.0000  0.1019  0.0000  0.0000  0.0000  0.0000  0.0000 </r>
       </set>
       <set comment="band 17">
        <r>  0.0000  0.0001  0.0002  0.0001  0.0045  0.0013  0.0012  0.0013  0.0000 </r>
        <r>  0.0000  0.0001  0.0007  0.0001  0.0001  0.0001  0.0002  0.0001  0.0000 </r>
        <r>  0.0002  0.0001  0.1807  0.0000  0.0000  0.0000  0.0000  0.0000  0.0000 </r>
        <r>  0.0002  0.0000  0.1807  0.0001  0.0000  0.0000  0.0000  0.0000  0.0000 </r>
        <r>  0.0008  0.1879  0.0004  0.1879  0.0000  0.0000  0.0000  0.0000  0.0000 </r>
       </set>
       <set comment="band 18">
        <r>  0.0000  0.0004  0.0000  0.0004  0.0000  0.0021  0.0000  0.0021  0.0003 </r>
        <r>  0.0000  0.0002  0.0000  0.0002  0.0000  0.0000  0.0000  0.0000  0.0001 </r>
        <r>  0.0004  0.0211  0.1633  0.0001  0.0000  0.0000  0.0000  0.0000  0.0000 </r>
        <r>  0.0004  0.0001  0.1633  0.0211  0.0000  0.0000  0.0000  0.0000  0.0000 </r>
        <r>  0.0000  0.1876  0.0000  0.1876  0.0000  0.0000  0.0000  0.0000  0.0000 </r>
       </set>
       <set comment="band 19">
        <r>  0.0000  0.0000  0.0000  0.0000  0.0000  0.0012  0.0000  0.0012  0.0006 </r>
        <r>  0.0000  0.0002  0.0000  0.0002  0.0000  0.0001  0.0000  0.0001  0.0001 </r>
        <r>  0.0003  0.3532  0.0115  0.0000  0.0000  0.0000  0.0000  0.0000  0.0000 </r>
        <r>  0.0003  0.0000  0.0115  0.3532  0.0000  0.0000  0.0000  0.0000  0.0000 </r>
        <r>  0.0000  0.0110  0.0000  0.0110  0.0000  0.0000  0.0000  0.0000  0.0000 </r>
       </set>
       <set comment="band 20">
        <r>  0.0002  0.0029  0.0000  0.0029  0.0004  0.0001  0.0006  0.0001  0.0000 </r>
        <r>  0.0001  0.0002  0.0005  0.0002  0.0060  0.3810  0.0004  0.3810  0.0000 </r>
        <r>  0.0001  0.0005  0.0418  0.0000  0.0000  0.0000  0.0000  0.0000  0.0000 </r>
        <r>  0.0001  0.0000  0.0418  0.0005  0.0000  0.0000  0.0000  0.0000  0.0000 </r>
        <r>  0.0003  0.0360  0.0002  0.0360  0.0000  0.0000  0.0000  0.0000  0.0000 </r>
       </set>
       <set comment="band 21">
        <r>  0.0000  0.0028  0.0000  0.0028  0.0000  0.0002  0.0000  0.0002  0.0016 </r>
        <r>  0.0000  0.0002  0.0000  0.0002  0.0000  0.3846  0.0000  0.3846  0.0004 </r>
        <r>  0.0001  0.0000  0.0426  0.0000  0.0000  0.0000  0.0000  0.0000  0.0000 </r>
        <r>  0.0001  0.0000  0.0426  0.0000  0.0000  0.0000  0.0000  0.0000  0.0000 </r>
        <r>  0.0000  0.0357  0.0000  0.0357  0.0000  0.0000  0.0000  0.0000  0.0000 </r>
       </set>
       <set comment="band 22">
        <r>  0.0005  0.0000  0.0051  0.0000  0.0000  0.0003  0.0012  0.0003  0.0000 </r>
        <r>  0.0000  0.0002  0.0000  0.0002  0.7650  0.0029  0.0000  0.0029  0.0000 </r>
        <r>  0.0002  0.0768  0.0003  0.0000  0.0000  0.0000  0.0000  0.0000  0.0000 </r>
        <r>  0.0002  0.0000  0.0003  0.0768  0.0000  0.0000  0.0000  0.0000  0.0000 </r>
        <r>  0.0000  0.0003  0.0000  0.0003  0.0000  0.0000  0.0000  0.0000  0.0000 </r>
       </set>
       <set comment="band 23">
        <r>  0.0001  0.0003  0.0002  0.0003  0.2484  0.0391  0.0002  0.0391  0.0000 </r>
        <r>  0.0002  0.0031  0.0313  0.0031  0.0010  0.0015  0.2089  0.0015  0.0000 </r>
        <r>  0.0066  0.0000  0.0019  0.0134  0.0000  0.0000  0.0000  0.0000  0.0000 </r>
        <r>  0.0066  0.0134  0.0019  0.0000  0.0000  0.0000  0.0000  0.0000  0.0000 </r>
        <r>  0.0375  0.0019  0.0670  0.0019  0.0000  0.0000  0.0000  0.0000  0.0000 </r>
       </set>
       <set comment="band 24">
        <r>  0.0000  0.0003  0.0000  0.0003  0.0000  0.2354  0.0000  0.2354  0.0006 </r>
        <r>  0.0000  0.0140  0.0000  0.0140  0.0000  0.0016  0.0000  0.0016  0.0492 </r>
        <r>  0.0339  0.0050  0.0019  0.0053  0.0000  0.0000  0.0000  0.0000  0.0000 </r>
        <r>  0.0339  0.0053  0.0019  0.0050  0.0000  0.0000  0.0000  0.0000  0.0000 </r>
        <r>  0.0000  0.0012  0.0000  0.0012  0.0000  0.0000  0.0000  0.0000  0.0000 </r>
       </set>
       <set comment="band 25">
        <r>  0.0004  0.0004  0.0010  0.0004  0.0570  0.2150  0.0004  0.2150  0.0000 </r>
        <r>  0.0002  0.0098  0.0068  0.0098  0.0046  0.0024  0.0252  0.0024  0.0000 </r>
        <r>  0.0279  0.0002  0.0018  0.0004  0.0000  0.0000  0.0000  0.0000  0.0000 </r>
        <r>  0.0279  0.0004  0.0018  0.0002  0.0000  0.0000  0.0000  0.0000  0.0000 </r>
        <r>  0.0088  0.0016  0.0207  0.0016  0.0000  0.0000  0.0000  0.0000  0.0000 </r>
       </set>
       <set comment="band 26">
        <r>  0.0001  0.0002  0.0000  0.0002  0.2089  0.0015  0.0004  0.0015  0.0000 </r>
        <r>  0.0005  0.0002  0.0004  0.0002  0.0000  0.0003  0.4355  0.0003  0.0000 </r>
        <r>  0.0001  0.0000  0.0003  0.0325  0.0000  0.0000  0.0000  0.0000  0.0000 </r>
        <r>  0.0001  0.0325  0.0003  0.0000  0.0000  0.0000  0.0000  0.0000  0.0000 </r>
        <r>  0.0265  0.0017  0.1150  0.0017  0.0000  0.0000  0.0000  0.0000  0.0000 </r>
       </set>
       <set comment="band 27">
        <r>  0.0000  0.0000  0.0000  0.0000  0.0000  0.0200  0.0000  0.0200  0.0001 </r>
        <r>  0.0000  0.0001  0.0000  0.0001  0.0000  0.0004  0.0000  0.0004  0.6238 </r>
        <r>  0.0004  0.0003  0.0002  0.1434  0.0000  0.0000  0.0000  0.0000  0.0000 </r>
        <r>  0.0004  0.1434  0.0002  0.0003  0.0000  0.0000  0.0000  0.0000  0.0000 </r>
        <r>  0.0000  0.0000  0.0000  0.0000  0.0000  0.0000  0.0000  0.0000  0.0000 </r>
       </set>
       <set comment="band 28">
        <r>  0.0025  0.0003  0.0006  0.0003  0.0004  0.0002  0.7644  0.0002  0.0000 </r>
        <r>  0.0000  0.0000  0.0000  0.0000  0.0003  0.0001  0.0000  0.0001  0.0000 </r>
        <r>  0.0000  0.0067  0.0001  0.0000  0.0000  0.0000  0.0000  0.0000  0.0000 </r>
        <r>  0.0000  0.0000  0.0001  0.0067  0.0000  0.0000  0.0000  0.0000  0.0000 </r>
        <r>  0.0000  0.0036  0.0000  0.0036  0.0000  0.0000  0.0000  0.0000  0.0000 </r>
       </set>
       <set comment="band 29">
        <r>  0.0000  0.0010  0.0000  0.0010  0.0000  0.0003  0.0000  0.0003  0.7736 </r>
        <r>  0.0000  0.0000  0.0000  0.0000  0.0000  0.0001  0.0000  0.0001  0.0000 </r>
        <r>  0.0000  0.0008  0.0068  0.0000  0.0000  0.0000  0.0000  0.0000  0.0000 </r>
        <r>  0.0000  0.0000  0.0068  0.0008  0.0000  0.0000  0.0000  0.0000  0.0000 </r>
        <r>  0.0000  0.0034  0.0000  0.0034  0.0000  0.0000  0.0000  0.0000  0.0000 </r>
       </set>
       <set comment="band 30">
        <r>  0.4451  0.0003  0.0015  0.0003  0.0004  0.0003  0.0058  0.0003  0.0000 </r>
        <r>  0.0000  0.0000  0.0000  0.0000  0.0025  0.0009  0.0000  0.0009  0.0000 </r>
        <r>  0.0000  0.0047  0.0071  0.0000  0.0000  0.0000  0.0000  0.0000  0.0000 </r>
        <r>  0.0000  0.0000  0.0071  0.0047  0.0000  0.0000  0.0000  0.0000  0.0000 </r>
        <r>  0.0000  0.0081  0.0000  0.0081  0.0000  0.0000  0.0000  0.0000  0.0000 </r>
       </set>
       <set comment="band 31">
        <r>  0.0090  0.0377  0.0345  0.0382  0.0052  0.0052  0.0097  0.0053  0.0000 </r>
        <r>  0.0114  0.0061  0.0056  0.0060  0.0019  0.0018  0.0003  0.0018  0.0000 </r>
        <r>  0.0014  0.0270  0.0247  0.0125  0.0000  0.0000  0.0000  0.0000  0.0000 </r>
        <r>  0.0014  0.0125  0.0251  0.0270  0.0000  0.0000  0.0000  0.0000  0.0000 </r>
        <r>  0.0014  0.0258  0.0124  0.0255  0.0000  0.0000  0.0000  0.0000  0.0000 </r>
       </set>
       <set comment="band 32">
        <r>  0.0000  0.0594  0.0000  0.0565  0.0000  0.0017  0.0000  0.0017  0.0423 </r>
        <r>  0.0002  0.0013  0.0000  0.0011  0.0000  0.0034  0.0000  0.0037  0.0001 </r>
        <r>  0.0006  0.0000  0.0422  0.0001  0.0000  0.0000  0.0000  0.0000  0.0000 </r>
        <r>  0.0005  0.0002  0.0401  0.0000  0.0000  0.0000  0.0000  0.0000  0.0000 </r>
        <r>  0.0000  0.0424  0.0001  0.0446  0.0000  0.0000  0.0000  0.0000  0.0000 </r>
       </set>
      </set>
     </set>
    </set>
   </array>
  </projected>
 </calculation>
 <structure name="finalpos" >
  <crystal>
   <varray name="basis" >
    <v>       4.01896600       0.00000000       0.00000000 </v>
    <v>       0.00000000       4.01896600       0.00000000 </v>
    <v>       0.00000000       0.00000000       4.11424400 </v>
   </varray>
   <i name="volume">     66.45362994 </i>
   <varray name="rec_basis" >
    <v>       0.24882022       0.00000000       0.00000000 </v>
    <v>       0.00000000       0.24882022       0.00000000 </v>
    <v>       0.00000000       0.00000000       0.24305802 </v>
   </varray>
  </crystal>
  <varray name="positions" >
   <v>       0.00000000       0.00000000       0.01056600 </v>
   <v>       0.50000000       0.50000000       0.51882300 </v>
   <v>       0.00000000       0.50000000       0.49801000 </v>
   <v>       0.50000000       0.00000000       0.49801000 </v>
   <v>       0.50000000       0.50000000       0.98859100 </v>
  </varray>
 </structure>
</modeling>
