 vasp.5.3.5 31Mar14 (build Oct 24 2014 12:38:34) complex                        
  
 executed on             LinuxIFC date 2016.10.20  19:24:46
 running on    8 total cores
 distrk:  each k-point on    8 cores,    1 groups
 distr:  one band on NCORES_PER_BAND=   1 cores,    8 groups


--------------------------------------------------------------------------------------------------------


 INCAR:
 POTCAR:    PAW_PBE Ba_sv 06Sep2000               
 POTCAR:    PAW_PBE Ti_pv 07Sep2000               
 POTCAR:    PAW_PBE O 08Apr2002                   

 ----------------------------------------------------------------------------- 
|                                                                             |
|           W    W    AA    RRRRR   N    N  II  N    N   GGGG   !!!           |
|           W    W   A  A   R    R  NN   N  II  NN   N  G    G  !!!           |
|           W    W  A    A  R    R  N N  N  II  N N  N  G       !!!           |
|           W WW W  AAAAAA  RRRRR   N  N N  II  N  N N  G  GGG   !            |
|           WW  WW  A    A  R   R   N   NN  II  N   NN  G    G                |
|           W    W  A    A  R    R  N    N  II  N    N   GGGG   !!!           |
|                                                                             |
|      For optimal performance we recommend to set                            |
|        NCORE= 4 - approx SQRT( number of cores)                             |
|      NCORE specifies how many cores store one orbital (NPAR=cpu/NCORE).     |
|      This setting can  greatly improve the performance of VASP for DFT.     |
|      The default, NPAR=number of cores might be grossly inefficient         |
|      on modern multi-core architectures or massively parallel machines.     |
|      Do your own testing !!!!                                               |
|      Unfortunately you need to use the default for GW and RPA calculations. |
|      (for HF NCORE is supported but not extensively tested yet)             |
|                                                                             |
 ----------------------------------------------------------------------------- 

 POTCAR:    PAW_PBE Ba_sv 06Sep2000               
   VRHFIN =Ba: 5s5p6s                                                           
   LEXCH  = PE                                                                  
   EATOM  =   700.8560 eV,   51.5115 Ry                                         
                                                                                
   TITEL  = PAW_PBE Ba_sv 06Sep2000                                             
   LULTRA =        F    use ultrasoft PP ?                                      
   IUNSCR =        1    unscreen: 0-lin 1-nonlin 2-no                           
   RPACOR =    2.400    partial core radius                                     
   POMASS =  137.327; ZVAL   =   10.000    mass and valenz                      
   RCORE  =    2.800    outmost cutoff radius                                   
   RWIGS  =    3.740; RWIGS  =    1.979    wigner-seitz radius (au A)           
   ENMAX  =  187.181; ENMIN  =  140.386 eV                                      
   RCLOC  =    2.516    cutoff for local pot                                    
   LCOR   =        T    correct aug charges                                     
   LPAW   =        T    paw PP                                                  
   EAUG   =  351.165                                                            
   DEXC   =    0.000                                                            
   RMAX   =    2.865    core radius for proj-oper                               
   RAUG   =    1.300    factor for augmentation sphere                          
   RDEP   =    2.976    radius for radial grids                                 
   RDEPT  =    2.289    core radius for aug-charge                              
                                                                                
   Atomic configuration                                                         
   13 entries                                                                   
     n  l   j            E        occ.                                          
     1  0  0.50    -37249.5946   2.0000                                         
     2  0  0.50     -5887.1925   2.0000                                         
     2  1  1.50     -5278.3977   6.0000                                         
     3  0  0.50     -1242.7293   2.0000                                         
     3  1  1.50     -1047.6609   6.0000                                         
     3  2  2.50      -764.6158  10.0000                                         
     4  0  0.50      -243.8228   2.0000                                         
     4  1  1.50      -180.9218   6.0000                                         
     4  2  2.50       -89.6477  10.0000                                         
     5  0  0.50       -33.6549   2.0000                                         
     6  0  0.50        -3.2247   1.9900                                         
     5  1  1.50       -18.7193   6.0000                                         
     5  2  2.50        -2.0115   0.0100                                         
   Description                                                                  
     l       E           TYP  RCUT    TYP  RCUT                                 
     0    -33.6549039     23  2.800                                             
     0     -3.2246942     23  2.800                                             
     1    -18.7193050     23  2.700                                             
     1     27.2116520     23  2.700                                             
     2     -2.0115002     23  2.700                                             
     2      0.3057420     23  2.700                                             
  local pseudopotential read in
  partial core-charges read in
  partial kinetic energy density read in
  atomic valenz-charges read in
  non local Contribution for L=           0  read in
    real space projection operators read in
  non local Contribution for L=           0  read in
    real space projection operators read in
  non local Contribution for L=           1  read in
    real space projection operators read in
  non local Contribution for L=           1  read in
    real space projection operators read in
  non local Contribution for L=           2  read in
    real space projection operators read in
  non local Contribution for L=           2  read in
    real space projection operators read in
    PAW grid and wavefunctions read in
 
   number of l-projection  operators is LMAX  =           6
   number of lm-projection operators is LMMAX =          18
 
 POTCAR:    PAW_PBE Ti_pv 07Sep2000               
   VRHFIN =Ti: d3 s1                                                            
   LEXCH  = PE                                                                  
   EATOM  =  1042.5995 eV,   76.6289 Ry                                         
                                                                                
   TITEL  = PAW_PBE Ti_pv 07Sep2000                                             
   LULTRA =        F    use ultrasoft PP ?                                      
   IUNSCR =        1    unscreen: 0-lin 1-nonlin 2-no                           
   RPACOR =    2.200    partial core radius                                     
   POMASS =   47.880; ZVAL   =   10.000    mass and valenz                      
   RCORE  =    2.500    outmost cutoff radius                                   
   RWIGS  =    2.500; RWIGS  =    1.323    wigner-seitz radius (au A)           
   ENMAX  =  222.335; ENMIN  =  166.751 eV                                      
   RCLOC  =    1.701    cutoff for local pot                                    
   LCOR   =        T    correct aug charges                                     
   LPAW   =        T    paw PP                                                  
   EAUG   =  482.848                                                            
   DEXC   =    0.000                                                            
   RMAX   =    2.564    core radius for proj-oper                               
   RAUG   =    1.300    factor for augmentation sphere                          
   RDEP   =    2.538    radius for radial grids                                 
   RDEPT  =    1.952    core radius for aug-charge                              
                                                                                
   Atomic configuration                                                         
    8 entries                                                                   
     n  l   j            E        occ.                                          
     1  0  0.50     -4865.3608   2.0000                                         
     2  0  0.50      -533.1368   2.0000                                         
     2  1  1.50      -440.5031   6.0000                                         
     3  0  0.50       -59.3186   2.0000                                         
     3  1  1.50       -35.7012   6.0000                                         
     3  2  2.50        -1.9157   3.0000                                         
     4  0  0.50        -3.7291   1.0000                                         
     4  3  2.50        -1.3606   0.0000                                         
   Description                                                                  
     l       E           TYP  RCUT    TYP  RCUT                                 
     1    -35.7012140     23  2.300                                             
     1     -1.3605826     23  2.300                                             
     2     -1.9156996     23  2.500                                             
     2     -0.4063033     23  2.500                                             
     0     -3.7290856     23  2.500                                             
     0     20.4087390     23  2.500                                             
  local pseudopotential read in
  partial core-charges read in
  partial kinetic energy density read in
  atomic valenz-charges read in
  non local Contribution for L=           1  read in
    real space projection operators read in
  non local Contribution for L=           1  read in
    real space projection operators read in
  non local Contribution for L=           2  read in
    real space projection operators read in
  non local Contribution for L=           2  read in
    real space projection operators read in
  non local Contribution for L=           0  read in
    real space projection operators read in
  non local Contribution for L=           0  read in
    real space projection operators read in
    PAW grid and wavefunctions read in
 
   number of l-projection  operators is LMAX  =           6
   number of lm-projection operators is LMMAX =          18
 
 POTCAR:    PAW_PBE O 08Apr2002                   
   VRHFIN =O: s2p4                                                              
   LEXCH  = PE                                                                  
   EATOM  =   432.3788 eV,   31.7789 Ry                                         
                                                                                
   TITEL  = PAW_PBE O 08Apr2002                                                 
   LULTRA =        F    use ultrasoft PP ?                                      
   IUNSCR =        1    unscreen: 0-lin 1-nonlin 2-no                           
   RPACOR =    1.200    partial core radius                                     
   POMASS =   16.000; ZVAL   =    6.000    mass and valenz                      
   RCORE  =    1.520    outmost cutoff radius                                   
   RWIGS  =    1.550; RWIGS  =    0.820    wigner-seitz radius (au A)           
   ENMAX  =  400.000; ENMIN  =  300.000 eV                                      
   ICORE  =        2    local potential                                         
   LCOR   =        T    correct aug charges                                     
   LPAW   =        T    paw PP                                                  
   EAUG   =  605.392                                                            
   DEXC   =    0.000                                                            
   RMAX   =    1.553    core radius for proj-oper                               
   RAUG   =    1.300    factor for augmentation sphere                          
   RDEP   =    1.550    radius for radial grids                                 
   RDEPT  =    1.329    core radius for aug-charge                              
                                                                                
   Atomic configuration                                                         
    4 entries                                                                   
     n  l   j            E        occ.                                          
     1  0  0.50      -514.6923   2.0000                                         
     2  0  0.50       -23.9615   2.0000                                         
     2  1  0.50        -9.0305   4.0000                                         
     3  2  1.50        -9.5241   0.0000                                         
   Description                                                                  
     l       E           TYP  RCUT    TYP  RCUT                                 
     0    -23.9615318     23  1.200                                             
     0     -9.5240782     23  1.200                                             
     1     -9.0304911     23  1.520                                             
     1      8.1634956     23  1.520                                             
     2     -9.5240782      7  1.500                                             
  local pseudopotential read in
  partial core-charges read in
  partial kinetic energy density read in
  kinetic energy density of atom read in
  atomic valenz-charges read in
  non local Contribution for L=           0  read in
    real space projection operators read in
  non local Contribution for L=           0  read in
    real space projection operators read in
  non local Contribution for L=           1  read in
    real space projection operators read in
  non local Contribution for L=           1  read in
    real space projection operators read in
    PAW grid and wavefunctions read in
 
   number of l-projection  operators is LMAX  =           4
   number of lm-projection operators is LMMAX =           8
 

 ----------------------------------------------------------------------------- 
|                                                                             |
|  ADVICE TO THIS USER RUNNING 'VASP/VAMP'   (HEAR YOUR MASTER'S VOICE ...):  |
|                                                                             |
|      You have a (more or less) 'small supercell' and for smaller cells      |
|      it is recommended  to use the reciprocal-space projection scheme!      |
|      The real space optimization is not  efficient for small cells and it   |
|      is also less accurate ...                                              |
|      Therefore set LREAL=.FALSE. in the  INCAR file                         |
|                                                                             |
 ----------------------------------------------------------------------------- 

 Optimization of the real space projectors (new method)

 maximal supplied QI-value         = 13.42
 optimisation between [QCUT,QGAM] = [ 11.67, 23.35] = [ 38.16,152.62] Ry 
 Optimized for a Real-space Cutoff    1.68 Angstroem

   l    n(q)    QCUT    max X(q) W(low)/X(q) W(high)/X(q)  e(spline) 
   0     12    11.673    13.244    0.27E-04    0.53E-05    0.55E-07
   0     12    11.673    14.240    0.39E-04    0.74E-05    0.11E-06
   1     11    11.673     4.828    0.65E-05    0.14E-04    0.51E-07
   1     11    11.673     3.934    0.16E-04    0.58E-04    0.38E-06
   2     11    11.673    87.714    0.23E-03    0.16E-03    0.84E-06
   2     11    11.673    59.874    0.22E-03    0.15E-03    0.81E-06
 Optimization of the real space projectors (new method)

 maximal supplied QI-value         = 15.12
 optimisation between [QCUT,QGAM] = [ 11.64, 23.28] = [ 37.95,151.78] Ry 
 Optimized for a Real-space Cutoff    1.49 Angstroem

   l    n(q)    QCUT    max X(q) W(low)/X(q) W(high)/X(q)  e(spline) 
   1     10    11.641     4.216    0.17E-04    0.40E-04    0.50E-07
   1     10    11.641     5.422    0.66E-04    0.10E-03    0.13E-06
   2      9    11.641    72.084    0.68E-04    0.13E-03    0.50E-06
   2      9    11.641    65.965    0.66E-04    0.13E-03    0.50E-06
   0     10    11.641    41.531    0.10E-03    0.87E-04    0.31E-06
   0     10    11.641    16.290    0.75E-04    0.66E-04    0.24E-06
 Optimization of the real space projectors (new method)

 maximal supplied QI-value         = 24.76
 optimisation between [QCUT,QGAM] = [ 11.64, 23.27] = [ 37.91,151.63] Ry 
 Optimized for a Real-space Cutoff    1.14 Angstroem

   l    n(q)    QCUT    max X(q) W(low)/X(q) W(high)/X(q)  e(spline) 
   0      8    11.635    20.381    0.10E-03    0.33E-03    0.24E-06
   0      8    11.635    15.268    0.11E-03    0.35E-03    0.26E-06
   1      7    11.635     5.964    0.24E-03    0.31E-03    0.30E-06
   1      7    11.635     5.382    0.22E-03    0.25E-03    0.26E-06
  PAW_PBE Ba_sv 06Sep2000               :
 energy of atom  1       EATOM= -700.8560
 kinetic energy error for atom=    0.0005 (will be added to EATOM!!)
  PAW_PBE Ti_pv 07Sep2000               :
 energy of atom  2       EATOM=-1042.5995
 kinetic energy error for atom=    0.0019 (will be added to EATOM!!)
  PAW_PBE O 08Apr2002                   :
 energy of atom  3       EATOM= -432.3788
 kinetic energy error for atom=    0.0208 (will be added to EATOM!!)
 
 
 POSCAR: Ba1 Ti1 O3                              
  positions in direct lattice
  velocities in cartesian coordinates
 exchange correlation table for  LEXCH =        8
   RHO(1)=    0.500       N(1)  =     2000
   RHO(2)=  100.500       N(2)  =     4000
 


--------------------------------------------------------------------------------------------------------


 ion  position               nearest neighbor table
   1  0.000  0.000  0.018-   3 2.82   4 2.82   3 2.82   4 2.82   5 2.84   5 2.84   5 2.84   5 2.84
                             3 2.98   4 2.98   4 2.98   3 2.98   2 3.48   2 3.48   2 3.48   2 3.48
   2  0.500  0.500  0.535-   5 1.84   4 2.01   3 2.01   4 2.01   3 2.01   5 2.35   1 3.48   1 3.48
                             1 3.48   1 3.48   1 3.57   1 3.57   1 3.57   1 3.57
   3  0.000  0.500  0.493-   2 2.01   2 2.01   1 2.82   1 2.82   1 2.98   1 2.98
   4  0.500  0.000  0.493-   2 2.01   2 2.01   1 2.82   1 2.82   1 2.98   1 2.98
   5  0.500  0.500  0.974-   2 1.84   2 2.35   1 2.84   1 2.84   1 2.84   1 2.84
 
  LATTYP: Found a simple tetragonal cell.
 ALAT       =     4.0048880000
 C/A-ratio  =     1.0475808562
  
  Lattice vectors:
  
 A1 = (   4.0048880000,   0.0000000000,   0.0000000000)
 A2 = (   0.0000000000,   4.0048880000,   0.0000000000)
 A3 = (   0.0000000000,   0.0000000000,   4.1954440000)


Analysis of symmetry for initial positions (statically):
=====================================================================
 Subroutine PRICEL returns:
 Original cell was already a primitive cell.
 

 Routine SETGRP: Setting up the symmetry group for a 
 simple tetragonal supercell.


 Subroutine GETGRP returns: Found  8 space group operations
 (whereof  8 operations were pure point group operations)
 out of a pool of 16 trial point group operations.


The static configuration has the point symmetry C_4v.


Analysis of symmetry for dynamics (positions and initial velocities):
=====================================================================
 Subroutine PRICEL returns:
 Original cell was already a primitive cell.
 

 Routine SETGRP: Setting up the symmetry group for a 
 simple tetragonal supercell.


 Subroutine GETGRP returns: Found  8 space group operations
 (whereof  8 operations were pure point group operations)
 out of a pool of 16 trial point group operations.


The dynamic configuration has the point symmetry C_4v.


Analysis of magnetic symmetry:
=====================================================================
 Subroutine PRICEL returns:
 Original cell was already a primitive cell.
 

 Subroutine MAGSYM returns: Found  8 space group operations
 (whereof  8 operations were pure point group operations)
 out of a pool of  8 trial space group operations
 (whereof  8 operations were pure point group operations)
 and found also     1 'primitive' translations


The magnetic configuration has the point symmetry C_4v.
 
 
 KPOINTS: pymatgen generated KPOINTS with grid den

Automatic generation of k-mesh.
Space group operators:
 irot       det(A)        alpha          n_x          n_y          n_z        tau_x        tau_y        tau_z
    1     1.000000     0.000000     1.000000     0.000000     0.000000     0.000000     0.000000     0.000000
    2     1.000000    90.000000     0.000000     0.000000    -1.000000     0.000000     0.000000     0.000000
    3     1.000000   180.000000     0.000000     0.000000     1.000000     0.000000     0.000000     0.000000
    4     1.000000    90.000000     0.000000     0.000000     1.000000     0.000000     0.000000     0.000000
    5    -1.000000   180.000000     0.000000     1.000000     0.000000     0.000000     0.000000     0.000000
    6    -1.000000   180.000000     0.707107     0.707107     0.000000     0.000000     0.000000     0.000000
    7    -1.000000   180.000000     1.000000     0.000000     0.000000     0.000000     0.000000     0.000000
    8    -1.000000   180.000000     0.707107    -0.707107     0.000000     0.000000     0.000000     0.000000
 
 Subroutine IBZKPT returns following result:
 ===========================================
 
 Found     40 irreducible k-points:
 
 Following reciprocal coordinates:
            Coordinates               Weight
  0.062500  0.062500  0.062500      8.000000
  0.187500  0.062500  0.062500     16.000000
  0.312500  0.062500  0.062500     16.000000
  0.437500  0.062500  0.062500     16.000000
  0.187500  0.187500  0.062500      8.000000
  0.312500  0.187500  0.062500     16.000000
  0.437500  0.187500  0.062500     16.000000
  0.312500  0.312500  0.062500      8.000000
  0.437500  0.312500  0.062500     16.000000
  0.437500  0.437500  0.062500      8.000000
  0.062500  0.062500  0.187500      8.000000
  0.187500  0.062500  0.187500     16.000000
  0.312500  0.062500  0.187500     16.000000
  0.437500  0.062500  0.187500     16.000000
  0.187500  0.187500  0.187500      8.000000
  0.312500  0.187500  0.187500     16.000000
  0.437500  0.187500  0.187500     16.000000
  0.312500  0.312500  0.187500      8.000000
  0.437500  0.312500  0.187500     16.000000
  0.437500  0.437500  0.187500      8.000000
  0.062500  0.062500  0.312500      8.000000
  0.187500  0.062500  0.312500     16.000000
  0.312500  0.062500  0.312500     16.000000
  0.437500  0.062500  0.312500     16.000000
  0.187500  0.187500  0.312500      8.000000
  0.312500  0.187500  0.312500     16.000000
  0.437500  0.187500  0.312500     16.000000
  0.312500  0.312500  0.312500      8.000000
  0.437500  0.312500  0.312500     16.000000
  0.437500  0.437500  0.312500      8.000000
  0.062500  0.062500  0.437500      8.000000
  0.187500  0.062500  0.437500     16.000000
  0.312500  0.062500  0.437500     16.000000
  0.437500  0.062500  0.437500     16.000000
  0.187500  0.187500  0.437500      8.000000
  0.312500  0.187500  0.437500     16.000000
  0.437500  0.187500  0.437500     16.000000
  0.312500  0.312500  0.437500      8.000000
  0.437500  0.312500  0.437500     16.000000
  0.437500  0.437500  0.437500      8.000000
 
 Following cartesian coordinates:
            Coordinates               Weight
  0.015606  0.015606  0.014897      8.000000
  0.046818  0.015606  0.014897     16.000000
  0.078030  0.015606  0.014897     16.000000
  0.109242  0.015606  0.014897     16.000000
  0.046818  0.046818  0.014897      8.000000
  0.078030  0.046818  0.014897     16.000000
  0.109242  0.046818  0.014897     16.000000
  0.078030  0.078030  0.014897      8.000000
  0.109242  0.078030  0.014897     16.000000
  0.109242  0.109242  0.014897      8.000000
  0.015606  0.015606  0.044691      8.000000
  0.046818  0.015606  0.044691     16.000000
  0.078030  0.015606  0.044691     16.000000
  0.109242  0.015606  0.044691     16.000000
  0.046818  0.046818  0.044691      8.000000
  0.078030  0.046818  0.044691     16.000000
  0.109242  0.046818  0.044691     16.000000
  0.078030  0.078030  0.044691      8.000000
  0.109242  0.078030  0.044691     16.000000
  0.109242  0.109242  0.044691      8.000000
  0.015606  0.015606  0.074486      8.000000
  0.046818  0.015606  0.074486     16.000000
  0.078030  0.015606  0.074486     16.000000
  0.109242  0.015606  0.074486     16.000000
  0.046818  0.046818  0.074486      8.000000
  0.078030  0.046818  0.074486     16.000000
  0.109242  0.046818  0.074486     16.000000
  0.078030  0.078030  0.074486      8.000000
  0.109242  0.078030  0.074486     16.000000
  0.109242  0.109242  0.074486      8.000000
  0.015606  0.015606  0.104280      8.000000
  0.046818  0.015606  0.104280     16.000000
  0.078030  0.015606  0.104280     16.000000
  0.109242  0.015606  0.104280     16.000000
  0.046818  0.046818  0.104280      8.000000
  0.078030  0.046818  0.104280     16.000000
  0.109242  0.046818  0.104280     16.000000
  0.078030  0.078030  0.104280      8.000000
  0.109242  0.078030  0.104280     16.000000
  0.109242  0.109242  0.104280      8.000000
 
 TETIRR: Found    703 inequivalent tetrahedra from     3072


--------------------------------------------------------------------------------------------------------




 Dimension of arrays:
   k-points           NKPTS =     40   k-points in BZ     NKDIM =     40   number of bands    NBANDS=     32
   number of dos      NEDOS =    301   number of ions     NIONS =      5
   non local maximal  LDIM  =      6   non local SUM 2l+1 LMDIM =     18
   total plane-waves  NPLWV =  28800
   max r-space proj   IRMAX =   8490   max aug-charges    IRDMAX=  26987
   dimension x,y,z NGX =    30 NGY =   30 NGZ =   32
   dimension x,y,z NGXF=    60 NGYF=   60 NGZF=   64
   support grid    NGXF=    60 NGYF=   60 NGZF=   64
   ions per type =               1   1   3
 NGX,Y,Z   is equivalent  to a cutoff of  12.45, 12.45, 12.68 a.u.
 NGXF,Y,Z  is equivalent  to a cutoff of  24.91, 24.91, 25.36 a.u.


 I would recommend the setting:
   dimension x,y,z NGX =    30 NGY =   30 NGZ =   31
 SYSTEM =  unknown system                          
 POSCAR =  Ba1 Ti1 O3                              

 Startparameter for this run:
   NWRITE =      2    write-flag & timer
   PREC   = accura    normal or accurate (medium, high low for compatibility)
   ISTART =      0    job   : 0-new  1-cont  2-samecut
   ICHARG =      0    charge: 1-file 2-atom 10-const
   ISPIN  =      2    spin polarized calculation?
   LNONCOLLINEAR =      F non collinear calculations
   LSORBIT =      F    spin-orbit coupling
   INIWAV =      1    electr: 0-lowe 1-rand  2-diag
   LASPH  =      F    aspherical Exc in radial PAW
   METAGGA=      F    non-selfconsistent MetaGGA calc.

 Electronic Relaxation 1
   ENCUT  =  520.0 eV  38.22 Ry    6.18 a.u.   7.45  7.45  7.80*2*pi/ulx,y,z
   ENINI  =  520.0     initial cutoff
   ENAUG  =  605.4 eV  augmentation charge cutoff
   NELM   =    100;   NELMIN=  2; NELMDL= -5     # of ELM steps 
   EDIFF  = 0.3E-03   stopping-criterion for ELM
   LREAL  =      T    real-space projection
   NLSPLINE    = F    spline interpolate recip. space projectors
   LCOMPAT=      F    compatible to vasp.4.4
   GGA_COMPAT  = T    GGA compatible to vasp.4.4-vasp.4.6
   LMAXPAW     = -100 max onsite density
   LMAXMIX     =    2 max onsite mixed and CHGCAR
   VOSKOWN=      0    Vosko Wilk Nusair interpolation
   ROPT   =   -0.00025  -0.00025  -0.00025
 Ionic relaxation
   EDIFFG = 0.3E-02   stopping-criterion for IOM
   NSW    =      0    number of steps for IOM
   NBLOCK =      1;   KBLOCK =      1    inner block; outer block 
   IBRION =     -1    ionic relax: 0-MD 1-quasi-New 2-CG
   NFREE  =      0    steps in history (QN), initial steepest desc. (CG)
   ISIF   =      3    stress and relaxation
   IWAVPR =     10    prediction:  0-non 1-charg 2-wave 3-comb
   ISYM   =      2    0-nonsym 1-usesym 2-fastsym
   LCORR  =      T    Harris-Foulkes like correction to forces

   POTIM  = 0.5000    time-step for ionic-motion
   TEIN   =    0.0    initial temperature
   TEBEG  =    0.0;   TEEND  =   0.0 temperature during run
   SMASS  =  -3.00    Nose mass-parameter (am)
   estimated Nose-frequenzy (Omega)   =  0.10E-29 period in steps =****** mass=  -0.367E-27a.u.
   SCALEE = 1.0000    scale energy and forces
   NPACO  =    256;   APACO  = 16.0  distance and # of slots for P.C.
   PSTRESS=    0.0 pullay stress

  Mass of Ions in am
   POMASS = 137.33 47.88 16.00
  Ionic Valenz
   ZVAL   =  10.00 10.00  6.00
  Atomic Wigner-Seitz radii
   RWIGS  =  -1.00 -1.00 -1.00
  virtual crystal weights 
   VCA    =   1.00  1.00  1.00
   NELECT =      38.0000    total number of electrons
   NUPDOWN=      -1.0000    fix difference up-down

 DOS related values:
   EMIN   =  10.00;   EMAX   =-10.00  energy-range for DOS
   EFERMI =   0.00
   ISMEAR =    -5;   SIGMA  =   0.05  broadening in eV -4-tet -1-fermi 0-gaus

 Electronic relaxation 2 (details)
   IALGO  =     38    algorithm
   LDIAG  =      T    sub-space diagonalisation (order eigenvalues)
   LSUBROT=      F    optimize rotation matrix (better conditioning)
   TURBO    =      0    0=normal 1=particle mesh
   IRESTART =      0    0=no restart 2=restart with 2 vectors
   NREBOOT  =      0    no. of reboots
   NMIN     =      0    reboot dimension
   EREF     =   0.00    reference energy to select bands
   IMIX   =      4    mixing-type and parameters
     AMIX     =   0.40;   BMIX     =  1.00
     AMIX_MAG =   1.60;   BMIX_MAG =  1.00
     AMIN     =   0.10
     WC   =   100.;   INIMIX=   1;  MIXPRE=   1;  MAXMIX= -45

 Intra band minimization:
   WEIMIN = 0.0000     energy-eigenvalue tresh-hold
   EBREAK =  0.20E-05  absolut break condition
   DEPER  =   0.30     relativ break condition  

   TIME   =   0.40     timestep for ELM

  volume/ion in A,a.u.               =      13.46        90.82
  Fermi-wavevector in a.u.,A,eV,Ry     =   1.353162  2.557105 24.912913  1.831047
  Thomas-Fermi vector in A             =   2.480440
 
 Write flags
   LWAVE  =      T    write WAVECAR
   LCHARG =      T    write CHGCAR
   LVTOT  =      F    write LOCPOT, total local potential
   LVHAR  =      T    write LOCPOT, Hartree potential only
   LELF   =      F    write electronic localiz. function (ELF)
   LORBIT =     11    0 simple, 1 ext, 2 COOP (PROOUT)


 Dipole corrections
   LMONO  =      F    monopole corrections only (constant potential shift)
   LDIPOL =      F    correct potential (dipole corrections)
   IDIPOL =      0    1-x, 2-y, 3-z, 4-all directions 
   EPSILON=  1.0000000 bulk dielectric constant

 Exchange correlation treatment:
   GGA     =    --    GGA type
   LEXCH   =     8    internal setting for exchange type
   VOSKOWN=      0    Vosko Wilk Nusair interpolation
   LHFCALC =     F    Hartree Fock is set to
   LHFONE  =     F    Hartree Fock one center treatment
   AEXX    =    0.0000 exact exchange contribution

 Linear response parameters
   LEPSILON=     F    determine dielectric tensor
   LRPA    =     F    only Hartree local field effects (RPA)
   LNABLA  =     F    use nabla operator in PAW spheres
   LVEL    =     F    velocity operator in full k-point grid
   LINTERFAST=   F  fast interpolation
   KINTER  =     0    interpolate to denser k-point grid
   CSHIFT  =0.1000    complex shift for real part using Kramers Kronig
   OMEGAMAX=  -1.0    maximum frequency
   DEG_THRESHOLD= 0.2000000E-02 threshold for treating states as degnerate
   RTIME   =    0.100 relaxation time in fs

 Orbital magnetization related:
   ORBITALMAG=     F  switch on orbital magnetization
   LCHIMAG   =     F  perturbation theory with respect to B field
   DQ        =  0.001000  dq finite difference perturbation B field



--------------------------------------------------------------------------------------------------------


 Static calculation
 charge density and potential will be updated during run
 spin polarized calculation
 Variant of blocked Davidson
 Davidson routine will perform the subspace rotation
 perform sub-space diagonalisation
    after iterative eigenvector-optimisation
 modified Broyden-mixing scheme, WC =      100.0
 initial mixing is a Kerker type mixing with AMIX =  0.4000 and BMIX =      1.0000
 Hartree-type preconditioning will be used
 using additional bands           13
 real space projection scheme for non local part
 use partial core corrections
 calculate Harris-corrections to forces 
   (improved forces if not selfconsistent)
 use gradient corrections 
 use of overlap-Matrix (Vanderbilt PP)
 Fermi weights with tetrahedron method with Bloechl corrections


--------------------------------------------------------------------------------------------------------


  energy-cutoff  :      520.00
  volume of cell :       67.29
      direct lattice vectors                 reciprocal lattice vectors
     4.004888000  0.000000000  0.000000000     0.249694873  0.000000000  0.000000000
     0.000000000  4.004888000  0.000000000     0.000000000  0.249694873  0.000000000
     0.000000000  0.000000000  4.195444000     0.000000000  0.000000000  0.238353795

  length of vectors
     4.004888000  4.004888000  4.195444000     0.249694873  0.249694873  0.238353795


 
 k-points in units of 2pi/SCALE and weight: pymatgen generated KPOINTS with grid den
   0.01560593  0.01560593  0.01489711       0.016
   0.04681779  0.01560593  0.01489711       0.031
   0.07802965  0.01560593  0.01489711       0.031
   0.10924151  0.01560593  0.01489711       0.031
   0.04681779  0.04681779  0.01489711       0.016
   0.07802965  0.04681779  0.01489711       0.031
   0.10924151  0.04681779  0.01489711       0.031
   0.07802965  0.07802965  0.01489711       0.016
   0.10924151  0.07802965  0.01489711       0.031
   0.10924151  0.10924151  0.01489711       0.016
   0.01560593  0.01560593  0.04469134       0.016
   0.04681779  0.01560593  0.04469134       0.031
   0.07802965  0.01560593  0.04469134       0.031
   0.10924151  0.01560593  0.04469134       0.031
   0.04681779  0.04681779  0.04469134       0.016
   0.07802965  0.04681779  0.04469134       0.031
   0.10924151  0.04681779  0.04469134       0.031
   0.07802965  0.07802965  0.04469134       0.016
   0.10924151  0.07802965  0.04469134       0.031
   0.10924151  0.10924151  0.04469134       0.016
   0.01560593  0.01560593  0.07448556       0.016
   0.04681779  0.01560593  0.07448556       0.031
   0.07802965  0.01560593  0.07448556       0.031
   0.10924151  0.01560593  0.07448556       0.031
   0.04681779  0.04681779  0.07448556       0.016
   0.07802965  0.04681779  0.07448556       0.031
   0.10924151  0.04681779  0.07448556       0.031
   0.07802965  0.07802965  0.07448556       0.016
   0.10924151  0.07802965  0.07448556       0.031
   0.10924151  0.10924151  0.07448556       0.016
   0.01560593  0.01560593  0.10427979       0.016
   0.04681779  0.01560593  0.10427979       0.031
   0.07802965  0.01560593  0.10427979       0.031
   0.10924151  0.01560593  0.10427979       0.031
   0.04681779  0.04681779  0.10427979       0.016
   0.07802965  0.04681779  0.10427979       0.031
   0.10924151  0.04681779  0.10427979       0.031
   0.07802965  0.07802965  0.10427979       0.016
   0.10924151  0.07802965  0.10427979       0.031
   0.10924151  0.10924151  0.10427979       0.016
 
 k-points in reciprocal lattice and weights: pymatgen generated KPOINTS with grid den
   0.06250000  0.06250000  0.06250000       0.016
   0.18750000  0.06250000  0.06250000       0.031
   0.31250000  0.06250000  0.06250000       0.031
   0.43750000  0.06250000  0.06250000       0.031
   0.18750000  0.18750000  0.06250000       0.016
   0.31250000  0.18750000  0.06250000       0.031
   0.43750000  0.18750000  0.06250000       0.031
   0.31250000  0.31250000  0.06250000       0.016
   0.43750000  0.31250000  0.06250000       0.031
   0.43750000  0.43750000  0.06250000       0.016
   0.06250000  0.06250000  0.18750000       0.016
   0.18750000  0.06250000  0.18750000       0.031
   0.31250000  0.06250000  0.18750000       0.031
   0.43750000  0.06250000  0.18750000       0.031
   0.18750000  0.18750000  0.18750000       0.016
   0.31250000  0.18750000  0.18750000       0.031
   0.43750000  0.18750000  0.18750000       0.031
   0.31250000  0.31250000  0.18750000       0.016
   0.43750000  0.31250000  0.18750000       0.031
   0.43750000  0.43750000  0.18750000       0.016
   0.06250000  0.06250000  0.31250000       0.016
   0.18750000  0.06250000  0.31250000       0.031
   0.31250000  0.06250000  0.31250000       0.031
   0.43750000  0.06250000  0.31250000       0.031
   0.18750000  0.18750000  0.31250000       0.016
   0.31250000  0.18750000  0.31250000       0.031
   0.43750000  0.18750000  0.31250000       0.031
   0.31250000  0.31250000  0.31250000       0.016
   0.43750000  0.31250000  0.31250000       0.031
   0.43750000  0.43750000  0.31250000       0.016
   0.06250000  0.06250000  0.43750000       0.016
   0.18750000  0.06250000  0.43750000       0.031
   0.31250000  0.06250000  0.43750000       0.031
   0.43750000  0.06250000  0.43750000       0.031
   0.18750000  0.18750000  0.43750000       0.016
   0.31250000  0.18750000  0.43750000       0.031
   0.43750000  0.18750000  0.43750000       0.031
   0.31250000  0.31250000  0.43750000       0.016
   0.43750000  0.31250000  0.43750000       0.031
   0.43750000  0.43750000  0.43750000       0.016
 
 position of ions in fractional coordinates (direct lattice) 
   0.00000000  0.00000000  0.01833200
   0.50000000  0.50000000  0.53484600
   0.00000000  0.50000000  0.49322000
   0.50000000  0.00000000  0.49322000
   0.50000000  0.50000000  0.97438100
 
 position of ions in cartesian coordinates  (Angst):
   0.00000000  0.00000000  0.07691088
   2.00244400  2.00244400  2.24391644
   0.00000000  2.00244400  2.06927689
   2.00244400  0.00000000  2.06927689
   2.00244400  2.00244400  4.08796092
 


--------------------------------------------------------------------------------------------------------


 k-point  1 :   0.0625 0.0625 0.0625  plane waves:    1824
 k-point  2 :   0.1875 0.0625 0.0625  plane waves:    1814
 k-point  3 :   0.3125 0.0625 0.0625  plane waves:    1815
 k-point  4 :   0.4375 0.0625 0.0625  plane waves:    1810
 k-point  5 :   0.1875 0.1875 0.0625  plane waves:    1811
 k-point  6 :   0.3125 0.1875 0.0625  plane waves:    1811
 k-point  7 :   0.4375 0.1875 0.0625  plane waves:    1812
 k-point  8 :   0.3125 0.3125 0.0625  plane waves:    1817
 k-point  9 :   0.4375 0.3125 0.0625  plane waves:    1804
 k-point 10 :   0.4375 0.4375 0.0625  plane waves:    1794
 k-point 11 :   0.0625 0.0625 0.1875  plane waves:    1827
 k-point 12 :   0.1875 0.0625 0.1875  plane waves:    1811
 k-point 13 :   0.3125 0.0625 0.1875  plane waves:    1811
 k-point 14 :   0.4375 0.0625 0.1875  plane waves:    1804
 k-point 15 :   0.1875 0.1875 0.1875  plane waves:    1805
 k-point 16 :   0.3125 0.1875 0.1875  plane waves:    1812
 k-point 17 :   0.4375 0.1875 0.1875  plane waves:    1810
 k-point 18 :   0.3125 0.3125 0.1875  plane waves:    1814
 k-point 19 :   0.4375 0.3125 0.1875  plane waves:    1805
 k-point 20 :   0.4375 0.4375 0.1875  plane waves:    1800
 k-point 21 :   0.0625 0.0625 0.3125  plane waves:    1828
 k-point 22 :   0.1875 0.0625 0.3125  plane waves:    1823
 k-point 23 :   0.3125 0.0625 0.3125  plane waves:    1818
 k-point 24 :   0.4375 0.0625 0.3125  plane waves:    1809
 k-point 25 :   0.1875 0.1875 0.3125  plane waves:    1821
 k-point 26 :   0.3125 0.1875 0.3125  plane waves:    1811
 k-point 27 :   0.4375 0.1875 0.3125  plane waves:    1806
 k-point 28 :   0.3125 0.3125 0.3125  plane waves:    1811
 k-point 29 :   0.4375 0.3125 0.3125  plane waves:    1808
 k-point 30 :   0.4375 0.4375 0.3125  plane waves:    1794
 k-point 31 :   0.0625 0.0625 0.4375  plane waves:    1829
 k-point 32 :   0.1875 0.0625 0.4375  plane waves:    1828
 k-point 33 :   0.3125 0.0625 0.4375  plane waves:    1814
 k-point 34 :   0.4375 0.0625 0.4375  plane waves:    1804
 k-point 35 :   0.1875 0.1875 0.4375  plane waves:    1820
 k-point 36 :   0.3125 0.1875 0.4375  plane waves:    1814
 k-point 37 :   0.4375 0.1875 0.4375  plane waves:    1807
 k-point 38 :   0.3125 0.3125 0.4375  plane waves:    1795
 k-point 39 :   0.4375 0.3125 0.4375  plane waves:    1808
 k-point 40 :   0.4375 0.4375 0.4375  plane waves:    1812

 maximum and minimum number of plane-waves per node :      1829     1794

 maximum number of plane-waves:      1829
 maximum index in each direction: 
   IXMAX=    7   IYMAX=    7   IZMAX=    7
   IXMIN=   -7   IYMIN=   -7   IZMIN=   -8

 NGX is ok and might be reduce to  30
 NGY is ok and might be reduce to  30
 NGZ is ok and might be reduce to  32

 serial   3D FFT for wavefunctions
 parallel 3D FFT for charge:
    minimum data exchange during FFTs selected (reduces bandwidth)


 total amount of memory used by VASP on root node    49598. kBytes
========================================================================

   base      :      30000. kBytes
   nonlr-proj:       3469. kBytes
   fftplans  :       1162. kBytes
   grid      :       5105. kBytes
   one-center:        155. kBytes
   wavefun   :       9707. kBytes
 
     INWAV:  cpu time    0.00: real time    0.00
 Broyden mixing: mesh for mixing (old mesh)
   NGX = 15   NGY = 15   NGZ = 15
  (NGX  = 60   NGY  = 60   NGZ  = 64)
  gives a total of   3375 points

 charge density for first step will be calculated from the start-wavefunctions


--------------------------------------------------------------------------------------------------------


 Maximum index for non-local projection operator         8186
 Maximum index for augmentation-charges         3796 (set IRDMAX)


--------------------------------------------------------------------------------------------------------


 initial charge from wavefunction
 First call to EWALD:  gamma=   0.436
 Maximum number of real-space cells 3x 3x 3
 Maximum number of reciprocal cells 3x 3x 3

 FEWALD executed in parallel
    FEWALD:  cpu time    0.00: real time    0.00


----------------------------------------- Iteration    1(   1)  ---------------------------------------


    POTLOK:  cpu time    0.09: real time    0.09
    SETDIJ:  cpu time    0.02: real time    0.02
     EDDAV:  cpu time   10.13: real time   10.13
 BZINTS: Fermi energy:-26.142316; 38.000000 electrons
         Band energy:***********;  BLOECHL correction: -1.154857
       DOS:  cpu time    0.09: real time    0.09
    --------------------------------------------
      LOOP:  cpu time   10.32: real time   10.33

 eigenvalue-minimisations  :  6288
 total energy-change (2. order) :-0.9293289E+03  (-0.3493625E+04)
 number of electron      37.9999997 magnetization       0.0000000
 augmentation part       -1.1926316 magnetization      -0.0004274

 Free energy of the ion-electron system (eV)
  ---------------------------------------------------
  alpha Z        PSCENC =       249.01062436
  Ewald energy   TEWEN  =     -2475.44479557
  -Hartree energ DENC   =       -58.72014718
  -exchange      EXHF   =         0.00000000
  -V(xc)+E(xc)   XCENC  =       114.69175137
  PAW double counting   =    112316.38519580  -112315.81689491
  entropy T*S    EENTRO =         0.00000000
  eigenvalues    EBANDS =     -1799.96161236
  atomic energy  EATOM  =      3040.52701931
  ---------------------------------------------------
  free energy    TOTEN  =      -929.32885919 eV

  energy without entropy =     -929.32885919  energy(sigma->0) =     -929.32885919


--------------------------------------------------------------------------------------------------------




----------------------------------------- Iteration    1(   2)  ---------------------------------------


     EDDAV:  cpu time    8.72: real time    8.72
 BZINTS: Fermi energy:-42.867787; 38.000000 electrons
         Band energy:***********;  BLOECHL correction:  0.000000
       DOS:  cpu time    0.02: real time    0.02
    --------------------------------------------
      LOOP:  cpu time    8.75: real time    8.75

 eigenvalue-minimisations  :  5200
 total energy-change (2. order) :-0.4126811E+03  (-0.3956926E+03)
 number of electron      37.9999997 magnetization       0.0000000
 augmentation part       -1.1926316 magnetization      -0.0004274

 Free energy of the ion-electron system (eV)
  ---------------------------------------------------
  alpha Z        PSCENC =       249.01062436
  Ewald energy   TEWEN  =     -2475.44479557
  -Hartree energ DENC   =       -58.72014718
  -exchange      EXHF   =         0.00000000
  -V(xc)+E(xc)   XCENC  =       114.69175137
  PAW double counting   =    112316.38519580  -112315.81689491
  entropy T*S    EENTRO =         0.00000000
  eigenvalues    EBANDS =     -2212.64270755
  atomic energy  EATOM  =      3040.52701931
  ---------------------------------------------------
  free energy    TOTEN  =     -1342.00995438 eV

  energy without entropy =    -1342.00995438  energy(sigma->0) =    -1342.00995438


--------------------------------------------------------------------------------------------------------




----------------------------------------- Iteration    1(   3)  ---------------------------------------


     EDDAV:  cpu time   10.10: real time   10.10
 BZINTS: Fermi energy:-44.026376; 38.000000 electrons
         Band energy:***********;  BLOECHL correction:  0.000000
       DOS:  cpu time    0.02: real time    0.02
    --------------------------------------------
      LOOP:  cpu time   10.12: real time   10.12

 eigenvalue-minimisations  :  6248
 total energy-change (2. order) :-0.2545340E+02  (-0.2526741E+02)
 number of electron      37.9999997 magnetization       0.0000000
 augmentation part       -1.1926316 magnetization      -0.0004274

 Free energy of the ion-electron system (eV)
  ---------------------------------------------------
  alpha Z        PSCENC =       249.01062436
  Ewald energy   TEWEN  =     -2475.44479557
  -Hartree energ DENC   =       -58.72014718
  -exchange      EXHF   =         0.00000000
  -V(xc)+E(xc)   XCENC  =       114.69175137
  PAW double counting   =    112316.38519580  -112315.81689491
  entropy T*S    EENTRO =         0.00000000
  eigenvalues    EBANDS =     -2238.09610562
  atomic energy  EATOM  =      3040.52701931
  ---------------------------------------------------
  free energy    TOTEN  =     -1367.46335245 eV

  energy without entropy =    -1367.46335245  energy(sigma->0) =    -1367.46335245


--------------------------------------------------------------------------------------------------------




----------------------------------------- Iteration    1(   4)  ---------------------------------------


     EDDAV:  cpu time   11.05: real time   11.05
 BZINTS: Fermi energy:-44.181566; 38.000000 electrons
         Band energy:***********;  BLOECHL correction:  0.000000
       DOS:  cpu time    0.01: real time    0.01
    --------------------------------------------
      LOOP:  cpu time   11.07: real time   11.07

 eigenvalue-minimisations  :  6976
 total energy-change (2. order) :-0.8162293E+00  (-0.8159829E+00)
 number of electron      37.9999997 magnetization       0.0000000
 augmentation part       -1.1926316 magnetization      -0.0004274

 Free energy of the ion-electron system (eV)
  ---------------------------------------------------
  alpha Z        PSCENC =       249.01062436
  Ewald energy   TEWEN  =     -2475.44479557
  -Hartree energ DENC   =       -58.72014718
  -exchange      EXHF   =         0.00000000
  -V(xc)+E(xc)   XCENC  =       114.69175137
  PAW double counting   =    112316.38519580  -112315.81689491
  entropy T*S    EENTRO =         0.00000000
  eigenvalues    EBANDS =     -2238.91233493
  atomic energy  EATOM  =      3040.52701931
  ---------------------------------------------------
  free energy    TOTEN  =     -1368.27958176 eV

  energy without entropy =    -1368.27958176  energy(sigma->0) =    -1368.27958176


--------------------------------------------------------------------------------------------------------




----------------------------------------- Iteration    1(   5)  ---------------------------------------


     EDDAV:  cpu time   12.26: real time   12.27
 BZINTS: Fermi energy:-44.113919; 38.000000 electrons
         Band energy:***********;  BLOECHL correction:  0.000000
       DOS:  cpu time    0.02: real time    0.02
    CHARGE:  cpu time    0.46: real time    0.46
    MIXING:  cpu time    0.00: real time    0.00
    --------------------------------------------
      LOOP:  cpu time   12.75: real time   12.77

 eigenvalue-minimisations  :  7824
 total energy-change (2. order) :-0.3013992E-01  (-0.3013946E-01)
 number of electron      37.9999966 magnetization      -0.0000000
 augmentation part       15.8219070 magnetization       0.0006549

 Broyden mixing:
  rms(total) = 0.39464E+02    rms(broyden)= 0.39455E+02
  rms(prec ) = 0.57272E+02
  weight for this iteration     100.00

 Free energy of the ion-electron system (eV)
  ---------------------------------------------------
  alpha Z        PSCENC =       249.01062436
  Ewald energy   TEWEN  =     -2475.44479557
  -Hartree energ DENC   =       -58.72014718
  -exchange      EXHF   =         0.00000000
  -V(xc)+E(xc)   XCENC  =       114.69175137
  PAW double counting   =    112316.38519580  -112315.81689491
  entropy T*S    EENTRO =         0.00000000
  eigenvalues    EBANDS =     -2238.94247485
  atomic energy  EATOM  =      3040.52701931
  ---------------------------------------------------
  free energy    TOTEN  =     -1368.30972168 eV

  energy without entropy =    -1368.30972168  energy(sigma->0) =    -1368.30972168


--------------------------------------------------------------------------------------------------------




----------------------------------------- Iteration    1(   6)  ---------------------------------------


    POTLOK:  cpu time    0.09: real time    0.09
    SETDIJ:  cpu time    0.02: real time    0.02
     EDDAV:  cpu time   13.33: real time   13.34
 BZINTS: Fermi energy: -2.295141; 38.000000 electrons
         Band energy:-685.754592;  BLOECHL correction:  0.000000
       DOS:  cpu time    0.03: real time    0.03
    CHARGE:  cpu time    0.46: real time    0.46
    MIXING:  cpu time    0.00: real time    0.00
    --------------------------------------------
      LOOP:  cpu time   13.93: real time   13.94

 eigenvalue-minimisations  :  8600
 total energy-change (2. order) : 0.1130235E+04  (-0.3441563E+03)
 number of electron      37.9999961 magnetization       0.0000000
 augmentation part        6.8476263 magnetization      -0.0035777

 Broyden mixing:
  rms(total) = 0.25168E+02    rms(broyden)= 0.25166E+02
  rms(prec ) = 0.29528E+02
  weight for this iteration     100.00

 eigenvalues of (default mixing * dielectric matrix)
  average eigenvalue GAMMA=   0.6498
  0.6498

 Free energy of the ion-electron system (eV)
  ---------------------------------------------------
  alpha Z        PSCENC =       249.01062436
  Ewald energy   TEWEN  =     -2475.44479557
  -Hartree energ DENC   =      -477.82545435
  -exchange      EXHF   =         0.00000000
  -V(xc)+E(xc)   XCENC  =       136.08352970
  PAW double counting   =    206218.00787740  -206242.67913409
  entropy T*S    EENTRO =         0.00000000
  eigenvalues    EBANDS =      -685.75459202
  atomic energy  EATOM  =      3040.52701931
  ---------------------------------------------------
  free energy    TOTEN  =      -238.07492527 eV

  energy without entropy =     -238.07492527  energy(sigma->0) =     -238.07492527


--------------------------------------------------------------------------------------------------------




----------------------------------------- Iteration    1(   7)  ---------------------------------------


    POTLOK:  cpu time    0.09: real time    0.09
    SETDIJ:  cpu time    0.02: real time    0.02
     EDDAV:  cpu time    9.73: real time    9.74
 BZINTS: Fermi energy:  0.878270; 38.000000 electrons
         Band energy:-468.391921;  BLOECHL correction:  0.000000
       DOS:  cpu time    0.02: real time    0.02
    CHARGE:  cpu time    0.46: real time    0.46
    MIXING:  cpu time    0.00: real time    0.00
    --------------------------------------------
      LOOP:  cpu time   10.31: real time   11.08

 eigenvalue-minimisations  :  5928
 total energy-change (2. order) : 0.1486675E+03  (-0.3903538E+02)
 number of electron      37.9999970 magnetization       0.0000000
 augmentation part        5.2718939 magnetization      -0.0025092

 Broyden mixing:
  rms(total) = 0.16468E+02    rms(broyden)= 0.16468E+02
  rms(prec ) = 0.18504E+02
  weight for this iteration     100.00

 eigenvalues of (default mixing * dielectric matrix)
  average eigenvalue GAMMA=   1.3318
  1.1645  1.4991

 Free energy of the ion-electron system (eV)
  ---------------------------------------------------
  alpha Z        PSCENC =       249.01062436
  Ewald energy   TEWEN  =     -2475.44479557
  -Hartree energ DENC   =      -553.19235956
  -exchange      EXHF   =         0.00000000
  -V(xc)+E(xc)   XCENC  =       141.67707817
  PAW double counting   =    106438.14966340  -106461.74276205
  entropy T*S    EENTRO =         0.00000000
  eigenvalues    EBANDS =      -468.39192092
  atomic energy  EATOM  =      3040.52701931
  ---------------------------------------------------
  free energy    TOTEN  =       -89.40745286 eV

  energy without entropy =      -89.40745286  energy(sigma->0) =      -89.40745286


--------------------------------------------------------------------------------------------------------




----------------------------------------- Iteration    1(   8)  ---------------------------------------


    POTLOK:  cpu time    0.09: real time    0.09
    SETDIJ:  cpu time    0.02: real time    0.02
     EDDAV:  cpu time   11.38: real time   11.39
 BZINTS: Fermi energy:  3.165647; 38.000000 electrons
         Band energy:-373.359225;  BLOECHL correction: -0.047930
       DOS:  cpu time    0.09: real time    0.09
    CHARGE:  cpu time    0.46: real time    0.46
    MIXING:  cpu time    0.00: real time    0.00
    --------------------------------------------
      LOOP:  cpu time   12.04: real time   12.05

 eigenvalue-minimisations  :  6672
 total energy-change (2. order) : 0.2884248E+02  (-0.2320657E+02)
 number of electron      37.9999989 magnetization       0.0011624
 augmentation part        7.5359407 magnetization      -0.0165626

 Broyden mixing:
  rms(total) = 0.80907E+01    rms(broyden)= 0.80897E+01
  rms(prec ) = 0.14582E+02
  weight for this iteration     100.00

 eigenvalues of (default mixing * dielectric matrix)
  average eigenvalue GAMMA=   1.0105
  1.5274  1.1854  0.3186

 Free energy of the ion-electron system (eV)
  ---------------------------------------------------
  alpha Z        PSCENC =       249.01062436
  Ewald energy   TEWEN  =     -2475.44479557
  -Hartree energ DENC   =      -631.71247165
  -exchange      EXHF   =         0.00000000
  -V(xc)+E(xc)   XCENC  =       145.98300806
  PAW double counting   =     23209.48986806   -23225.05899569
  entropy T*S    EENTRO =         0.00000000
  eigenvalues    EBANDS =      -373.35922503
  atomic energy  EATOM  =      3040.52701931
  ---------------------------------------------------
  free energy    TOTEN  =       -60.56496817 eV

  energy without entropy =      -60.56496817  energy(sigma->0) =      -60.56496817


--------------------------------------------------------------------------------------------------------




----------------------------------------- Iteration    1(   9)  ---------------------------------------


    POTLOK:  cpu time    0.09: real time    0.09
    SETDIJ:  cpu time    0.02: real time    0.02
     EDDAV:  cpu time   10.55: real time   10.55
 BZINTS: Fermi energy:  3.371862; 38.000000 electrons
         Band energy:-366.543975;  BLOECHL correction: -0.039436
       DOS:  cpu time    0.09: real time    0.09
    CHARGE:  cpu time    0.46: real time    0.46
    MIXING:  cpu time    0.00: real time    0.00
    --------------------------------------------
      LOOP:  cpu time   11.21: real time   11.22

 eigenvalue-minimisations  :  6240
 total energy-change (2. order) : 0.4444106E+01  (-0.3232321E+01)
 number of electron      37.9999988 magnetization      -0.0834214
 augmentation part        6.7166710 magnetization      -0.0847238

 Broyden mixing:
  rms(total) = 0.79224E+01    rms(broyden)= 0.79224E+01
  rms(prec ) = 0.12755E+02
  weight for this iteration     100.00

 eigenvalues of (default mixing * dielectric matrix)
  average eigenvalue GAMMA=   0.9101
  1.4345  1.4345  0.4438  0.3277

 Free energy of the ion-electron system (eV)
  ---------------------------------------------------
  alpha Z        PSCENC =       249.01062436
  Ewald energy   TEWEN  =     -2475.44479557
  -Hartree energ DENC   =      -634.37961456
  -exchange      EXHF   =         0.00000000
  -V(xc)+E(xc)   XCENC  =       146.00412577
  PAW double counting   =     22579.43758547   -22594.73183232
  entropy T*S    EENTRO =         0.00000000
  eigenvalues    EBANDS =      -366.54397465
  atomic energy  EATOM  =      3040.52701931
  ---------------------------------------------------
  free energy    TOTEN  =       -56.12086219 eV

  energy without entropy =      -56.12086219  energy(sigma->0) =      -56.12086219


--------------------------------------------------------------------------------------------------------




----------------------------------------- Iteration    1(  10)  ---------------------------------------


    POTLOK:  cpu time    0.08: real time    0.09
    SETDIJ:  cpu time    0.02: real time    0.02
     EDDAV:  cpu time    9.78: real time    9.79
 BZINTS: Fermi energy:  0.979115; 38.000000 electrons
         Band energy:-453.904406;  BLOECHL correction: -0.036631
       DOS:  cpu time    0.09: real time    0.09
    CHARGE:  cpu time    0.46: real time    0.46
    MIXING:  cpu time    0.00: real time    0.00
    --------------------------------------------
      LOOP:  cpu time   10.45: real time   10.46

 eigenvalue-minimisations  :  5984
 total energy-change (2. order) :-0.1141472E+02  (-0.5521431E+01)
 number of electron      37.9999986 magnetization      -0.1813219
 augmentation part        8.5962641 magnetization      -0.1355109

 Broyden mixing:
  rms(total) = 0.68019E+01    rms(broyden)= 0.68012E+01
  rms(prec ) = 0.15933E+02
  weight for this iteration     100.00

 eigenvalues of (default mixing * dielectric matrix)
  average eigenvalue GAMMA=   1.0746
  1.9178  1.9178  0.8537  0.4041  0.2795

 Free energy of the ion-electron system (eV)
  ---------------------------------------------------
  alpha Z        PSCENC =       249.01062436
  Ewald energy   TEWEN  =     -2475.44479557
  -Hartree energ DENC   =      -557.11295076
  -exchange      EXHF   =         0.00000000
  -V(xc)+E(xc)   XCENC  =       140.90577451
  PAW double counting   =     17596.38674189   -17607.90358907
  entropy T*S    EENTRO =         0.00000000
  eigenvalues    EBANDS =      -453.90440648
  atomic energy  EATOM  =      3040.52701931
  ---------------------------------------------------
  free energy    TOTEN  =       -67.53558182 eV

  energy without entropy =      -67.53558182  energy(sigma->0) =      -67.53558182


--------------------------------------------------------------------------------------------------------




----------------------------------------- Iteration    1(  11)  ---------------------------------------


    POTLOK:  cpu time    0.09: real time    0.09
    SETDIJ:  cpu time    0.02: real time    0.02
     EDDAV:  cpu time   11.04: real time   11.04
 BZINTS: Fermi energy: -0.989195; 38.000000 electrons
         Band energy:-482.325751;  BLOECHL correction: -0.000388
       DOS:  cpu time    0.09: real time    0.09
    CHARGE:  cpu time    0.46: real time    0.46
    MIXING:  cpu time    0.00: real time    0.00
    --------------------------------------------
      LOOP:  cpu time   11.70: real time   11.70

 eigenvalue-minimisations  :  6912
 total energy-change (2. order) : 0.1133581E+02  (-0.1438061E+02)
 number of electron      37.9999976 magnetization      -0.0540505
 augmentation part        6.1438887 magnetization      -0.0625304

 Broyden mixing:
  rms(total) = 0.39450E+01    rms(broyden)= 0.39435E+01
  rms(prec ) = 0.64275E+01
  weight for this iteration     100.00

 eigenvalues of (default mixing * dielectric matrix)
  average eigenvalue GAMMA=   0.9974
  2.6252  0.9697  0.9511  0.9511  0.2531  0.2339

 Free energy of the ion-electron system (eV)
  ---------------------------------------------------
  alpha Z        PSCENC =       249.01062436
  Ewald energy   TEWEN  =     -2475.44479557
  -Hartree energ DENC   =      -518.49415117
  -exchange      EXHF   =         0.00000000
  -V(xc)+E(xc)   XCENC  =       137.44259899
  PAW double counting   =     10655.76539278   -10662.68071126
  entropy T*S    EENTRO =         0.00000000
  eigenvalues    EBANDS =      -482.32575083
  atomic energy  EATOM  =      3040.52701931
  ---------------------------------------------------
  free energy    TOTEN  =       -56.19977340 eV

  energy without entropy =      -56.19977340  energy(sigma->0) =      -56.19977340


--------------------------------------------------------------------------------------------------------




----------------------------------------- Iteration    1(  12)  ---------------------------------------


    POTLOK:  cpu time    0.09: real time    0.09
    SETDIJ:  cpu time    0.02: real time    0.02
     EDDAV:  cpu time   10.99: real time   10.99
 BZINTS: Fermi energy:  1.049319; 38.000000 electrons
         Band energy:-418.490203;  BLOECHL correction: -0.040834
       DOS:  cpu time    0.10: real time    0.10
    CHARGE:  cpu time    0.46: real time    0.46
    MIXING:  cpu time    0.00: real time    0.00
    --------------------------------------------
      LOOP:  cpu time   11.66: real time   11.67

 eigenvalue-minimisations  :  6768
 total energy-change (2. order) :-0.1225949E+02  (-0.1402722E+02)
 number of electron      37.9999988 magnetization      -0.2099383
 augmentation part        8.5458935 magnetization      -0.0967245

 Broyden mixing:
  rms(total) = 0.67329E+01    rms(broyden)= 0.67326E+01
  rms(prec ) = 0.15421E+02
  weight for this iteration     100.00

 eigenvalues of (default mixing * dielectric matrix)
  average eigenvalue GAMMA=   0.9250
  2.5398  1.0685  1.0685  0.9059  0.3432  0.3432  0.2058

 Free energy of the ion-electron system (eV)
  ---------------------------------------------------
  alpha Z        PSCENC =       249.01062436
  Ewald energy   TEWEN  =     -2475.44479557
  -Hartree energ DENC   =      -601.34777301
  -exchange      EXHF   =         0.00000000
  -V(xc)+E(xc)   XCENC  =       143.36477608
  PAW double counting   =      2819.89352830    -2825.97243957
  entropy T*S    EENTRO =         0.00000000
  eigenvalues    EBANDS =      -418.49020281
  atomic energy  EATOM  =      3040.52701931
  ---------------------------------------------------
  free energy    TOTEN  =       -68.45926292 eV

  energy without entropy =      -68.45926292  energy(sigma->0) =      -68.45926292


--------------------------------------------------------------------------------------------------------




----------------------------------------- Iteration    1(  13)  ---------------------------------------


    POTLOK:  cpu time    0.09: real time    0.09
    SETDIJ:  cpu time    0.02: real time    0.02
     EDDAV:  cpu time   10.71: real time   10.71
 BZINTS: Fermi energy:  1.181536; 38.000000 electrons
         Band energy:-398.396064;  BLOECHL correction:  0.000000
       DOS:  cpu time    0.02: real time    0.02
    CHARGE:  cpu time    0.46: real time    0.46
    MIXING:  cpu time    0.00: real time    0.00
    --------------------------------------------
      LOOP:  cpu time   11.30: real time   11.30

 eigenvalue-minimisations  :  6544
 total energy-change (2. order) : 0.2356892E+02  (-0.4835335E+01)
 number of electron      37.9999977 magnetization      -0.1334227
 augmentation part        5.5839104 magnetization      -0.1360693

 Broyden mixing:
  rms(total) = 0.17011E+01    rms(broyden)= 0.17003E+01
  rms(prec ) = 0.30969E+01
  weight for this iteration     100.00

 eigenvalues of (default mixing * dielectric matrix)
  average eigenvalue GAMMA=   0.8934
  2.3958  1.0944  1.0944  1.0669  0.6180  0.3357  0.3357  0.2067

 Free energy of the ion-electron system (eV)
  ---------------------------------------------------
  alpha Z        PSCENC =       249.01062436
  Ewald energy   TEWEN  =     -2475.44479557
  -Hartree energ DENC   =      -597.88799641
  -exchange      EXHF   =         0.00000000
  -V(xc)+E(xc)   XCENC  =       142.47742855
  PAW double counting   =      3088.03222381    -3093.20878579
  entropy T*S    EENTRO =         0.00000000
  eigenvalues    EBANDS =      -398.39606381
  atomic energy  EATOM  =      3040.52701931
  ---------------------------------------------------
  free energy    TOTEN  =       -44.89034556 eV

  energy without entropy =      -44.89034556  energy(sigma->0) =      -44.89034556


--------------------------------------------------------------------------------------------------------




----------------------------------------- Iteration    1(  14)  ---------------------------------------


    POTLOK:  cpu time    0.09: real time    0.09
    SETDIJ:  cpu time    0.02: real time    0.02
     EDDAV:  cpu time   10.28: real time   10.31
 BZINTS: Fermi energy:  1.810213; 38.000000 electrons
         Band energy:-383.304591;  BLOECHL correction:  0.000000
       DOS:  cpu time    0.02: real time    0.02
    CHARGE:  cpu time    0.46: real time    0.46
    MIXING:  cpu time    0.00: real time    0.00
    --------------------------------------------
      LOOP:  cpu time   10.87: real time   10.90

 eigenvalue-minimisations  :  6208
 total energy-change (2. order) : 0.2002949E+01  (-0.2408307E+00)
 number of electron      37.9999976 magnetization      -0.0706404
 augmentation part        5.3194991 magnetization      -0.0709889

 Broyden mixing:
  rms(total) = 0.14019E+01    rms(broyden)= 0.14018E+01
  rms(prec ) = 0.24056E+01
  weight for this iteration     100.00

 eigenvalues of (default mixing * dielectric matrix)
  average eigenvalue GAMMA=   0.8939
  2.3246  1.0754  1.0754  1.1833  0.7431  0.7431  0.3469  0.3469  0.2063

 Free energy of the ion-electron system (eV)
  ---------------------------------------------------
  alpha Z        PSCENC =       249.01062436
  Ewald energy   TEWEN  =     -2475.44479557
  -Hartree energ DENC   =      -611.01753287
  -exchange      EXHF   =         0.00000000
  -V(xc)+E(xc)   XCENC  =       143.25098818
  PAW double counting   =      3295.07549370    -3300.98460332
  entropy T*S    EENTRO =         0.00000000
  eigenvalues    EBANDS =      -383.30459057
  atomic energy  EATOM  =      3040.52701931
  ---------------------------------------------------
  free energy    TOTEN  =       -42.88739679 eV

  energy without entropy =      -42.88739679  energy(sigma->0) =      -42.88739679


--------------------------------------------------------------------------------------------------------




----------------------------------------- Iteration    1(  15)  ---------------------------------------


    POTLOK:  cpu time    0.09: real time    0.09
    SETDIJ:  cpu time    0.02: real time    0.02
     EDDAV:  cpu time   10.04: real time   10.06
 BZINTS: Fermi energy:  2.531939; 38.000000 electrons
         Band energy:-360.492357;  BLOECHL correction:  0.000000
       DOS:  cpu time    0.02: real time    0.02
    CHARGE:  cpu time    0.46: real time    0.46
    MIXING:  cpu time    0.00: real time    0.00
    --------------------------------------------
      LOOP:  cpu time   10.63: real time   10.66

 eigenvalue-minimisations  :  6016
 total energy-change (2. order) : 0.2150371E+01  (-0.2031179E+00)
 number of electron      37.9999977 magnetization      -0.0515072
 augmentation part        5.0747368 magnetization      -0.0530226

 Broyden mixing:
  rms(total) = 0.79833E+00    rms(broyden)= 0.79830E+00
  rms(prec ) = 0.13239E+01
  weight for this iteration     100.00

 eigenvalues of (default mixing * dielectric matrix)
  average eigenvalue GAMMA=   0.9246
  2.2756  1.3020  1.3020  1.2716  0.7995  0.6960  0.6960  0.3482  0.3482  0.2063

 Free energy of the ion-electron system (eV)
  ---------------------------------------------------
  alpha Z        PSCENC =       249.01062436
  Ewald energy   TEWEN  =     -2475.44479557
  -Hartree energ DENC   =      -631.82647899
  -exchange      EXHF   =         0.00000000
  -V(xc)+E(xc)   XCENC  =       144.62770893
  PAW double counting   =      3560.66676085    -3567.80550734
  entropy T*S    EENTRO =         0.00000000
  eigenvalues    EBANDS =      -360.49235725
  atomic energy  EATOM  =      3040.52701931
  ---------------------------------------------------
  free energy    TOTEN  =       -40.73702571 eV

  energy without entropy =      -40.73702571  energy(sigma->0) =      -40.73702571


--------------------------------------------------------------------------------------------------------




----------------------------------------- Iteration    1(  16)  ---------------------------------------


    POTLOK:  cpu time    0.09: real time    0.09
    SETDIJ:  cpu time    0.02: real time    0.02
     EDDAV:  cpu time   11.18: real time   11.17
 BZINTS: Fermi energy:  2.764507; 38.000000 electrons
         Band energy:-352.913318;  BLOECHL correction:  0.000000
       DOS:  cpu time    0.02: real time    0.02
    CHARGE:  cpu time    0.47: real time    0.47
    MIXING:  cpu time    0.00: real time    0.00
    --------------------------------------------
      LOOP:  cpu time   11.77: real time   11.76

 eigenvalue-minimisations  :  6888
 total energy-change (2. order) : 0.3581729E+00  (-0.3044484E-01)
 number of electron      37.9999977 magnetization      -0.0232920
 augmentation part        4.9508101 magnetization      -0.0245796

 Broyden mixing:
  rms(total) = 0.65637E+00    rms(broyden)= 0.65637E+00
  rms(prec ) = 0.10572E+01
  weight for this iteration     100.00

 eigenvalues of (default mixing * dielectric matrix)
  average eigenvalue GAMMA=   0.9841
  2.3390  1.5084  1.5084  1.2012  0.9415  0.9415  0.8850  0.6023  0.3459  0.3459
  0.2063

 Free energy of the ion-electron system (eV)
  ---------------------------------------------------
  alpha Z        PSCENC =       249.01062436
  Ewald energy   TEWEN  =     -2475.44479557
  -Hartree energ DENC   =      -639.07576007
  -exchange      EXHF   =         0.00000000
  -V(xc)+E(xc)   XCENC  =       145.09078935
  PAW double counting   =      3628.61557822    -3636.18899076
  entropy T*S    EENTRO =         0.00000000
  eigenvalues    EBANDS =      -352.91331768
  atomic energy  EATOM  =      3040.52701931
  ---------------------------------------------------
  free energy    TOTEN  =       -40.37885284 eV

  energy without entropy =      -40.37885284  energy(sigma->0) =      -40.37885284


--------------------------------------------------------------------------------------------------------




----------------------------------------- Iteration    1(  17)  ---------------------------------------


    POTLOK:  cpu time    0.09: real time    0.09
    SETDIJ:  cpu time    0.02: real time    0.02
     EDDAV:  cpu time   10.39: real time   10.41
 BZINTS: Fermi energy:  2.790624; 38.000000 electrons
         Band energy:-343.936471;  BLOECHL correction:  0.000000
       DOS:  cpu time    0.01: real time    0.01
    CHARGE:  cpu time    0.46: real time    0.46
    MIXING:  cpu time    0.00: real time    0.00
    --------------------------------------------
      LOOP:  cpu time   10.98: real time   12.20

 eigenvalue-minimisations  :  6320
 total energy-change (2. order) : 0.1329345E+00  (-0.3153929E-01)
 number of electron      37.9999977 magnetization       0.0050604
 augmentation part        4.8285625 magnetization       0.0044174

 Broyden mixing:
  rms(total) = 0.55456E+00    rms(broyden)= 0.55456E+00
  rms(prec ) = 0.10088E+01
  weight for this iteration     100.00

 eigenvalues of (default mixing * dielectric matrix)
  average eigenvalue GAMMA=   1.2240
  2.6768  2.6768  2.5277  1.3420  1.3420  0.9757  0.9379  0.6772  0.6331  0.3464
  0.3464  0.2063

 Free energy of the ion-electron system (eV)
  ---------------------------------------------------
  alpha Z        PSCENC =       249.01062436
  Ewald energy   TEWEN  =     -2475.44479557
  -Hartree energ DENC   =      -647.92648892
  -exchange      EXHF   =         0.00000000
  -V(xc)+E(xc)   XCENC  =       145.66953780
  PAW double counting   =      3574.63957292    -3582.78491689
  entropy T*S    EENTRO =         0.00000000
  eigenvalues    EBANDS =      -343.93647138
  atomic energy  EATOM  =      3040.52701931
  ---------------------------------------------------
  free energy    TOTEN  =       -40.24591838 eV

  energy without entropy =      -40.24591838  energy(sigma->0) =      -40.24591838


--------------------------------------------------------------------------------------------------------




----------------------------------------- Iteration    1(  18)  ---------------------------------------


    POTLOK:  cpu time    0.09: real time    0.09
    SETDIJ:  cpu time    0.02: real time    0.02
     EDDAV:  cpu time   10.18: real time   10.18
 BZINTS: Fermi energy:  3.159025; 38.000000 electrons
         Band energy:-328.345974;  BLOECHL correction:  0.000000
       DOS:  cpu time    0.02: real time    0.02
    CHARGE:  cpu time    0.46: real time    0.46
    MIXING:  cpu time    0.00: real time    0.00
    --------------------------------------------
      LOOP:  cpu time   10.77: real time   10.78

 eigenvalue-minimisations  :  6128
 total energy-change (2. order) : 0.1865208E+00  (-0.9841164E-01)
 number of electron      37.9999978 magnetization       0.0121390
 augmentation part        4.7065469 magnetization       0.0112888

 Broyden mixing:
  rms(total) = 0.22322E+00    rms(broyden)= 0.22313E+00
  rms(prec ) = 0.56969E+00
  weight for this iteration     100.00

 eigenvalues of (default mixing * dielectric matrix)
  average eigenvalue GAMMA=   1.2021
  2.8460  2.8460  2.1687  1.4531  1.4531  1.0582  0.2063  0.3464  0.3464  0.8730
  0.7090  0.7090  0.6118

 Free energy of the ion-electron system (eV)
  ---------------------------------------------------
  alpha Z        PSCENC =       249.01062436
  Ewald energy   TEWEN  =     -2475.44479557
  -Hartree energ DENC   =      -663.31937862
  -exchange      EXHF   =         0.00000000
  -V(xc)+E(xc)   XCENC  =       146.78162781
  PAW double counting   =      3676.77651248    -3686.04503331
  entropy T*S    EENTRO =         0.00000000
  eigenvalues    EBANDS =      -328.34597406
  atomic energy  EATOM  =      3040.52701931
  ---------------------------------------------------
  free energy    TOTEN  =       -40.05939760 eV

  energy without entropy =      -40.05939760  energy(sigma->0) =      -40.05939760


--------------------------------------------------------------------------------------------------------




----------------------------------------- Iteration    1(  19)  ---------------------------------------


    POTLOK:  cpu time    0.09: real time    0.09
    SETDIJ:  cpu time    0.02: real time    0.02
     EDDAV:  cpu time   10.52: real time   10.54
 BZINTS: Fermi energy:  3.277221; 38.000000 electrons
         Band energy:-324.030079;  BLOECHL correction:  0.000000
       DOS:  cpu time    0.02: real time    0.02
    CHARGE:  cpu time    0.46: real time    0.46
    MIXING:  cpu time    0.00: real time    0.00
    --------------------------------------------
      LOOP:  cpu time   11.11: real time   11.13

 eigenvalue-minimisations  :  6392
 total energy-change (2. order) :-0.8405553E-01  (-0.1215422E-01)
 number of electron      37.9999978 magnetization       0.0055422
 augmentation part        4.6632149 magnetization       0.0054037

 Broyden mixing:
  rms(total) = 0.33394E+00    rms(broyden)= 0.33393E+00
  rms(prec ) = 0.67872E+00
  weight for this iteration     100.00

 eigenvalues of (default mixing * dielectric matrix)
  average eigenvalue GAMMA=   1.1838
  3.0922  1.8769  1.8769  1.7623  1.7623  1.0473  1.0473  0.9477  0.9477  0.2063
  0.3464  0.3464  0.6898  0.6242

 Free energy of the ion-electron system (eV)
  ---------------------------------------------------
  alpha Z        PSCENC =       249.01062436
  Ewald energy   TEWEN  =     -2475.44479557
  -Hartree energ DENC   =      -667.60758974
  -exchange      EXHF   =         0.00000000
  -V(xc)+E(xc)   XCENC  =       147.10983242
  PAW double counting   =      3777.75779153    -3787.46625612
  entropy T*S    EENTRO =         0.00000000
  eigenvalues    EBANDS =      -324.03007932
  atomic energy  EATOM  =      3040.52701931
  ---------------------------------------------------
  free energy    TOTEN  =       -40.14345313 eV

  energy without entropy =      -40.14345313  energy(sigma->0) =      -40.14345313


--------------------------------------------------------------------------------------------------------




----------------------------------------- Iteration    1(  20)  ---------------------------------------


    POTLOK:  cpu time    0.09: real time    0.09
    SETDIJ:  cpu time    0.02: real time    0.02
     EDDAV:  cpu time   10.54: real time   10.56
 BZINTS: Fermi energy:  3.159303; 38.000000 electrons
         Band energy:-326.958200;  BLOECHL correction:  0.000000
       DOS:  cpu time    0.02: real time    0.02
    CHARGE:  cpu time    0.46: real time    0.46
    MIXING:  cpu time    0.00: real time    0.00
    --------------------------------------------
      LOOP:  cpu time   11.13: real time   11.15

 eigenvalue-minimisations  :  6416
 total energy-change (2. order) : 0.1003073E+00  (-0.4308405E-02)
 number of electron      37.9999978 magnetization      -0.0028717
 augmentation part        4.7049514 magnetization      -0.0031287

 Broyden mixing:
  rms(total) = 0.27284E+00    rms(broyden)= 0.27284E+00
  rms(prec ) = 0.51057E+00
  weight for this iteration     100.00

 eigenvalues of (default mixing * dielectric matrix)
  average eigenvalue GAMMA=   1.2047
  2.4536  2.4536  2.7476  1.3090  1.3090  1.4688  1.4688  0.2063  0.3464  0.3464
  0.9129  0.9129  0.8164  0.6946  0.6240

 Free energy of the ion-electron system (eV)
  ---------------------------------------------------
  alpha Z        PSCENC =       249.01062436
  Ewald energy   TEWEN  =     -2475.44479557
  -Hartree energ DENC   =      -664.54528268
  -exchange      EXHF   =         0.00000000
  -V(xc)+E(xc)   XCENC  =       146.94785468
  PAW double counting   =      3717.03206676    -3726.61243232
  entropy T*S    EENTRO =         0.00000000
  eigenvalues    EBANDS =      -326.95820039
  atomic energy  EATOM  =      3040.52701931
  ---------------------------------------------------
  free energy    TOTEN  =       -40.04314585 eV

[...]
      3     -29.9286      1.00000
      4     -21.9886      1.00000
      5     -13.4900      1.00000
      6     -13.3438      1.00000
      7     -13.1019      1.00000
      8      -7.5567      1.00000
      9      -7.4422      1.00000
     10      -7.2624      1.00000
     11      -1.1672      1.00000
     12      -0.6863      1.00000
     13      -0.5060      1.00000
     14       0.1325      1.00000
     15       0.3929      1.00000
     16       0.6003      1.00000
     17       2.0391      1.00000
     18       2.2582      1.00000
     19       2.5396      1.00000
     20       6.3679      0.00000
     21       6.5151      0.00000
     22       6.6772      0.00000
     23       8.5058      0.00000
     24       9.7791      0.00000
     25      10.1447      0.00000
     26      10.8506      0.00000
     27      11.1546      0.00000
     28      11.4202      0.00000
     29      12.7199      0.00000
     30      15.0813      0.00000
     31      16.3485      0.00000
     32      16.8299      0.00000

 k-point    38 :       0.3125    0.3125    0.4375
  band No.  band energies     occupation 
      1     -30.0501      1.00000
      2     -29.9477      1.00000
      3     -29.9474      1.00000
      4     -21.9825      1.00000
      5     -13.4330      1.00000
      6     -13.3149      1.00000
      7     -13.0674      1.00000
      8      -7.7340      1.00000
      9      -7.5312      1.00000
     10      -7.3549      1.00000
     11      -1.0421      1.00000
     12      -0.5159      1.00000
     13      -0.3705      1.00000
     14      -0.1022      1.00000
     15       0.4393      1.00000
     16       0.4636      1.00000
     17       2.2465      1.00000
     18       2.3837      1.00000
     19       2.4918      1.00000
     20       6.4754      0.00000
     21       6.5448      0.00000
     22       6.5821      0.00000
     23       9.2516      0.00000
     24       9.3287      0.00000
     25      10.3302      0.00000
     26      10.3764      0.00000
     27      10.7035      0.00000
     28      11.4020      0.00000
     29      12.1603      0.00000
     30      14.7603      0.00000
     31      16.5590      0.00000
     32      17.1933      0.00000

 k-point    39 :       0.4375    0.3125    0.4375
  band No.  band energies     occupation 
      1     -30.0495      1.00000
      2     -29.9605      1.00000
      3     -29.9470      1.00000
      4     -21.9641      1.00000
      5     -13.3817      1.00000
      6     -13.1950      1.00000
      7     -13.0533      1.00000
      8      -7.7896      1.00000
      9      -7.6898      1.00000
     10      -7.5372      1.00000
     11      -1.2176      1.00000
     12      -0.6683      1.00000
     13      -0.3873      1.00000
     14      -0.0280      1.00000
     15       0.3591      1.00000
     16       0.4307      1.00000
     17       2.3157      1.00000
     18       2.5427      1.00000
     19       2.6745      1.00000
     20       6.6043      0.00000
     21       6.7264      0.00000
     22       6.7793      0.00000
     23       9.0935      0.00000
     24       9.6475      0.00000
     25      10.0299      0.00000
     26      10.1841      0.00000
     27      10.6935      0.00000
     28      11.7504      0.00000
     29      12.5694      0.00000
     30      14.9529      0.00000
     31      16.8992      0.00000
     32      17.2157      0.00000

 k-point    40 :       0.4375    0.4375    0.4375
  band No.  band energies     occupation 
      1     -30.0488      1.00000
      2     -29.9599      1.00000
      3     -29.9599      1.00000
      4     -21.9465      1.00000
      5     -13.3269      1.00000
      6     -13.0575      1.00000
      7     -13.0205      1.00000
      8      -7.9254      1.00000
      9      -7.8838      1.00000
     10      -7.7099      1.00000
     11      -1.3569      1.00000
     12      -0.7273      1.00000
     13      -0.6417      1.00000
     14       0.2331      1.00000
     15       0.3715      1.00000
     16       0.4221      1.00000
     17       2.5361      1.00000
     18       2.5778      1.00000
     19       2.9476      1.00000
     20       6.8190      0.00000
     21       6.8230      0.00000
     22       6.9360      0.00000
     23       9.0353      0.00000
     24       9.5009      0.00000
     25       9.5935      0.00000
     26      10.2870      0.00000
     27      10.4260      0.00000
     28      12.3374      0.00000
     29      12.7182      0.00000
     30      14.9248      0.00000
     31      17.2730      0.00000
     32      17.3707      0.00000


--------------------------------------------------------------------------------------------------------


 soft charge-density along one line, spin component           1
         0         1         2         3         4         5         6         7         8         9
 total charge-density along one line
 
 soft charge-density along one line, spin component           2
         0         1         2         3         4         5         6         7         8         9
 total charge-density along one line
 
 pseudopotential strength for first ion, spin component:           1
  1.290  -5.102   0.000  -0.007   0.000   0.000   0.001   0.000
 -5.102   0.727  -0.000   0.004  -0.000   0.000  -0.002   0.000
  0.000  -0.000  -7.662  -0.000   0.000   4.474  -0.000   0.000
 -0.007   0.004  -0.000  -7.663   0.000  -0.000   4.472   0.000
  0.000  -0.000   0.000   0.000  -7.662   0.000   0.000   4.474
  0.000   0.000   4.474  -0.000   0.000   6.741   0.000  -0.000
  0.001  -0.002  -0.000   4.472   0.000   0.000   6.743  -0.000
  0.000   0.000   0.000   0.000   4.474  -0.000  -0.000   6.741
  0.000  -0.000   0.000   0.000   0.000   0.000   0.000   0.000
 -0.000   0.000  -0.002   0.000   0.000  -0.001   0.000   0.000
 -0.001   0.001  -0.000  -0.003  -0.000  -0.000  -0.000  -0.000
  0.000  -0.000   0.000   0.000  -0.002   0.000   0.000  -0.001
  0.000   0.000  -0.000  -0.000   0.000  -0.000  -0.000   0.000
  0.000  -0.000   0.000   0.000   0.000   0.000   0.000   0.000
 -0.000   0.000  -0.004   0.000   0.000  -0.001   0.000   0.000
 -0.002   0.001  -0.000  -0.004  -0.000  -0.000  -0.001  -0.000
  0.000  -0.000   0.000   0.000  -0.004   0.000   0.000  -0.001
  0.000   0.000  -0.000  -0.000   0.000  -0.000  -0.000   0.000
 pseudopotential strength for first ion, spin component:           2
  1.289  -5.102   0.000  -0.007   0.000   0.000   0.001   0.000
 -5.102   0.727  -0.000   0.004  -0.000   0.000  -0.002   0.000
  0.000  -0.000  -7.662  -0.000   0.000   4.475  -0.000   0.000
 -0.007   0.004  -0.000  -7.663   0.000  -0.000   4.472   0.000
  0.000  -0.000   0.000   0.000  -7.662   0.000   0.000   4.475
  0.000   0.000   4.475  -0.000   0.000   6.741   0.000  -0.000
  0.001  -0.002  -0.000   4.472   0.000   0.000   6.743  -0.000
  0.000   0.000   0.000   0.000   4.475  -0.000  -0.000   6.741
  0.000  -0.000   0.000   0.000   0.000   0.000   0.000   0.000
 -0.000   0.000  -0.002   0.000   0.000  -0.001   0.000   0.000
 -0.001   0.001  -0.000  -0.003  -0.000  -0.000  -0.000  -0.000
  0.000  -0.000   0.000   0.000  -0.002   0.000  -0.000  -0.001
  0.000   0.000  -0.000  -0.000   0.000  -0.000  -0.000   0.000
  0.000  -0.000   0.000   0.000   0.000   0.000   0.000   0.000
 -0.000   0.000  -0.004   0.000   0.000  -0.001   0.000   0.000
 -0.002   0.001  -0.000  -0.004  -0.000  -0.000  -0.001  -0.000
  0.000  -0.000   0.000   0.000  -0.004   0.000   0.000  -0.001
  0.000   0.000  -0.000  -0.000   0.000  -0.000  -0.000   0.000
 total augmentation occupancy for first ion, spin component:           1
  2.004  -0.004  -0.000  -0.000   0.000   0.000  -0.001   0.000   0.000  -0.000  -0.002   0.000   0.000   0.000   0.000  -0.000
 -0.004   0.388  -0.000  -0.024   0.000   0.000   0.005   0.000   0.000   0.000  -0.026   0.000   0.000   0.000   0.000   0.015
  0.000  -0.000   2.020   0.000   0.000  -0.009   0.000   0.000   0.000  -0.037   0.000   0.000   0.000   0.000   0.015   0.000
 -0.000  -0.024   0.000   2.021   0.000   0.000  -0.010   0.000   0.000   0.000  -0.023   0.000   0.000   0.000  -0.000   0.009
  0.000   0.000   0.000   0.000   2.020   0.000   0.000  -0.009   0.000   0.000   0.000  -0.037   0.000  -0.000   0.000   0.000
 -0.000   0.000  -0.009   0.000   0.000   0.010  -0.000   0.000   0.000   0.012  -0.000   0.000   0.000   0.000  -0.006  -0.000
 -0.001   0.005   0.000  -0.010   0.000   0.000   0.010   0.000   0.000   0.000   0.009   0.000   0.000   0.000   0.000  -0.005
  0.000   0.000   0.000   0.000  -0.009   0.000   0.000   0.010  -0.000   0.000   0.000   0.012   0.000   0.000   0.000   0.000
  0.000   0.000   0.000   0.000   0.000   0.000   0.000   0.000   2.851   0.000   0.000   0.000   0.000  -1.516   0.000   0.000
 -0.000   0.000  -0.037  -0.000   0.000   0.012   0.000   0.000   0.000   2.611   0.000   0.000   0.000   0.000  -1.380   0.000
 -0.002  -0.026   0.000  -0.023   0.000   0.000   0.009   0.000   0.000  -0.000   1.762   0.000   0.000   0.000   0.000  -0.927
  0.000   0.000   0.000   0.000  -0.037   0.000   0.000   0.012   0.000   0.000   0.000   2.611   0.000   0.000   0.000   0.000
  0.000   0.000   0.000   0.000   0.000   0.000   0.000   0.000   0.000   0.000   0.000   0.000   1.649  -0.000   0.000   0.000
  0.000   0.000   0.000   0.000  -0.000   0.000   0.000  -0.000  -1.516   0.000   0.000   0.000  -0.000   0.808   0.000   0.000
  0.000  -0.000   0.015   0.000   0.000  -0.006   0.000   0.000   0.000  -1.380   0.000   0.000   0.000   0.000   0.731   0.000
 -0.000   0.015   0.000   0.009   0.000   0.000  -0.005   0.000   0.000   0.000  -0.927   0.000   0.000   0.000   0.000   0.489
  0.000   0.000   0.000   0.000   0.015   0.000   0.000  -0.006   0.000   0.000   0.000  -1.380   0.000   0.000   0.000   0.000
  0.000   0.000   0.000   0.000   0.000  -0.000   0.000   0.000   0.000   0.000   0.000   0.000  -0.865   0.000   0.000   0.000
 total augmentation occupancy for first ion, spin component:           2
  0.000   0.000   0.000  -0.000   0.000   0.000  -0.000   0.000   0.000   0.000  -0.000   0.000   0.000   0.000   0.000   0.000
  0.000   0.000   0.000  -0.000   0.000   0.000   0.000   0.000   0.000  -0.000   0.000   0.000   0.000   0.000  -0.000  -0.000
  0.000   0.000   0.000   0.000   0.000  -0.000   0.000   0.000   0.000   0.000  -0.000   0.000   0.000   0.000  -0.000   0.000
 -0.000  -0.000   0.000   0.000   0.000   0.000  -0.000   0.000   0.000   0.000  -0.000   0.000   0.000   0.000   0.000   0.000
  0.000   0.000   0.000   0.000   0.000   0.000   0.000  -0.000  -0.000  -0.000   0.000   0.000   0.000   0.000  -0.000   0.000
  0.000   0.000  -0.000   0.000   0.000   0.000   0.000   0.000   0.000   0.000   0.000  -0.000  -0.000   0.000  -0.000   0.000
 -0.000   0.000   0.000  -0.000   0.000   0.000   0.000   0.000   0.000  -0.000  -0.000   0.000   0.000   0.000  -0.000   0.000
  0.000   0.000   0.000   0.000  -0.000   0.000   0.000   0.000   0.000   0.000   0.000   0.000   0.000  -0.000  -0.000   0.000
  0.000   0.000   0.000   0.000  -0.000   0.000   0.000   0.000   0.000  -0.000   0.000   0.000   0.000  -0.000  -0.000   0.000
  0.000  -0.000   0.000   0.000  -0.000   0.000  -0.000   0.000  -0.000   0.000   0.000   0.000   0.000   0.000  -0.000   0.000
 -0.000   0.000  -0.000  -0.000   0.000   0.000  -0.000   0.000   0.000   0.000   0.000   0.000   0.000   0.000   0.000  -0.000
  0.000   0.000   0.000   0.000   0.000  -0.000   0.000   0.000   0.000   0.000   0.000   0.000   0.000   0.000   0.000   0.000
  0.000   0.000   0.000   0.000   0.000  -0.000   0.000   0.000   0.000   0.000   0.000   0.000   0.000   0.000  -0.000   0.000
  0.000   0.000   0.000   0.000   0.000   0.000   0.000  -0.000  -0.000   0.000   0.000   0.000   0.000   0.000   0.000   0.000
  0.000  -0.000  -0.000   0.000  -0.000  -0.000  -0.000  -0.000  -0.000  -0.000   0.000   0.000  -0.000   0.000   0.000   0.000
  0.000  -0.000   0.000   0.000   0.000   0.000   0.000   0.000   0.000   0.000  -0.000   0.000   0.000   0.000   0.000   0.000
  0.000   0.000   0.000   0.000  -0.000  -0.000   0.000  -0.000  -0.000   0.000   0.000  -0.000   0.000   0.000   0.000   0.000
  0.000   0.000   0.000   0.000   0.000   0.000   0.000   0.000   0.000   0.000   0.000   0.000  -0.000   0.000   0.000   0.000


------------------------ aborting loop because EDIFF is reached ----------------------------------------


 


 total charge     
 
# of ion     s       p       d       tot
----------------------------------------
  1        2.005   5.645   0.301   7.951
  2        0.306   6.412   1.935   8.653
  3        1.574   3.328   0.000   4.902
  4        1.551   3.578   0.000   5.130
  5        1.569   3.454   0.000   5.023
------------------------------------------------
tot        7.004  22.418   2.236  31.658
 


 magnetization (x)
 
# of ion     s       p       d       tot
----------------------------------------
  1        0.000   0.000   0.000   0.000
  2        0.000   0.000   0.000   0.000
  3       -0.000  -0.000   0.000  -0.000
  4       -0.000  -0.000   0.000  -0.000
  5        0.000   0.000   0.000   0.000
------------------------------------------------
tot       -0.000  -0.000   0.000  -0.000
 
    CHARGE:  cpu time    0.46: real time    0.47
    FORLOC:  cpu time    0.00: real time    0.00
    FORNL :  cpu time    2.57: real time    2.57
    STRESS:  cpu time    7.71: real time    7.72
    FORCOR:  cpu time    0.09: real time    0.09
    FORHAR:  cpu time    0.01: real time    0.01
    MIXING:  cpu time    0.00: real time    0.00
    OFIELD:  cpu time    0.00: real time    0.00

  FORCE on cell =-STRESS in cart. coord.  units (eV):
  Direction    XX          YY          ZZ          XY          YZ          ZX
  --------------------------------------------------------------------------------------
  Alpha Z   249.01062   249.01062   249.01062
  Ewald    -813.12324  -813.12324  -849.20076     0.00000     0.00000     0.00000
  Hartree   228.41541   228.41541   199.96329    -0.00000    -0.00000    -0.00000
  E(xc)    -171.29637  -171.29637  -171.37746     0.00000    -0.00000    -0.00000
  Local     -55.48234   -55.48234     9.65115    -0.00000    -0.00000    -0.00000
  n-local  -129.07138  -126.82116  -128.41664    -0.35807    -0.31655    -0.28298
  augment    63.13534    63.13534    62.77753     0.00000     0.00000    -0.00000
  Kinetic   621.46803   632.89751   627.05111    -2.97756    -2.81842    -2.51410
  Fock        0.00000     0.00000     0.00000     0.00000     0.00000     0.00000
  -------------------------------------------------------------------------------------
  Total      -0.10408    -0.10408    -0.54114     0.00000     0.00000     0.00000
  in kB      -2.47812    -2.47812   -12.88430     0.00000     0.00000     0.00000
  external pressure =       -5.95 kB  Pullay stress =        0.00 kB


 VOLUME and BASIS-vectors are now :
 -----------------------------------------------------------------------------
  energy-cutoff  :      520.00
  volume of cell :       67.29
      direct lattice vectors                 reciprocal lattice vectors
     4.004888000  0.000000000  0.000000000     0.249694873  0.000000000  0.000000000
     0.000000000  4.004888000  0.000000000     0.000000000  0.249694873  0.000000000
     0.000000000  0.000000000  4.195444000     0.000000000  0.000000000  0.238353795

  length of vectors
     4.004888000  4.004888000  4.195444000     0.249694873  0.249694873  0.238353795


 FORCES acting on ions
    electron-ion (+dipol)            ewald-force                    non-local-force                 convergence-correction
 -----------------------------------------------------------------------------------------------
   -.115E-13 -.354E-14 0.617E+01   0.130E-13 -.157E-14 -.537E+01   0.000E+00 0.000E+00 -.823E+00   -.303E-13 0.161E-13 0.122E-01
   0.146E-12 0.808E-12 0.604E+02   0.214E-13 0.202E-13 -.595E+02   0.000E+00 0.000E+00 -.560E+00   0.135E-13 -.255E-13 -.139E+00
   -.162E-13 0.153E-12 0.188E+02   -.285E-13 -.578E-16 -.196E+02   -.173E-17 0.000E+00 0.838E+00   0.518E-14 -.249E-13 0.186E-01
   0.126E-12 0.355E-14 0.188E+02   0.228E-14 -.241E-13 -.196E+02   0.217E-18 -.108E-18 0.838E+00   0.236E-14 0.249E-13 0.186E-01
   0.130E-12 0.495E-12 -.949E+02   -.842E-14 0.361E-14 0.104E+03   0.000E+00 0.694E-17 -.936E+01   -.519E-14 -.421E-13 -.107E+00
 -----------------------------------------------------------------------------------------------
   0.374E-12 0.146E-11 0.929E+01   -.305E-15 -.190E-14 0.000E+00   -.152E-17 0.683E-17 -.907E+01   -.145E-13 -.515E-13 -.197E+00
 
 
 POSITION                                       TOTAL-FORCE (eV/Angst)
 -----------------------------------------------------------------------------------
      0.00000      0.00000      0.07691        -0.000000      0.000000     -0.021082
      2.00244      2.00244      2.24392         0.000000      0.000000      0.220773
      0.00000      2.00244      2.06928         0.000000      0.000000     -0.018320
      2.00244      0.00000      2.06928         0.000000      0.000000     -0.018320
      2.00244      2.00244      4.08796         0.000000     -0.000000     -0.163051
 -----------------------------------------------------------------------------------
    total drift:                                0.000000      0.000000      0.025931


--------------------------------------------------------------------------------------------------------



  FREE ENERGIE OF THE ION-ELECTRON SYSTEM (eV)
  ---------------------------------------------------
  free  energy   TOTEN  =       -39.94013262 eV

  energy  without entropy=      -39.94013262  energy(sigma->0) =      -39.94013262
 


--------------------------------------------------------------------------------------------------------


    POTLOK:  cpu time    0.11: real time    0.11


--------------------------------------------------------------------------------------------------------


 writing wavefunctions
     LOOP+:  cpu time  311.67: real time  316.37
    4ORBIT:  cpu time    0.00: real time    0.00
 


 total charge     
 
# of ion     s       p       d       tot
----------------------------------------
  1        2.005   5.645   0.301   7.951
  2        0.306   6.412   1.935   8.653
  3        1.574   3.328   0.000   4.902
  4        1.551   3.578   0.000   5.130
  5        1.569   3.454   0.000   5.023
------------------------------------------------
tot        7.004  22.418   2.236  31.658
 


 magnetization (x)
 
# of ion     s       p       d       tot
----------------------------------------
  1        0.000   0.000   0.000   0.000
  2        0.000   0.000   0.000   0.000
  3       -0.000  -0.000   0.000  -0.000
  4       -0.000  -0.000   0.000  -0.000
  5        0.000   0.000   0.000   0.000
------------------------------------------------
tot       -0.000  -0.000   0.000  -0.000
 
 BZINTS: Fermi energy:  3.052418; 38.000000 electrons
         Band energy:-334.121627;  BLOECHL correction:  0.000000

 total amount of memory used by VASP on root node    49598. kBytes
========================================================================

   base      :      30000. kBytes
   nonlr-proj:       3469. kBytes
   fftplans  :       1162. kBytes
   grid      :       5105. kBytes
   one-center:        155. kBytes
   wavefun   :       9707. kBytes
 
  
  
 General timing and accounting informations for this job:
 ========================================================
  
                  Total CPU time used (sec):      321.590
                            User time (sec):      309.497
                          System time (sec):       12.093
                         Elapsed time (sec):      327.442
  
                   Maximum memory used (kb):       62932.
                   Average memory used (kb):           0.
  
                          Minor page faults:      3139482
                          Major page faults:            8
                 Voluntary context switches:         1234
