 vasp.5.3.5 31Mar14 (build Oct 24 2014 12:38:34) complex                        
  
 executed on             LinuxIFC date 2016.10.20  19:24:50
 running on    8 total cores
 distrk:  each k-point on    8 cores,    1 groups
 distr:  one band on NCORES_PER_BAND=   1 cores,    8 groups


--------------------------------------------------------------------------------------------------------


 INCAR:
 POTCAR:    PAW_PBE Ba_sv 06Sep2000               
 POTCAR:    PAW_PBE Ti_pv 07Sep2000               
 POTCAR:    PAW_PBE O 08Apr2002                   

 ----------------------------------------------------------------------------- 
|                                                                             |
|           W    W    AA    RRRRR   N    N  II  N    N   GGGG   !!!           |
|           W    W   A  A   R    R  NN   N  II  NN   N  G    G  !!!           |
|           W    W  A    A  R    R  N N  N  II  N N  N  G       !!!           |
|           W WW W  AAAAAA  RRRRR   N  N N  II  N  N N  G  GGG   !            |
|           WW  WW  A    A  R   R   N   NN  II  N   NN  G    G                |
|           W    W  A    A  R    R  N    N  II  N    N   GGGG   !!!           |
|                                                                             |
|      For optimal performance we recommend to set                            |
|        NCORE= 4 - approx SQRT( number of cores)                             |
|      NCORE specifies how many cores store one orbital (NPAR=cpu/NCORE).     |
|      This setting can  greatly improve the performance of VASP for DFT.     |
|      The default, NPAR=number of cores might be grossly inefficient         |
|      on modern multi-core architectures or massively parallel machines.     |
|      Do your own testing !!!!                                               |
|      Unfortunately you need to use the default for GW and RPA calculations. |
|      (for HF NCORE is supported but not extensively tested yet)             |
|                                                                             |
 ----------------------------------------------------------------------------- 

 POTCAR:    PAW_PBE Ba_sv 06Sep2000               
   VRHFIN =Ba: 5s5p6s                                                           
   LEXCH  = PE                                                                  
   EATOM  =   700.8560 eV,   51.5115 Ry                                         
                                                                                
   TITEL  = PAW_PBE Ba_sv 06Sep2000                                             
   LULTRA =        F    use ultrasoft PP ?                                      
   IUNSCR =        1    unscreen: 0-lin 1-nonlin 2-no                           
   RPACOR =    2.400    partial core radius                                     
   POMASS =  137.327; ZVAL   =   10.000    mass and valenz                      
   RCORE  =    2.800    outmost cutoff radius                                   
   RWIGS  =    3.740; RWIGS  =    1.979    wigner-seitz radius (au A)           
   ENMAX  =  187.181; ENMIN  =  140.386 eV                                      
   RCLOC  =    2.516    cutoff for local pot                                    
   LCOR   =        T    correct aug charges                                     
   LPAW   =        T    paw PP                                                  
   EAUG   =  351.165                                                            
   DEXC   =    0.000                                                            
   RMAX   =    2.865    core radius for proj-oper                               
   RAUG   =    1.300    factor for augmentation sphere                          
   RDEP   =    2.976    radius for radial grids                                 
   RDEPT  =    2.289    core radius for aug-charge                              
                                                                                
   Atomic configuration                                                         
   13 entries                                                                   
     n  l   j            E        occ.                                          
     1  0  0.50    -37249.5946   2.0000                                         
     2  0  0.50     -5887.1925   2.0000                                         
     2  1  1.50     -5278.3977   6.0000                                         
     3  0  0.50     -1242.7293   2.0000                                         
     3  1  1.50     -1047.6609   6.0000                                         
     3  2  2.50      -764.6158  10.0000                                         
     4  0  0.50      -243.8228   2.0000                                         
     4  1  1.50      -180.9218   6.0000                                         
     4  2  2.50       -89.6477  10.0000                                         
     5  0  0.50       -33.6549   2.0000                                         
     6  0  0.50        -3.2247   1.9900                                         
     5  1  1.50       -18.7193   6.0000                                         
     5  2  2.50        -2.0115   0.0100                                         
   Description                                                                  
     l       E           TYP  RCUT    TYP  RCUT                                 
     0    -33.6549039     23  2.800                                             
     0     -3.2246942     23  2.800                                             
     1    -18.7193050     23  2.700                                             
     1     27.2116520     23  2.700                                             
     2     -2.0115002     23  2.700                                             
     2      0.3057420     23  2.700                                             
  local pseudopotential read in
  partial core-charges read in
  partial kinetic energy density read in
  atomic valenz-charges read in
  non local Contribution for L=           0  read in
    real space projection operators read in
  non local Contribution for L=           0  read in
    real space projection operators read in
  non local Contribution for L=           1  read in
    real space projection operators read in
  non local Contribution for L=           1  read in
    real space projection operators read in
  non local Contribution for L=           2  read in
    real space projection operators read in
  non local Contribution for L=           2  read in
    real space projection operators read in
    PAW grid and wavefunctions read in
 
   number of l-projection  operators is LMAX  =           6
   number of lm-projection operators is LMMAX =          18
 
 POTCAR:    PAW_PBE Ti_pv 07Sep2000               
   VRHFIN =Ti: d3 s1                                                            
   LEXCH  = PE                                                                  
   EATOM  =  1042.5995 eV,   76.6289 Ry                                         
                                                                                
   TITEL  = PAW_PBE Ti_pv 07Sep2000                                             
   LULTRA =        F    use ultrasoft PP ?                                      
   IUNSCR =        1    unscreen: 0-lin 1-nonlin 2-no                           
   RPACOR =    2.200    partial core radius                                     
   POMASS =   47.880; ZVAL   =   10.000    mass and valenz                      
   RCORE  =    2.500    outmost cutoff radius                                   
   RWIGS  =    2.500; RWIGS  =    1.323    wigner-seitz radius (au A)           
   ENMAX  =  222.335; ENMIN  =  166.751 eV                                      
   RCLOC  =    1.701    cutoff for local pot                                    
   LCOR   =        T    correct aug charges                                     
   LPAW   =        T    paw PP                                                  
   EAUG   =  482.848                                                            
   DEXC   =    0.000                                                            
   RMAX   =    2.564    core radius for proj-oper                               
   RAUG   =    1.300    factor for augmentation sphere                          
   RDEP   =    2.538    radius for radial grids                                 
   RDEPT  =    1.952    core radius for aug-charge                              
                                                                                
   Atomic configuration                                                         
    8 entries                                                                   
     n  l   j            E        occ.                                          
     1  0  0.50     -4865.3608   2.0000                                         
     2  0  0.50      -533.1368   2.0000                                         
     2  1  1.50      -440.5031   6.0000                                         
     3  0  0.50       -59.3186   2.0000                                         
     3  1  1.50       -35.7012   6.0000                                         
     3  2  2.50        -1.9157   3.0000                                         
     4  0  0.50        -3.7291   1.0000                                         
     4  3  2.50        -1.3606   0.0000                                         
   Description                                                                  
     l       E           TYP  RCUT    TYP  RCUT                                 
     1    -35.7012140     23  2.300                                             
     1     -1.3605826     23  2.300                                             
     2     -1.9156996     23  2.500                                             
     2     -0.4063033     23  2.500                                             
     0     -3.7290856     23  2.500                                             
     0     20.4087390     23  2.500                                             
  local pseudopotential read in
  partial core-charges read in
  partial kinetic energy density read in
  atomic valenz-charges read in
  non local Contribution for L=           1  read in
    real space projection operators read in
  non local Contribution for L=           1  read in
    real space projection operators read in
  non local Contribution for L=           2  read in
    real space projection operators read in
  non local Contribution for L=           2  read in
    real space projection operators read in
  non local Contribution for L=           0  read in
    real space projection operators read in
  non local Contribution for L=           0  read in
    real space projection operators read in
    PAW grid and wavefunctions read in
 
   number of l-projection  operators is LMAX  =           6
   number of lm-projection operators is LMMAX =          18
 
 POTCAR:    PAW_PBE O 08Apr2002                   
   VRHFIN =O: s2p4                                                              
   LEXCH  = PE                                                                  
   EATOM  =   432.3788 eV,   31.7789 Ry                                         
                                                                                
   TITEL  = PAW_PBE O 08Apr2002                                                 
   LULTRA =        F    use ultrasoft PP ?                                      
   IUNSCR =        1    unscreen: 0-lin 1-nonlin 2-no                           
   RPACOR =    1.200    partial core radius                                     
   POMASS =   16.000; ZVAL   =    6.000    mass and valenz                      
   RCORE  =    1.520    outmost cutoff radius                                   
   RWIGS  =    1.550; RWIGS  =    0.820    wigner-seitz radius (au A)           
   ENMAX  =  400.000; ENMIN  =  300.000 eV                                      
   ICORE  =        2    local potential                                         
   LCOR   =        T    correct aug charges                                     
   LPAW   =        T    paw PP                                                  
   EAUG   =  605.392                                                            
   DEXC   =    0.000                                                            
   RMAX   =    1.553    core radius for proj-oper                               
   RAUG   =    1.300    factor for augmentation sphere                          
   RDEP   =    1.550    radius for radial grids                                 
   RDEPT  =    1.329    core radius for aug-charge                              
                                                                                
   Atomic configuration                                                         
    4 entries                                                                   
     n  l   j            E        occ.                                          
     1  0  0.50      -514.6923   2.0000                                         
     2  0  0.50       -23.9615   2.0000                                         
     2  1  0.50        -9.0305   4.0000                                         
     3  2  1.50        -9.5241   0.0000                                         
   Description                                                                  
     l       E           TYP  RCUT    TYP  RCUT                                 
     0    -23.9615318     23  1.200                                             
     0     -9.5240782     23  1.200                                             
     1     -9.0304911     23  1.520                                             
     1      8.1634956     23  1.520                                             
     2     -9.5240782      7  1.500                                             
  local pseudopotential read in
  partial core-charges read in
  partial kinetic energy density read in
  kinetic energy density of atom read in
  atomic valenz-charges read in
  non local Contribution for L=           0  read in
    real space projection operators read in
  non local Contribution for L=           0  read in
    real space projection operators read in
  non local Contribution for L=           1  read in
    real space projection operators read in
  non local Contribution for L=           1  read in
    real space projection operators read in
    PAW grid and wavefunctions read in
 
   number of l-projection  operators is LMAX  =           4
   number of lm-projection operators is LMMAX =           8
 

 ----------------------------------------------------------------------------- 
|                                                                             |
|  ADVICE TO THIS USER RUNNING 'VASP/VAMP'   (HEAR YOUR MASTER'S VOICE ...):  |
|                                                                             |
|      You have a (more or less) 'small supercell' and for smaller cells      |
|      it is recommended  to use the reciprocal-space projection scheme!      |
|      The real space optimization is not  efficient for small cells and it   |
|      is also less accurate ...                                              |
|      Therefore set LREAL=.FALSE. in the  INCAR file                         |
|                                                                             |
 ----------------------------------------------------------------------------- 

 Optimization of the real space projectors (new method)

 maximal supplied QI-value         = 13.42
 optimisation between [QCUT,QGAM] = [ 11.67, 23.35] = [ 38.16,152.62] Ry 
 Optimized for a Real-space Cutoff    1.68 Angstroem

   l    n(q)    QCUT    max X(q) W(low)/X(q) W(high)/X(q)  e(spline) 
   0     12    11.673    13.244    0.27E-04    0.53E-05    0.55E-07
   0     12    11.673    14.240    0.39E-04    0.74E-05    0.11E-06
   1     11    11.673     4.828    0.65E-05    0.14E-04    0.51E-07
   1     11    11.673     3.934    0.16E-04    0.58E-04    0.38E-06
   2     11    11.673    87.714    0.23E-03    0.16E-03    0.84E-06
   2     11    11.673    59.874    0.22E-03    0.15E-03    0.81E-06
 Optimization of the real space projectors (new method)

 maximal supplied QI-value         = 15.12
 optimisation between [QCUT,QGAM] = [ 11.64, 23.28] = [ 37.95,151.78] Ry 
 Optimized for a Real-space Cutoff    1.49 Angstroem

   l    n(q)    QCUT    max X(q) W(low)/X(q) W(high)/X(q)  e(spline) 
   1     10    11.641     4.216    0.17E-04    0.40E-04    0.50E-07
   1     10    11.641     5.422    0.66E-04    0.10E-03    0.13E-06
   2      9    11.641    72.084    0.68E-04    0.13E-03    0.50E-06
   2      9    11.641    65.965    0.66E-04    0.13E-03    0.50E-06
   0     10    11.641    41.531    0.10E-03    0.87E-04    0.31E-06
   0     10    11.641    16.290    0.75E-04    0.66E-04    0.24E-06
 Optimization of the real space projectors (new method)

 maximal supplied QI-value         = 24.76
 optimisation between [QCUT,QGAM] = [ 11.64, 23.27] = [ 37.91,151.63] Ry 
 Optimized for a Real-space Cutoff    1.14 Angstroem

   l    n(q)    QCUT    max X(q) W(low)/X(q) W(high)/X(q)  e(spline) 
   0      8    11.635    20.381    0.10E-03    0.33E-03    0.24E-06
   0      8    11.635    15.268    0.11E-03    0.35E-03    0.26E-06
   1      7    11.635     5.964    0.24E-03    0.31E-03    0.30E-06
   1      7    11.635     5.382    0.22E-03    0.25E-03    0.26E-06
  PAW_PBE Ba_sv 06Sep2000               :
 energy of atom  1       EATOM= -700.8560
 kinetic energy error for atom=    0.0005 (will be added to EATOM!!)
  PAW_PBE Ti_pv 07Sep2000               :
 energy of atom  2       EATOM=-1042.5995
 kinetic energy error for atom=    0.0019 (will be added to EATOM!!)
  PAW_PBE O 08Apr2002                   :
 energy of atom  3       EATOM= -432.3788
 kinetic energy error for atom=    0.0208 (will be added to EATOM!!)
 
 
 POSCAR: Ba1 Ti1 O3                              
  positions in direct lattice
  velocities in cartesian coordinates
 exchange correlation table for  LEXCH =        8
   RHO(1)=    0.500       N(1)  =     2000
   RHO(2)=  100.500       N(2)  =     4000
 


--------------------------------------------------------------------------------------------------------


 ion  position               nearest neighbor table
   1  0.000  0.000  0.013-   3 2.84   4 2.84   3 2.84   4 2.84   5 2.84   5 2.84   5 2.84   5 2.84
                             3 2.93   4 2.93   4 2.93   3 2.93   2 3.49   2 3.49   2 3.49   2 3.49
   2  0.500  0.500  0.523-   5 1.91   4 2.01   3 2.01   4 2.01   3 2.01   5 2.22   1 3.49   1 3.49
                             1 3.49   1 3.49   1 3.54   1 3.54   1 3.54   1 3.54
   3  0.000  0.500  0.497-   2 2.01   2 2.01   1 2.84   1 2.84   1 2.93   1 2.93
   4  0.500  0.000  0.497-   2 2.01   2 2.01   1 2.84   1 2.84   1 2.93   1 2.93
   5  0.500  0.500  0.985-   2 1.91   2 2.22   1 2.84   1 2.84   1 2.84   1 2.84
 
  LATTYP: Found a simple tetragonal cell.
 ALAT       =     4.0154460000
 C/A-ratio  =     1.0296599680
  
  Lattice vectors:
  
 A1 = (   4.0154460000,   0.0000000000,   0.0000000000)
 A2 = (   0.0000000000,   4.0154460000,   0.0000000000)
 A3 = (   0.0000000000,   0.0000000000,   4.1345440000)


Analysis of symmetry for initial positions (statically):
=====================================================================
 Subroutine PRICEL returns:
 Original cell was already a primitive cell.
 

 Routine SETGRP: Setting up the symmetry group for a 
 simple tetragonal supercell.


 Subroutine GETGRP returns: Found  8 space group operations
 (whereof  8 operations were pure point group operations)
 out of a pool of 16 trial point group operations.


The static configuration has the point symmetry C_4v.


Analysis of symmetry for dynamics (positions and initial velocities):
=====================================================================
 Subroutine PRICEL returns:
 Original cell was already a primitive cell.
 

 Routine SETGRP: Setting up the symmetry group for a 
 simple tetragonal supercell.


 Subroutine GETGRP returns: Found  8 space group operations
 (whereof  8 operations were pure point group operations)
 out of a pool of 16 trial point group operations.


The dynamic configuration has the point symmetry C_4v.


Analysis of magnetic symmetry:
=====================================================================
 Subroutine PRICEL returns:
 Original cell was already a primitive cell.
 

 Subroutine MAGSYM returns: Found  8 space group operations
 (whereof  8 operations were pure point group operations)
 out of a pool of  8 trial space group operations
 (whereof  8 operations were pure point group operations)
 and found also     1 'primitive' translations


The magnetic configuration has the point symmetry C_4v.
 
 
 KPOINTS: pymatgen generated KPOINTS with grid den

Automatic generation of k-mesh.
Space group operators:
 irot       det(A)        alpha          n_x          n_y          n_z        tau_x        tau_y        tau_z
    1     1.000000     0.000000     1.000000     0.000000     0.000000     0.000000     0.000000     0.000000
    2     1.000000    90.000000     0.000000     0.000000    -1.000000     0.000000     0.000000     0.000000
    3     1.000000   180.000000     0.000000     0.000000     1.000000     0.000000     0.000000     0.000000
    4     1.000000    90.000000     0.000000     0.000000     1.000000     0.000000     0.000000     0.000000
    5    -1.000000   180.000000     0.000000     1.000000     0.000000     0.000000     0.000000     0.000000
    6    -1.000000   180.000000     0.707107     0.707107     0.000000     0.000000     0.000000     0.000000
    7    -1.000000   180.000000     1.000000     0.000000     0.000000     0.000000     0.000000     0.000000
    8    -1.000000   180.000000     0.707107    -0.707107     0.000000     0.000000     0.000000     0.000000
 
 Subroutine IBZKPT returns following result:
 ===========================================
 
 Found     40 irreducible k-points:
 
 Following reciprocal coordinates:
            Coordinates               Weight
  0.062500  0.062500  0.062500      8.000000
  0.187500  0.062500  0.062500     16.000000
  0.312500  0.062500  0.062500     16.000000
  0.437500  0.062500  0.062500     16.000000
  0.187500  0.187500  0.062500      8.000000
  0.312500  0.187500  0.062500     16.000000
  0.437500  0.187500  0.062500     16.000000
  0.312500  0.312500  0.062500      8.000000
  0.437500  0.312500  0.062500     16.000000
  0.437500  0.437500  0.062500      8.000000
  0.062500  0.062500  0.187500      8.000000
  0.187500  0.062500  0.187500     16.000000
  0.312500  0.062500  0.187500     16.000000
  0.437500  0.062500  0.187500     16.000000
  0.187500  0.187500  0.187500      8.000000
  0.312500  0.187500  0.187500     16.000000
  0.437500  0.187500  0.187500     16.000000
  0.312500  0.312500  0.187500      8.000000
  0.437500  0.312500  0.187500     16.000000
  0.437500  0.437500  0.187500      8.000000
  0.062500  0.062500  0.312500      8.000000
  0.187500  0.062500  0.312500     16.000000
  0.312500  0.062500  0.312500     16.000000
  0.437500  0.062500  0.312500     16.000000
  0.187500  0.187500  0.312500      8.000000
  0.312500  0.187500  0.312500     16.000000
  0.437500  0.187500  0.312500     16.000000
  0.312500  0.312500  0.312500      8.000000
  0.437500  0.312500  0.312500     16.000000
  0.437500  0.437500  0.312500      8.000000
  0.062500  0.062500  0.437500      8.000000
  0.187500  0.062500  0.437500     16.000000
  0.312500  0.062500  0.437500     16.000000
  0.437500  0.062500  0.437500     16.000000
  0.187500  0.187500  0.437500      8.000000
  0.312500  0.187500  0.437500     16.000000
  0.437500  0.187500  0.437500     16.000000
  0.312500  0.312500  0.437500      8.000000
  0.437500  0.312500  0.437500     16.000000
  0.437500  0.437500  0.437500      8.000000
 
 Following cartesian coordinates:
            Coordinates               Weight
  0.015565  0.015565  0.015117      8.000000
  0.046695  0.015565  0.015117     16.000000
  0.077824  0.015565  0.015117     16.000000
  0.108954  0.015565  0.015117     16.000000
  0.046695  0.046695  0.015117      8.000000
  0.077824  0.046695  0.015117     16.000000
  0.108954  0.046695  0.015117     16.000000
  0.077824  0.077824  0.015117      8.000000
  0.108954  0.077824  0.015117     16.000000
  0.108954  0.108954  0.015117      8.000000
  0.015565  0.015565  0.045350      8.000000
  0.046695  0.015565  0.045350     16.000000
  0.077824  0.015565  0.045350     16.000000
  0.108954  0.015565  0.045350     16.000000
  0.046695  0.046695  0.045350      8.000000
  0.077824  0.046695  0.045350     16.000000
  0.108954  0.046695  0.045350     16.000000
  0.077824  0.077824  0.045350      8.000000
  0.108954  0.077824  0.045350     16.000000
  0.108954  0.108954  0.045350      8.000000
  0.015565  0.015565  0.075583      8.000000
  0.046695  0.015565  0.075583     16.000000
  0.077824  0.015565  0.075583     16.000000
  0.108954  0.015565  0.075583     16.000000
  0.046695  0.046695  0.075583      8.000000
  0.077824  0.046695  0.075583     16.000000
  0.108954  0.046695  0.075583     16.000000
  0.077824  0.077824  0.075583      8.000000
  0.108954  0.077824  0.075583     16.000000
  0.108954  0.108954  0.075583      8.000000
  0.015565  0.015565  0.105816      8.000000
  0.046695  0.015565  0.105816     16.000000
  0.077824  0.015565  0.105816     16.000000
  0.108954  0.015565  0.105816     16.000000
  0.046695  0.046695  0.105816      8.000000
  0.077824  0.046695  0.105816     16.000000
  0.108954  0.046695  0.105816     16.000000
  0.077824  0.077824  0.105816      8.000000
  0.108954  0.077824  0.105816     16.000000
  0.108954  0.108954  0.105816      8.000000
 
 TETIRR: Found    703 inequivalent tetrahedra from     3072


--------------------------------------------------------------------------------------------------------




 Dimension of arrays:
   k-points           NKPTS =     40   k-points in BZ     NKDIM =     40   number of bands    NBANDS=     32
   number of dos      NEDOS =    301   number of ions     NIONS =      5
   non local maximal  LDIM  =      6   non local SUM 2l+1 LMDIM =     18
   total plane-waves  NPLWV =  28800
   max r-space proj   IRMAX =   8569   max aug-charges    IRDMAX=  27239
   dimension x,y,z NGX =    30 NGY =   30 NGZ =   32
   dimension x,y,z NGXF=    60 NGYF=   60 NGZF=   64
   support grid    NGXF=    60 NGYF=   60 NGZF=   64
   ions per type =               1   1   3
 NGX,Y,Z   is equivalent  to a cutoff of  12.42, 12.42, 12.87 a.u.
 NGXF,Y,Z  is equivalent  to a cutoff of  24.84, 24.84, 25.73 a.u.


 I would recommend the setting:
   dimension x,y,z NGX =    30 NGY =   30 NGZ =   31
 SYSTEM =  unknown system                          
 POSCAR =  Ba1 Ti1 O3                              

 Startparameter for this run:
   NWRITE =      2    write-flag & timer
   PREC   = accura    normal or accurate (medium, high low for compatibility)
   ISTART =      0    job   : 0-new  1-cont  2-samecut
   ICHARG =      0    charge: 1-file 2-atom 10-const
   ISPIN  =      2    spin polarized calculation?
   LNONCOLLINEAR =      F non collinear calculations
   LSORBIT =      F    spin-orbit coupling
   INIWAV =      1    electr: 0-lowe 1-rand  2-diag
   LASPH  =      F    aspherical Exc in radial PAW
   METAGGA=      F    non-selfconsistent MetaGGA calc.

 Electronic Relaxation 1
   ENCUT  =  520.0 eV  38.22 Ry    6.18 a.u.   7.47  7.47  7.69*2*pi/ulx,y,z
   ENINI  =  520.0     initial cutoff
   ENAUG  =  605.4 eV  augmentation charge cutoff
   NELM   =    100;   NELMIN=  2; NELMDL= -5     # of ELM steps 
   EDIFF  = 0.3E-03   stopping-criterion for ELM
   LREAL  =      T    real-space projection
   NLSPLINE    = F    spline interpolate recip. space projectors
   LCOMPAT=      F    compatible to vasp.4.4
   GGA_COMPAT  = T    GGA compatible to vasp.4.4-vasp.4.6
   LMAXPAW     = -100 max onsite density
   LMAXMIX     =    2 max onsite mixed and CHGCAR
   VOSKOWN=      0    Vosko Wilk Nusair interpolation
   ROPT   =   -0.00025  -0.00025  -0.00025
 Ionic relaxation
   EDIFFG = 0.3E-02   stopping-criterion for IOM
   NSW    =      0    number of steps for IOM
   NBLOCK =      1;   KBLOCK =      1    inner block; outer block 
   IBRION =     -1    ionic relax: 0-MD 1-quasi-New 2-CG
   NFREE  =      0    steps in history (QN), initial steepest desc. (CG)
   ISIF   =      3    stress and relaxation
   IWAVPR =     10    prediction:  0-non 1-charg 2-wave 3-comb
   ISYM   =      2    0-nonsym 1-usesym 2-fastsym
   LCORR  =      T    Harris-Foulkes like correction to forces

   POTIM  = 0.5000    time-step for ionic-motion
   TEIN   =    0.0    initial temperature
   TEBEG  =    0.0;   TEEND  =   0.0 temperature during run
   SMASS  =  -3.00    Nose mass-parameter (am)
   estimated Nose-frequenzy (Omega)   =  0.10E-29 period in steps =****** mass=  -0.368E-27a.u.
   SCALEE = 1.0000    scale energy and forces
   NPACO  =    256;   APACO  = 16.0  distance and # of slots for P.C.
   PSTRESS=    0.0 pullay stress

  Mass of Ions in am
   POMASS = 137.33 47.88 16.00
  Ionic Valenz
   ZVAL   =  10.00 10.00  6.00
  Atomic Wigner-Seitz radii
   RWIGS  =  -1.00 -1.00 -1.00
  virtual crystal weights 
   VCA    =   1.00  1.00  1.00
   NELECT =      38.0000    total number of electrons
   NUPDOWN=      -1.0000    fix difference up-down

 DOS related values:
   EMIN   =  10.00;   EMAX   =-10.00  energy-range for DOS
   EFERMI =   0.00
   ISMEAR =    -5;   SIGMA  =   0.05  broadening in eV -4-tet -1-fermi 0-gaus

 Electronic relaxation 2 (details)
   IALGO  =     38    algorithm
   LDIAG  =      T    sub-space diagonalisation (order eigenvalues)
   LSUBROT=      F    optimize rotation matrix (better conditioning)
   TURBO    =      0    0=normal 1=particle mesh
   IRESTART =      0    0=no restart 2=restart with 2 vectors
   NREBOOT  =      0    no. of reboots
   NMIN     =      0    reboot dimension
   EREF     =   0.00    reference energy to select bands
   IMIX   =      4    mixing-type and parameters
     AMIX     =   0.40;   BMIX     =  1.00
     AMIX_MAG =   1.60;   BMIX_MAG =  1.00
     AMIN     =   0.10
     WC   =   100.;   INIMIX=   1;  MIXPRE=   1;  MAXMIX= -45

 Intra band minimization:
   WEIMIN = 0.0000     energy-eigenvalue tresh-hold
   EBREAK =  0.20E-05  absolut break condition
   DEPER  =   0.30     relativ break condition  

   TIME   =   0.40     timestep for ELM

  volume/ion in A,a.u.               =      13.33        89.97
  Fermi-wavevector in a.u.,A,eV,Ry     =   1.357389  2.565093 25.068798  1.842505
  Thomas-Fermi vector in A             =   2.484311
 
 Write flags
   LWAVE  =      T    write WAVECAR
   LCHARG =      T    write CHGCAR
   LVTOT  =      F    write LOCPOT, total local potential
   LVHAR  =      T    write LOCPOT, Hartree potential only
   LELF   =      F    write electronic localiz. function (ELF)
   LORBIT =     11    0 simple, 1 ext, 2 COOP (PROOUT)


 Dipole corrections
   LMONO  =      F    monopole corrections only (constant potential shift)
   LDIPOL =      F    correct potential (dipole corrections)
   IDIPOL =      0    1-x, 2-y, 3-z, 4-all directions 
   EPSILON=  1.0000000 bulk dielectric constant

 Exchange correlation treatment:
   GGA     =    --    GGA type
   LEXCH   =     8    internal setting for exchange type
   VOSKOWN=      0    Vosko Wilk Nusair interpolation
   LHFCALC =     F    Hartree Fock is set to
   LHFONE  =     F    Hartree Fock one center treatment
   AEXX    =    0.0000 exact exchange contribution

 Linear response parameters
   LEPSILON=     F    determine dielectric tensor
   LRPA    =     F    only Hartree local field effects (RPA)
   LNABLA  =     F    use nabla operator in PAW spheres
   LVEL    =     F    velocity operator in full k-point grid
   LINTERFAST=   F  fast interpolation
   KINTER  =     0    interpolate to denser k-point grid
   CSHIFT  =0.1000    complex shift for real part using Kramers Kronig
   OMEGAMAX=  -1.0    maximum frequency
   DEG_THRESHOLD= 0.2000000E-02 threshold for treating states as degnerate
   RTIME   =    0.100 relaxation time in fs

 Orbital magnetization related:
   ORBITALMAG=     F  switch on orbital magnetization
   LCHIMAG   =     F  perturbation theory with respect to B field
   DQ        =  0.001000  dq finite difference perturbation B field



--------------------------------------------------------------------------------------------------------


 Static calculation
 charge density and potential will be updated during run
 spin polarized calculation
 Variant of blocked Davidson
 Davidson routine will perform the subspace rotation
 perform sub-space diagonalisation
    after iterative eigenvector-optimisation
 modified Broyden-mixing scheme, WC =      100.0
 initial mixing is a Kerker type mixing with AMIX =  0.4000 and BMIX =      1.0000
 Hartree-type preconditioning will be used
 using additional bands           13
 real space projection scheme for non local part
 use partial core corrections
 calculate Harris-corrections to forces 
   (improved forces if not selfconsistent)
 use gradient corrections 
 use of overlap-Matrix (Vanderbilt PP)
 Fermi weights with tetrahedron method with Bloechl corrections


--------------------------------------------------------------------------------------------------------


  energy-cutoff  :      520.00
  volume of cell :       66.66
      direct lattice vectors                 reciprocal lattice vectors
     4.015446000  0.000000000  0.000000000     0.249038338  0.000000000  0.000000000
     0.000000000  4.015446000  0.000000000     0.000000000  0.249038338  0.000000000
     0.000000000  0.000000000  4.134544000     0.000000000  0.000000000  0.241864641

  length of vectors
     4.015446000  4.015446000  4.134544000     0.249038338  0.249038338  0.241864641


 
 k-points in units of 2pi/SCALE and weight: pymatgen generated KPOINTS with grid den
   0.01556490  0.01556490  0.01511654       0.016
   0.04669469  0.01556490  0.01511654       0.031
   0.07782448  0.01556490  0.01511654       0.031
   0.10895427  0.01556490  0.01511654       0.031
   0.04669469  0.04669469  0.01511654       0.016
   0.07782448  0.04669469  0.01511654       0.031
   0.10895427  0.04669469  0.01511654       0.031
   0.07782448  0.07782448  0.01511654       0.016
   0.10895427  0.07782448  0.01511654       0.031
   0.10895427  0.10895427  0.01511654       0.016
   0.01556490  0.01556490  0.04534962       0.016
   0.04669469  0.01556490  0.04534962       0.031
   0.07782448  0.01556490  0.04534962       0.031
   0.10895427  0.01556490  0.04534962       0.031
   0.04669469  0.04669469  0.04534962       0.016
   0.07782448  0.04669469  0.04534962       0.031
   0.10895427  0.04669469  0.04534962       0.031
   0.07782448  0.07782448  0.04534962       0.016
   0.10895427  0.07782448  0.04534962       0.031
   0.10895427  0.10895427  0.04534962       0.016
   0.01556490  0.01556490  0.07558270       0.016
   0.04669469  0.01556490  0.07558270       0.031
   0.07782448  0.01556490  0.07558270       0.031
   0.10895427  0.01556490  0.07558270       0.031
   0.04669469  0.04669469  0.07558270       0.016
   0.07782448  0.04669469  0.07558270       0.031
   0.10895427  0.04669469  0.07558270       0.031
   0.07782448  0.07782448  0.07558270       0.016
   0.10895427  0.07782448  0.07558270       0.031
   0.10895427  0.10895427  0.07558270       0.016
   0.01556490  0.01556490  0.10581578       0.016
   0.04669469  0.01556490  0.10581578       0.031
   0.07782448  0.01556490  0.10581578       0.031
   0.10895427  0.01556490  0.10581578       0.031
   0.04669469  0.04669469  0.10581578       0.016
   0.07782448  0.04669469  0.10581578       0.031
   0.10895427  0.04669469  0.10581578       0.031
   0.07782448  0.07782448  0.10581578       0.016
   0.10895427  0.07782448  0.10581578       0.031
   0.10895427  0.10895427  0.10581578       0.016
 
 k-points in reciprocal lattice and weights: pymatgen generated KPOINTS with grid den
   0.06250000  0.06250000  0.06250000       0.016
   0.18750000  0.06250000  0.06250000       0.031
   0.31250000  0.06250000  0.06250000       0.031
   0.43750000  0.06250000  0.06250000       0.031
   0.18750000  0.18750000  0.06250000       0.016
   0.31250000  0.18750000  0.06250000       0.031
   0.43750000  0.18750000  0.06250000       0.031
   0.31250000  0.31250000  0.06250000       0.016
   0.43750000  0.31250000  0.06250000       0.031
   0.43750000  0.43750000  0.06250000       0.016
   0.06250000  0.06250000  0.18750000       0.016
   0.18750000  0.06250000  0.18750000       0.031
   0.31250000  0.06250000  0.18750000       0.031
   0.43750000  0.06250000  0.18750000       0.031
   0.18750000  0.18750000  0.18750000       0.016
   0.31250000  0.18750000  0.18750000       0.031
   0.43750000  0.18750000  0.18750000       0.031
   0.31250000  0.31250000  0.18750000       0.016
   0.43750000  0.31250000  0.18750000       0.031
   0.43750000  0.43750000  0.18750000       0.016
   0.06250000  0.06250000  0.31250000       0.016
   0.18750000  0.06250000  0.31250000       0.031
   0.31250000  0.06250000  0.31250000       0.031
   0.43750000  0.06250000  0.31250000       0.031
   0.18750000  0.18750000  0.31250000       0.016
   0.31250000  0.18750000  0.31250000       0.031
   0.43750000  0.18750000  0.31250000       0.031
   0.31250000  0.31250000  0.31250000       0.016
   0.43750000  0.31250000  0.31250000       0.031
   0.43750000  0.43750000  0.31250000       0.016
   0.06250000  0.06250000  0.43750000       0.016
   0.18750000  0.06250000  0.43750000       0.031
   0.31250000  0.06250000  0.43750000       0.031
   0.43750000  0.06250000  0.43750000       0.031
   0.18750000  0.18750000  0.43750000       0.016
   0.31250000  0.18750000  0.43750000       0.031
   0.43750000  0.18750000  0.43750000       0.031
   0.31250000  0.31250000  0.43750000       0.016
   0.43750000  0.31250000  0.43750000       0.031
   0.43750000  0.43750000  0.43750000       0.016
 
 position of ions in fractional coordinates (direct lattice) 
   0.00000000  0.00000000  0.01250700
   0.50000000  0.50000000  0.52282900
   0.00000000  0.50000000  0.49681200
   0.50000000  0.00000000  0.49681200
   0.50000000  0.50000000  0.98503800
 
 position of ions in cartesian coordinates  (Angst):
   0.00000000  0.00000000  0.05171074
   2.00772300  2.00772300  2.16165950
   0.00000000  2.00772300  2.05409107
   2.00772300  0.00000000  2.05409107
   2.00772300  2.00772300  4.07268295
 


--------------------------------------------------------------------------------------------------------


 k-point  1 :   0.0625 0.0625 0.0625  plane waves:    1809
 k-point  2 :   0.1875 0.0625 0.0625  plane waves:    1803
 k-point  3 :   0.3125 0.0625 0.0625  plane waves:    1796
 k-point  4 :   0.4375 0.0625 0.0625  plane waves:    1792
 k-point  5 :   0.1875 0.1875 0.0625  plane waves:    1798
 k-point  6 :   0.3125 0.1875 0.0625  plane waves:    1798
 k-point  7 :   0.4375 0.1875 0.0625  plane waves:    1796
 k-point  8 :   0.3125 0.3125 0.0625  plane waves:    1803
 k-point  9 :   0.4375 0.3125 0.0625  plane waves:    1794
 k-point 10 :   0.4375 0.4375 0.0625  plane waves:    1784
 k-point 11 :   0.0625 0.0625 0.1875  plane waves:    1806
 k-point 12 :   0.1875 0.0625 0.1875  plane waves:    1798
 k-point 13 :   0.3125 0.0625 0.1875  plane waves:    1800
 k-point 14 :   0.4375 0.0625 0.1875  plane waves:    1792
 k-point 15 :   0.1875 0.1875 0.1875  plane waves:    1802
 k-point 16 :   0.3125 0.1875 0.1875  plane waves:    1803
 k-point 17 :   0.4375 0.1875 0.1875  plane waves:    1787
 k-point 18 :   0.3125 0.3125 0.1875  plane waves:    1798
 k-point 19 :   0.4375 0.3125 0.1875  plane waves:    1786
 k-point 20 :   0.4375 0.4375 0.1875  plane waves:    1786
 k-point 21 :   0.0625 0.0625 0.3125  plane waves:    1806
 k-point 22 :   0.1875 0.0625 0.3125  plane waves:    1801
 k-point 23 :   0.3125 0.0625 0.3125  plane waves:    1793
 k-point 24 :   0.4375 0.0625 0.3125  plane waves:    1787
 k-point 25 :   0.1875 0.1875 0.3125  plane waves:    1797
 k-point 26 :   0.3125 0.1875 0.3125  plane waves:    1793
 k-point 27 :   0.4375 0.1875 0.3125  plane waves:    1788
 k-point 28 :   0.3125 0.3125 0.3125  plane waves:    1783
 k-point 29 :   0.4375 0.3125 0.3125  plane waves:    1793
 k-point 30 :   0.4375 0.4375 0.3125  plane waves:    1781
 k-point 31 :   0.0625 0.0625 0.4375  plane waves:    1803
 k-point 32 :   0.1875 0.0625 0.4375  plane waves:    1805
 k-point 33 :   0.3125 0.0625 0.4375  plane waves:    1799
 k-point 34 :   0.4375 0.0625 0.4375  plane waves:    1779
 k-point 35 :   0.1875 0.1875 0.4375  plane waves:    1798
 k-point 36 :   0.3125 0.1875 0.4375  plane waves:    1794
 k-point 37 :   0.4375 0.1875 0.4375  plane waves:    1794
 k-point 38 :   0.3125 0.3125 0.4375  plane waves:    1785
 k-point 39 :   0.4375 0.3125 0.4375  plane waves:    1792
 k-point 40 :   0.4375 0.4375 0.4375  plane waves:    1796

 maximum and minimum number of plane-waves per node :      1809     1779

 maximum number of plane-waves:      1809
 maximum index in each direction: 
   IXMAX=    7   IYMAX=    7   IZMAX=    7
   IXMIN=   -7   IYMIN=   -7   IZMIN=   -8

 NGX is ok and might be reduce to  30
 NGY is ok and might be reduce to  30
 NGZ is ok and might be reduce to  32

 serial   3D FFT for wavefunctions
 parallel 3D FFT for charge:
    minimum data exchange during FFTs selected (reduces bandwidth)


 total amount of memory used by VASP on root node    49547. kBytes
========================================================================

   base      :      30000. kBytes
   nonlr-proj:       3500. kBytes
   fftplans  :       1162. kBytes
   grid      :       5105. kBytes
   one-center:        155. kBytes
   wavefun   :       9625. kBytes
 
     INWAV:  cpu time    0.00: real time    0.00
 Broyden mixing: mesh for mixing (old mesh)
   NGX = 15   NGY = 15   NGZ = 15
  (NGX  = 60   NGY  = 60   NGZ  = 64)
  gives a total of   3375 points

 charge density for first step will be calculated from the start-wavefunctions


--------------------------------------------------------------------------------------------------------


 Maximum index for non-local projection operator         8258
 Maximum index for augmentation-charges         3840 (set IRDMAX)


--------------------------------------------------------------------------------------------------------


 initial charge from wavefunction
 First call to EWALD:  gamma=   0.437
 Maximum number of real-space cells 3x 3x 3
 Maximum number of reciprocal cells 3x 3x 3

 FEWALD executed in parallel
    FEWALD:  cpu time    0.00: real time    0.00


----------------------------------------- Iteration    1(   1)  ---------------------------------------


    POTLOK:  cpu time    0.46: real time    0.49
    SETDIJ:  cpu time    0.02: real time    0.02
     EDDAV:  cpu time   10.18: real time   10.21
 BZINTS: Fermi energy:-24.940934; 38.000000 electrons
         Band energy:***********;  BLOECHL correction: -1.325693
       DOS:  cpu time    0.10: real time    0.10
    --------------------------------------------
      LOOP:  cpu time   10.76: real time   11.41

 eigenvalue-minimisations  :  6320
 total energy-change (2. order) :-0.8862383E+03  (-0.3422202E+04)
 number of electron      37.9999996 magnetization      -0.0000000
 augmentation part       -1.2247812 magnetization      -0.0217442

 Free energy of the ion-electron system (eV)
  ---------------------------------------------------
  alpha Z        PSCENC =       251.35142885
  Ewald energy   TEWEN  =     -2489.45882261
  -Hartree energ DENC   =       -60.67934627
  -exchange      EXHF   =         0.00000000
  -V(xc)+E(xc)   XCENC  =       115.19299644
  PAW double counting   =    110609.01800899  -110608.65779553
  entropy T*S    EENTRO =         0.00000000
  eigenvalues    EBANDS =     -1743.53181214
  atomic energy  EATOM  =      3040.52701931
  ---------------------------------------------------
  free energy    TOTEN  =      -886.23832297 eV

  energy without entropy =     -886.23832297  energy(sigma->0) =     -886.23832297


--------------------------------------------------------------------------------------------------------




----------------------------------------- Iteration    1(   2)  ---------------------------------------


     EDDAV:  cpu time    8.93: real time    8.93
 BZINTS: Fermi energy:-42.146922; 38.000000 electrons
         Band energy:***********;  BLOECHL correction:  0.000000
       DOS:  cpu time    0.02: real time    0.02
    --------------------------------------------
      LOOP:  cpu time    8.95: real time    8.96

 eigenvalue-minimisations  :  5240
 total energy-change (2. order) :-0.4174190E+03  (-0.3992861E+03)
 number of electron      37.9999996 magnetization      -0.0000000
 augmentation part       -1.2247812 magnetization      -0.0217442

 Free energy of the ion-electron system (eV)
  ---------------------------------------------------
  alpha Z        PSCENC =       251.35142885
  Ewald energy   TEWEN  =     -2489.45882261
  -Hartree energ DENC   =       -60.67934627
  -exchange      EXHF   =         0.00000000
  -V(xc)+E(xc)   XCENC  =       115.19299644
  PAW double counting   =    110609.01800899  -110608.65779553
  entropy T*S    EENTRO =         0.00000000
  eigenvalues    EBANDS =     -2160.95084166
  atomic energy  EATOM  =      3040.52701931
  ---------------------------------------------------
  free energy    TOTEN  =     -1303.65735249 eV

  energy without entropy =    -1303.65735249  energy(sigma->0) =    -1303.65735249


--------------------------------------------------------------------------------------------------------




----------------------------------------- Iteration    1(   3)  ---------------------------------------


     EDDAV:  cpu time   10.15: real time   10.15
 BZINTS: Fermi energy:-43.508604; 38.000000 electrons
         Band energy:***********;  BLOECHL correction:  0.000000
       DOS:  cpu time    0.01: real time    0.01
    --------------------------------------------
      LOOP:  cpu time   10.16: real time   10.17

 eigenvalue-minimisations  :  6136
 total energy-change (2. order) :-0.2585063E+02  (-0.2567365E+02)
 number of electron      37.9999996 magnetization      -0.0000000
 augmentation part       -1.2247812 magnetization      -0.0217442

 Free energy of the ion-electron system (eV)
  ---------------------------------------------------
  alpha Z        PSCENC =       251.35142885
  Ewald energy   TEWEN  =     -2489.45882261
  -Hartree energ DENC   =       -60.67934627
  -exchange      EXHF   =         0.00000000
  -V(xc)+E(xc)   XCENC  =       115.19299644
  PAW double counting   =    110609.01800899  -110608.65779553
  entropy T*S    EENTRO =         0.00000000
  eigenvalues    EBANDS =     -2186.80147214
  atomic energy  EATOM  =      3040.52701931
  ---------------------------------------------------
  free energy    TOTEN  =     -1329.50798298 eV

  energy without entropy =    -1329.50798298  energy(sigma->0) =    -1329.50798298


--------------------------------------------------------------------------------------------------------




----------------------------------------- Iteration    1(   4)  ---------------------------------------


     EDDAV:  cpu time   11.27: real time   11.27
 BZINTS: Fermi energy:-43.422558; 38.000000 electrons
         Band energy:***********;  BLOECHL correction:  0.000000
       DOS:  cpu time    0.02: real time    0.02
    --------------------------------------------
      LOOP:  cpu time   11.34: real time   11.34

 eigenvalue-minimisations  :  6976
 total energy-change (2. order) :-0.8276473E+00  (-0.8273924E+00)
 number of electron      37.9999996 magnetization      -0.0000000
 augmentation part       -1.2247812 magnetization      -0.0217442

 Free energy of the ion-electron system (eV)
  ---------------------------------------------------
  alpha Z        PSCENC =       251.35142885
  Ewald energy   TEWEN  =     -2489.45882261
  -Hartree energ DENC   =       -60.67934627
  -exchange      EXHF   =         0.00000000
  -V(xc)+E(xc)   XCENC  =       115.19299644
  PAW double counting   =    110609.01800899  -110608.65779553
  entropy T*S    EENTRO =         0.00000000
  eigenvalues    EBANDS =     -2187.62911940
  atomic energy  EATOM  =      3040.52701931
  ---------------------------------------------------
  free energy    TOTEN  =     -1330.33563023 eV

  energy without entropy =    -1330.33563023  energy(sigma->0) =    -1330.33563023


--------------------------------------------------------------------------------------------------------




----------------------------------------- Iteration    1(   5)  ---------------------------------------


     EDDAV:  cpu time   12.20: real time   12.20
 BZINTS: Fermi energy:-43.466978; 38.000000 electrons
         Band energy:***********;  BLOECHL correction:  0.000000
       DOS:  cpu time    0.02: real time    0.02
    CHARGE:  cpu time    0.46: real time    0.46
    MIXING:  cpu time    0.00: real time    0.00
    --------------------------------------------
      LOOP:  cpu time   12.68: real time   12.69

 eigenvalue-minimisations  :  7744
 total energy-change (2. order) :-0.2797471E-01  (-0.2797421E-01)
 number of electron      37.9999970 magnetization       0.0000000
 augmentation part       15.7926000 magnetization      -0.0008961

 Broyden mixing:
  rms(total) = 0.38860E+02    rms(broyden)= 0.38852E+02
  rms(prec ) = 0.57068E+02
  weight for this iteration     100.00

 Free energy of the ion-electron system (eV)
  ---------------------------------------------------
  alpha Z        PSCENC =       251.35142885
  Ewald energy   TEWEN  =     -2489.45882261
  -Hartree energ DENC   =       -60.67934627
  -exchange      EXHF   =         0.00000000
  -V(xc)+E(xc)   XCENC  =       115.19299644
  PAW double counting   =    110609.01800899  -110608.65779553
  entropy T*S    EENTRO =         0.00000000
  eigenvalues    EBANDS =     -2187.65709411
  atomic energy  EATOM  =      3040.52701931
  ---------------------------------------------------
  free energy    TOTEN  =     -1330.36360495 eV

  energy without entropy =    -1330.36360495  energy(sigma->0) =    -1330.36360495


--------------------------------------------------------------------------------------------------------




----------------------------------------- Iteration    1(   6)  ---------------------------------------


    POTLOK:  cpu time    0.09: real time    0.09
    SETDIJ:  cpu time    0.02: real time    0.02
     EDDAV:  cpu time   13.55: real time   13.55
 BZINTS: Fermi energy: -3.129402; 38.000000 electrons
         Band energy:-672.682306;  BLOECHL correction:  0.000000
       DOS:  cpu time    0.02: real time    0.02
    CHARGE:  cpu time    0.46: real time    0.46
    MIXING:  cpu time    0.00: real time    0.00
    --------------------------------------------
      LOOP:  cpu time   14.15: real time   14.16

 eigenvalue-minimisations  :  8712
 total energy-change (2. order) : 0.1090613E+04  (-0.3645903E+03)
 number of electron      37.9999965 magnetization       0.0000000
 augmentation part        6.7880255 magnetization       0.0096069

 Broyden mixing:
  rms(total) = 0.24904E+02    rms(broyden)= 0.24902E+02
  rms(prec ) = 0.29406E+02
  weight for this iteration     100.00

 eigenvalues of (default mixing * dielectric matrix)
  average eigenvalue GAMMA=   0.6490
  0.6490

 Free energy of the ion-electron system (eV)
  ---------------------------------------------------
  alpha Z        PSCENC =       251.35142885
  Ewald energy   TEWEN  =     -2489.45882261
  -Hartree energ DENC   =      -481.79566847
  -exchange      EXHF   =         0.00000000
  -V(xc)+E(xc)   XCENC  =       136.56084706
  PAW double counting   =    203640.79142325  -203665.04420782
  entropy T*S    EENTRO =         0.00000000
  eigenvalues    EBANDS =      -672.68230596
  atomic energy  EATOM  =      3040.52701931
  ---------------------------------------------------
  free energy    TOTEN  =      -239.75028639 eV

  energy without entropy =     -239.75028639  energy(sigma->0) =     -239.75028639


--------------------------------------------------------------------------------------------------------




----------------------------------------- Iteration    1(   7)  ---------------------------------------


    POTLOK:  cpu time    0.08: real time    0.09
    SETDIJ:  cpu time    0.02: real time    0.02
     EDDAV:  cpu time   10.49: real time   10.48
 BZINTS: Fermi energy:  1.124710; 38.000000 electrons
         Band energy:-458.041763;  BLOECHL correction:  0.000000
       DOS:  cpu time    0.02: real time    0.02
    CHARGE:  cpu time    0.46: real time    0.46
    MIXING:  cpu time    0.00: real time    0.00
    --------------------------------------------
      LOOP:  cpu time   11.07: real time   11.08

 eigenvalue-minimisations  :  5896
 total energy-change (2. order) : 0.1515897E+03  (-0.3556843E+02)
 number of electron      37.9999972 magnetization       0.0000000
 augmentation part        5.2849705 magnetization      -0.0040344

 Broyden mixing:
  rms(total) = 0.16244E+02    rms(broyden)= 0.16244E+02
  rms(prec ) = 0.18346E+02
  weight for this iteration     100.00

 eigenvalues of (default mixing * dielectric matrix)
  average eigenvalue GAMMA=   1.3346
  1.1537  1.5155

 Free energy of the ion-electron system (eV)
  ---------------------------------------------------
  alpha Z        PSCENC =       251.35142885
  Ewald energy   TEWEN  =     -2489.45882261
  -Hartree energ DENC   =      -551.47273056
  -exchange      EXHF   =         0.00000000
  -V(xc)+E(xc)   XCENC  =       141.90375291
  PAW double counting   =    104788.80005466  -104811.76949240
  entropy T*S    EENTRO =         0.00000000
  eigenvalues    EBANDS =      -458.04176309
  atomic energy  EATOM  =      3040.52701931
  ---------------------------------------------------
  free energy    TOTEN  =       -88.16055294 eV

  energy without entropy =      -88.16055294  energy(sigma->0) =      -88.16055294


--------------------------------------------------------------------------------------------------------




----------------------------------------- Iteration    1(   8)  ---------------------------------------


    POTLOK:  cpu time    0.09: real time    0.09
    SETDIJ:  cpu time    0.02: real time    0.02
     EDDAV:  cpu time   10.51: real time   10.51
 BZINTS: Fermi energy:  3.424690; 38.000000 electrons
         Band energy:-366.095248;  BLOECHL correction: -0.056499
       DOS:  cpu time    0.10: real time    0.10
    CHARGE:  cpu time    0.46: real time    0.46
    MIXING:  cpu time    0.00: real time    0.00
    --------------------------------------------
      LOOP:  cpu time   11.18: real time   11.18

 eigenvalue-minimisations  :  6472
 total energy-change (2. order) : 0.2770674E+02  (-0.2380627E+02)
 number of electron      37.9999984 magnetization      -0.0003596
 augmentation part        7.5510708 magnetization       0.0100366

 Broyden mixing:
  rms(total) = 0.79218E+01    rms(broyden)= 0.79207E+01
  rms(prec ) = 0.14730E+02
  weight for this iteration     100.00

 eigenvalues of (default mixing * dielectric matrix)
  average eigenvalue GAMMA=   1.0082
  1.5331  1.1767  0.3149

 Free energy of the ion-electron system (eV)
  ---------------------------------------------------
  alpha Z        PSCENC =       251.35142885
  Ewald energy   TEWEN  =     -2489.45882261
  -Hartree energ DENC   =      -627.32064629
  -exchange      EXHF   =         0.00000000
  -V(xc)+E(xc)   XCENC  =       146.22203237
  PAW double counting   =     22613.44887987   -22629.12845599
  entropy T*S    EENTRO =         0.00000000
  eigenvalues    EBANDS =      -366.09524825
  atomic energy  EATOM  =      3040.52701931
  ---------------------------------------------------
  free energy    TOTEN  =       -60.45381273 eV

  energy without entropy =      -60.45381273  energy(sigma->0) =      -60.45381273


--------------------------------------------------------------------------------------------------------




----------------------------------------- Iteration    1(   9)  ---------------------------------------


    POTLOK:  cpu time    0.09: real time    0.09
    SETDIJ:  cpu time    0.02: real time    0.02
     EDDAV:  cpu time   10.70: real time   10.70
 BZINTS: Fermi energy:  3.627333; 38.000000 electrons
         Band energy:-360.545443;  BLOECHL correction: -0.046388
       DOS:  cpu time    0.10: real time    0.10
    CHARGE:  cpu time    0.46: real time    0.46
    MIXING:  cpu time    0.00: real time    0.00
    --------------------------------------------
      LOOP:  cpu time   11.36: real time   11.42

 eigenvalue-minimisations  :  6232
 total energy-change (2. order) : 0.3677270E+01  (-0.3089743E+01)
 number of electron      37.9999984 magnetization       0.0663987
 augmentation part        6.7849699 magnetization       0.0697477

 Broyden mixing:
  rms(total) = 0.77900E+01    rms(broyden)= 0.77899E+01
  rms(prec ) = 0.13073E+02
  weight for this iteration     100.00

 eigenvalues of (default mixing * dielectric matrix)
  average eigenvalue GAMMA=   0.8863
  1.4114  1.4114  0.4041  0.3183

 Free energy of the ion-electron system (eV)
  ---------------------------------------------------
  alpha Z        PSCENC =       251.35142885
  Ewald energy   TEWEN  =     -2489.45882261
  -Hartree energ DENC   =      -629.43531908
  -exchange      EXHF   =         0.00000000
  -V(xc)+E(xc)   XCENC  =       146.23350819
  PAW double counting   =     22118.25742187   -22133.70633602
  entropy T*S    EENTRO =         0.00000000
  eigenvalues    EBANDS =      -360.54544294
  atomic energy  EATOM  =      3040.52701931
  ---------------------------------------------------
  free energy    TOTEN  =       -56.77654244 eV

  energy without entropy =      -56.77654244  energy(sigma->0) =      -56.77654244


--------------------------------------------------------------------------------------------------------




----------------------------------------- Iteration    1(  10)  ---------------------------------------


    POTLOK:  cpu time    0.09: real time    0.09
    SETDIJ:  cpu time    0.02: real time    0.02
     EDDAV:  cpu time    9.80: real time    9.80
 BZINTS: Fermi energy:  0.895994; 38.000000 electrons
         Band energy:-451.041657;  BLOECHL correction: -0.038804
       DOS:  cpu time    0.09: real time    0.09
    CHARGE:  cpu time    0.46: real time    0.46
    MIXING:  cpu time    0.00: real time    0.00
    --------------------------------------------
      LOOP:  cpu time   10.46: real time   10.46

 eigenvalue-minimisations  :  5848
 total energy-change (2. order) :-0.8808503E+01  (-0.4944546E+01)
 number of electron      37.9999976 magnetization       0.1290251
 augmentation part        8.5385034 magnetization       0.1130136

 Broyden mixing:
  rms(total) = 0.68124E+01    rms(broyden)= 0.68117E+01
  rms(prec ) = 0.15887E+02
  weight for this iteration     100.00

 eigenvalues of (default mixing * dielectric matrix)
  average eigenvalue GAMMA=   1.0552
  1.8823  1.8823  0.8324  0.3906  0.2883

 Free energy of the ion-electron system (eV)
  ---------------------------------------------------
  alpha Z        PSCENC =       251.35142885
  Ewald energy   TEWEN  =     -2489.45882261
  -Hartree energ DENC   =      -545.90315890
  -exchange      EXHF   =         0.00000000
  -V(xc)+E(xc)   XCENC  =       140.72029928
  PAW double counting   =     18397.41389347   -18409.19404760
  entropy T*S    EENTRO =         0.00000000
  eigenvalues    EBANDS =      -451.04165734
  atomic energy  EATOM  =      3040.52701931
  ---------------------------------------------------
  free energy    TOTEN  =       -65.58504554 eV

  energy without entropy =      -65.58504554  energy(sigma->0) =      -65.58504554


--------------------------------------------------------------------------------------------------------




----------------------------------------- Iteration    1(  11)  ---------------------------------------


    POTLOK:  cpu time    0.09: real time    0.09
    SETDIJ:  cpu time    0.02: real time    0.02
     EDDAV:  cpu time   11.47: real time   11.47
 BZINTS: Fermi energy: -1.124413; 38.000000 electrons
         Band energy:-486.234168;  BLOECHL correction: -0.012723
       DOS:  cpu time    0.09: real time    0.09
    CHARGE:  cpu time    0.46: real time    0.46
    MIXING:  cpu time    0.00: real time    0.00
    --------------------------------------------
      LOOP:  cpu time   12.13: real time   12.13

 eigenvalue-minimisations  :  7056
 total energy-change (2. order) : 0.8578829E+01  (-0.1323270E+02)
 number of electron      37.9999977 magnetization       0.1054242
 augmentation part        6.3036087 magnetization       0.0857976

 Broyden mixing:
  rms(total) = 0.43733E+01    rms(broyden)= 0.43720E+01
  rms(prec ) = 0.71017E+01
  weight for this iteration     100.00

 eigenvalues of (default mixing * dielectric matrix)
  average eigenvalue GAMMA=   0.9918
  2.6358  0.9664  0.9405  0.9405  0.2527  0.2150

 Free energy of the ion-electron system (eV)
  ---------------------------------------------------
  alpha Z        PSCENC =       251.35142885
  Ewald energy   TEWEN  =     -2489.45882261
  -Hartree energ DENC   =      -502.65748105
  -exchange      EXHF   =         0.00000000
  -V(xc)+E(xc)   XCENC  =       137.04038303
  PAW double counting   =     12570.18887733   -12577.76345381
  entropy T*S    EENTRO =         0.00000000
  eigenvalues    EBANDS =      -486.23416773
  atomic energy  EATOM  =      3040.52701931
  ---------------------------------------------------
  free energy    TOTEN  =       -57.00621668 eV

  energy without entropy =      -57.00621668  energy(sigma->0) =      -57.00621668


--------------------------------------------------------------------------------------------------------




----------------------------------------- Iteration    1(  12)  ---------------------------------------


    POTLOK:  cpu time    0.09: real time    0.09
    SETDIJ:  cpu time    0.02: real time    0.02
     EDDAV:  cpu time   11.29: real time   11.29
 BZINTS: Fermi energy:  0.520374; 38.000000 electrons
         Band energy:-436.986574;  BLOECHL correction: -0.041893
       DOS:  cpu time    0.10: real time    0.10
    CHARGE:  cpu time    0.46: real time    0.46
    MIXING:  cpu time    0.00: real time    0.00
    --------------------------------------------
      LOOP:  cpu time   11.96: real time   11.96

 eigenvalue-minimisations  :  6936
 total energy-change (2. order) :-0.1986507E+02  (-0.1657712E+02)
 number of electron      37.9999980 magnetization       0.1650486
 augmentation part        8.9769073 magnetization       0.1011623

 Broyden mixing:
  rms(total) = 0.79629E+01    rms(broyden)= 0.79627E+01
  rms(prec ) = 0.17243E+02
  weight for this iteration     100.00

 eigenvalues of (default mixing * dielectric matrix)
  average eigenvalue GAMMA=   0.9067
  2.5313  1.0686  1.0686  0.8399  0.3203  0.3203  0.1980

 Free energy of the ion-electron system (eV)
  ---------------------------------------------------
  alpha Z        PSCENC =       251.35142885
  Ewald energy   TEWEN  =     -2489.45882261
  -Hartree energ DENC   =      -578.92630451
  -exchange      EXHF   =         0.00000000
  -V(xc)+E(xc)   XCENC  =       142.54376867
  PAW double counting   =      2741.01726643    -2746.93907043
  entropy T*S    EENTRO =         0.00000000
  eigenvalues    EBANDS =      -436.98657353
  atomic energy  EATOM  =      3040.52701931
  ---------------------------------------------------
  free energy    TOTEN  =       -76.87128782 eV

  energy without entropy =      -76.87128782  energy(sigma->0) =      -76.87128782


--------------------------------------------------------------------------------------------------------




----------------------------------------- Iteration    1(  13)  ---------------------------------------


    POTLOK:  cpu time    0.09: real time    0.09
    SETDIJ:  cpu time    0.02: real time    0.02
     EDDAV:  cpu time   10.04: real time   10.04
 BZINTS: Fermi energy:  0.686780; 38.000000 electrons
         Band energy:-413.104356;  BLOECHL correction: -0.004066
       DOS:  cpu time    0.08: real time    0.08
    CHARGE:  cpu time    0.46: real time    0.46
    MIXING:  cpu time    0.00: real time    0.00
    --------------------------------------------
      LOOP:  cpu time   10.69: real time   10.69

 eigenvalue-minimisations  :  6040
 total energy-change (2. order) : 0.2931980E+02  (-0.2632452E+01)
 number of electron      37.9999977 magnetization       0.1249593
 augmentation part        5.9619769 magnetization       0.1114223

 Broyden mixing:
  rms(total) = 0.20838E+01    rms(broyden)= 0.20832E+01
  rms(prec ) = 0.42897E+01
  weight for this iteration     100.00

 eigenvalues of (default mixing * dielectric matrix)
  average eigenvalue GAMMA=   0.8849
  2.4049  1.0917  1.0917  1.0565  0.5989  0.3186  0.3186  0.1979

 Free energy of the ion-electron system (eV)
  ---------------------------------------------------
  alpha Z        PSCENC =       251.35142885
  Ewald energy   TEWEN  =     -2489.45882261
  -Hartree energ DENC   =      -573.29587702
  -exchange      EXHF   =         0.00000000
  -V(xc)+E(xc)   XCENC  =       141.53409134
  PAW double counting   =      3077.11466645    -3082.21963822
  entropy T*S    EENTRO =         0.00000000
  eigenvalues    EBANDS =      -413.10435605
  atomic energy  EATOM  =      3040.52701931
  ---------------------------------------------------
  free energy    TOTEN  =       -47.55148795 eV

  energy without entropy =      -47.55148795  energy(sigma->0) =      -47.55148795


--------------------------------------------------------------------------------------------------------




----------------------------------------- Iteration    1(  14)  ---------------------------------------


    POTLOK:  cpu time    0.09: real time    0.09
    SETDIJ:  cpu time    0.02: real time    0.02
     EDDAV:  cpu time   11.14: real time   11.13
 BZINTS: Fermi energy:  1.328878; 38.000000 electrons
         Band energy:-392.166471;  BLOECHL correction:  0.000000
       DOS:  cpu time    0.02: real time    0.02
    CHARGE:  cpu time    0.46: real time    0.46
    MIXING:  cpu time    0.00: real time    0.00
    --------------------------------------------
      LOOP:  cpu time   11.73: real time   11.72

 eigenvalue-minimisations  :  6840
 total energy-change (2. order) : 0.3451908E+01  (-0.8136249E+00)
 number of electron      37.9999976 magnetization       0.0165951
 augmentation part        5.3632655 magnetization       0.0262724

 Broyden mixing:
  rms(total) = 0.16217E+01    rms(broyden)= 0.16216E+01
  rms(prec ) = 0.28660E+01
  weight for this iteration     100.00

 eigenvalues of (default mixing * dielectric matrix)
  average eigenvalue GAMMA=   0.8756
  2.3218  1.0668  1.0668  1.1676  0.8122  0.5990  0.3246  0.3246  0.1974

 Free energy of the ion-electron system (eV)
  ---------------------------------------------------
  alpha Z        PSCENC =       251.35142885
  Ewald energy   TEWEN  =     -2489.45882261
  -Hartree energ DENC   =      -591.14403984
  -exchange      EXHF   =         0.00000000
  -V(xc)+E(xc)   XCENC  =       142.50499189
  PAW double counting   =      3269.80093102    -3275.51461749
  entropy T*S    EENTRO =         0.00000000
  eigenvalues    EBANDS =      -392.16647082
  atomic energy  EATOM  =      3040.52701931
  ---------------------------------------------------
  free energy    TOTEN  =       -44.09957970 eV

  energy without entropy =      -44.09957970  energy(sigma->0) =      -44.09957970


--------------------------------------------------------------------------------------------------------




----------------------------------------- Iteration    1(  15)  ---------------------------------------


    POTLOK:  cpu time    0.09: real time    0.09
    SETDIJ:  cpu time    0.02: real time    0.02
     EDDAV:  cpu time    9.69: real time    9.68
 BZINTS: Fermi energy:  2.079636; 38.000000 electrons
         Band energy:-368.590154;  BLOECHL correction:  0.000000
       DOS:  cpu time    0.02: real time    0.02
    CHARGE:  cpu time    0.46: real time    0.46
    MIXING:  cpu time    0.00: real time    0.00
    --------------------------------------------
      LOOP:  cpu time   10.27: real time   10.28

 eigenvalue-minimisations  :  5720
 total energy-change (2. order) : 0.2740195E+01  (-0.2126410E+00)
 number of electron      37.9999976 magnetization       0.0282071
 augmentation part        5.1442490 magnetization       0.0281617

 Broyden mixing:
  rms(total) = 0.97878E+00    rms(broyden)= 0.97876E+00
  rms(prec ) = 0.17318E+01
  weight for this iteration     100.00

 eigenvalues of (default mixing * dielectric matrix)
  average eigenvalue GAMMA=   0.9241
  2.2411  1.3223  1.3223  1.3288  0.8550  0.6600  0.6600  0.3268  0.3268  0.1975

 Free energy of the ion-electron system (eV)
  ---------------------------------------------------
  alpha Z        PSCENC =       251.35142885
  Ewald energy   TEWEN  =     -2489.45882261
  -Hartree energ DENC   =      -612.16878308
  -exchange      EXHF   =         0.00000000
  -V(xc)+E(xc)   XCENC  =       143.90780159
  PAW double counting   =      3536.57199652    -3543.49987098
  entropy T*S    EENTRO =         0.00000000
  eigenvalues    EBANDS =      -368.59015404
  atomic energy  EATOM  =      3040.52701931
  ---------------------------------------------------
  free energy    TOTEN  =       -41.35938444 eV

  energy without entropy =      -41.35938444  energy(sigma->0) =      -41.35938444


--------------------------------------------------------------------------------------------------------




----------------------------------------- Iteration    1(  16)  ---------------------------------------


    POTLOK:  cpu time    0.09: real time    0.09
    SETDIJ:  cpu time    0.02: real time    0.02
     EDDAV:  cpu time   10.98: real time   10.97
 BZINTS: Fermi energy:  2.569641; 38.000000 electrons
         Band energy:-350.661335;  BLOECHL correction:  0.000000
       DOS:  cpu time    0.02: real time    0.02
    CHARGE:  cpu time    0.46: real time    0.46
    MIXING:  cpu time    0.00: real time    0.00
    --------------------------------------------
      LOOP:  cpu time   11.57: real time   11.57

 eigenvalue-minimisations  :  6688
 total energy-change (2. order) : 0.9812836E+00  (-0.1176571E+00)
 number of electron      37.9999977 magnetization       0.0367633
 augmentation part        4.9145655 magnetization       0.0373308

 Broyden mixing:
  rms(total) = 0.63964E+00    rms(broyden)= 0.63962E+00
  rms(prec ) = 0.11417E+01
  weight for this iteration     100.00

 eigenvalues of (default mixing * dielectric matrix)
  average eigenvalue GAMMA=   0.9645
  2.3039  1.5228  1.5228  1.2288  0.8912  0.8912  0.8384  0.5622  0.3252  0.3252
  0.1975

 Free energy of the ion-electron system (eV)
  ---------------------------------------------------
  alpha Z        PSCENC =       251.35142885
  Ewald energy   TEWEN  =     -2489.45882261
  -Hartree energ DENC   =      -629.37236817
  -exchange      EXHF   =         0.00000000
  -V(xc)+E(xc)   XCENC  =       145.01940936
  PAW double counting   =      3652.98190367    -3660.76533614
  entropy T*S    EENTRO =         0.00000000
  eigenvalues    EBANDS =      -350.66133514
  atomic energy  EATOM  =      3040.52701931
  ---------------------------------------------------
  free energy    TOTEN  =       -40.37810087 eV

  energy without entropy =      -40.37810087  energy(sigma->0) =      -40.37810087


--------------------------------------------------------------------------------------------------------




----------------------------------------- Iteration    1(  17)  ---------------------------------------


    POTLOK:  cpu time    0.09: real time    0.09
    SETDIJ:  cpu time    0.02: real time    0.02
     EDDAV:  cpu time   10.95: real time   10.95
 BZINTS: Fermi energy:  2.690285; 38.000000 electrons
         Band energy:-342.471794;  BLOECHL correction:  0.000000
       DOS:  cpu time    0.01: real time    0.02
    CHARGE:  cpu time    0.46: real time    0.46
    MIXING:  cpu time    0.00: real time    0.00
    --------------------------------------------
      LOOP:  cpu time   11.54: real time   11.53

 eigenvalue-minimisations  :  6688
 total energy-change (2. order) : 0.1054565E+00  (-0.2582342E-01)
 number of electron      37.9999977 magnetization       0.0121386
 augmentation part        4.8166199 magnetization       0.0130007

 Broyden mixing:
  rms(total) = 0.55425E+00    rms(broyden)= 0.55424E+00
  rms(prec ) = 0.10804E+01
  weight for this iteration     100.00

 eigenvalues of (default mixing * dielectric matrix)
  average eigenvalue GAMMA=   1.1504
  2.5441  2.2321  2.2321  1.3468  1.3468  0.9683  0.9683  0.6895  0.6279  0.3256
  0.3256  0.1975

 Free energy of the ion-electron system (eV)
  ---------------------------------------------------
  alpha Z        PSCENC =       251.35142885
  Ewald energy   TEWEN  =     -2489.45882261
  -Hartree energ DENC   =      -637.62210534
  -exchange      EXHF   =         0.00000000
  -V(xc)+E(xc)   XCENC  =       145.58192161
  PAW double counting   =      3572.65333206    -3580.83362409
  entropy T*S    EENTRO =         0.00000000
  eigenvalues    EBANDS =      -342.47179412
  atomic energy  EATOM  =      3040.52701931
  ---------------------------------------------------
  free energy    TOTEN  =       -40.27264433 eV

  energy without entropy =      -40.27264433  energy(sigma->0) =      -40.27264433


--------------------------------------------------------------------------------------------------------




----------------------------------------- Iteration    1(  18)  ---------------------------------------


    POTLOK:  cpu time    0.09: real time    0.09
    SETDIJ:  cpu time    0.02: real time    0.02
     EDDAV:  cpu time   10.24: real time   10.24
 BZINTS: Fermi energy:  2.974208; 38.000000 electrons
         Band energy:-330.024010;  BLOECHL correction:  0.000000
       DOS:  cpu time    0.02: real time    0.02
    CHARGE:  cpu time    0.46: real time    0.46
    MIXING:  cpu time    0.00: real time    0.00
    --------------------------------------------
      LOOP:  cpu time   10.83: real time   10.83

 eigenvalue-minimisations  :  6152
 total energy-change (2. order) : 0.2342094E+00  (-0.6044410E-01)
 number of electron      37.9999977 magnetization      -0.0029109
 augmentation part        4.7285781 magnetization      -0.0035618

 Broyden mixing:
  rms(total) = 0.24907E+00    rms(broyden)= 0.24901E+00
  rms(prec ) = 0.64229E+00
  weight for this iteration     100.00

 eigenvalues of (default mixing * dielectric matrix)
  average eigenvalue GAMMA=   1.1793
  2.7173  2.4050  2.4050  1.4990  1.4990  0.9714  0.9714  0.8136  0.1975  0.3256
  0.3256  0.6278  0.5729

 Free energy of the ion-electron system (eV)
  ---------------------------------------------------
  alpha Z        PSCENC =       251.35142885
  Ewald energy   TEWEN  =     -2489.45882261
  -Hartree energ DENC   =      -649.94687673
  -exchange      EXHF   =         0.00000000
  -V(xc)+E(xc)   XCENC  =       146.50749044
  PAW double counting   =      3581.88706596    -3590.88173041
  entropy T*S    EENTRO =         0.00000000
  eigenvalues    EBANDS =      -330.02400979
  atomic energy  EATOM  =      3040.52701931
  ---------------------------------------------------
  free energy    TOTEN  =       -40.03843497 eV

  energy without entropy =      -40.03843497  energy(sigma->0) =      -40.03843497


--------------------------------------------------------------------------------------------------------




----------------------------------------- Iteration    1(  19)  ---------------------------------------


    POTLOK:  cpu time    0.09: real time    0.09
    SETDIJ:  cpu time    0.02: real time    0.02
     EDDAV:  cpu time   10.24: real time   10.24
 BZINTS: Fermi energy:  3.169986; 38.000000 electrons
         Band energy:-323.285282;  BLOECHL correction:  0.000000
       DOS:  cpu time    0.01: real time    0.01
    CHARGE:  cpu time    0.46: real time    0.46
    MIXING:  cpu time    0.00: real time    0.00
    --------------------------------------------
      LOOP:  cpu time   10.83: real time   10.83

 eigenvalue-minimisations  :  6160
 total energy-change (2. order) :-0.6954173E-02  (-0.2890492E-01)
 number of electron      37.9999978 magnetization      -0.0024801
 augmentation part        4.6849626 magnetization      -0.0032235

 Broyden mixing:
  rms(total) = 0.25757E+00    rms(broyden)= 0.25753E+00
  rms(prec ) = 0.54733E+00
  weight for this iteration     100.00

 eigenvalues of (default mixing * dielectric matrix)
  average eigenvalue GAMMA=   1.1456
  3.3414  2.0000  2.0000  1.6167  1.6167  0.9817  0.9817  0.1975  0.3256  0.3256
  0.7610  0.6305  0.6305  0.6290

 Free energy of the ion-electron system (eV)
  ---------------------------------------------------
  alpha Z        PSCENC =       251.35142885
  Ewald energy   TEWEN  =     -2489.45882261
  -Hartree energ DENC   =      -656.68916275
  -exchange      EXHF   =         0.00000000
  -V(xc)+E(xc)   XCENC  =       147.02840652
  PAW double counting   =      3669.40477432    -3678.92375120
  entropy T*S    EENTRO =         0.00000000
  eigenvalues    EBANDS =      -323.28528158
  atomic energy  EATOM  =      3040.52701931
  ---------------------------------------------------
  free energy    TOTEN  =       -40.04538915 eV

  energy without entropy =      -40.04538915  energy(sigma->0) =      -40.04538915


--------------------------------------------------------------------------------------------------------




----------------------------------------- Iteration    1(  20)  ---------------------------------------


    POTLOK:  cpu time    0.09: real time    0.09
    SETDIJ:  cpu time    0.02: real time    0.02
     EDDAV:  cpu time    9.89: real time    9.95
 BZINTS: Fermi energy:  3.158713; 38.000000 electrons
         Band energy:-323.527234;  BLOECHL correction:  0.000000
       DOS:  cpu time    0.01: real time    0.01
    CHARGE:  cpu time    0.46: real time    0.46
    MIXING:  cpu time    0.00: real time    0.00
    --------------------------------------------
      LOOP:  cpu time   10.48: real time   10.55

 eigenvalue-minimisations  :  5928
 total energy-change (2. order) : 0.5661534E-02  (-0.5696723E-03)
 number of electron      37.9999978 magnetization      -0.0001004
 augmentation part        4.6864400 magnetization      -0.0007913

 Broyden mixing:
  rms(total) = 0.25378E+00    rms(broyden)= 0.25377E+00
  rms(prec ) = 0.53450E+00
  weight for this iteration     100.00

 eigenvalues of (default mixing * dielectric matrix)
  average eigenvalue GAMMA=   1.1280
  3.4125  1.9284  1.9284  1.6745  1.6745  0.9835  0.9835  0.7508  0.7508  0.1975
  0.3256  0.3256  0.7779  0.5748  0.6314

 Free energy of the ion-electron system (eV)
  ---------------------------------------------------
  alpha Z        PSCENC =       251.35142885
  Ewald energy   TEWEN  =     -2489.45882261
  -Hartree energ DENC   =      -656.41639621
  -exchange      EXHF   =         0.00000000
  -V(xc)+E(xc)   XCENC  =       147.01724717
  PAW double counting   =      3668.06236944    -3677.59533978
  entropy T*S    EENTRO =         0.00000000
  eigenvalues    EBANDS =      -323.52723378
  atomic energy  EATOM  =      3040.52701931
  ---------------------------------------------------
  free energy    TOTEN  =       -40.03972761 eV

[...]
      3     -30.0172      1.00000
      4     -21.8602      1.00000
      5     -13.4448      1.00000
      6     -13.2051      1.00000
      7     -13.1077      1.00000
      8      -7.4274      1.00000
      9      -7.3617      1.00000
     10      -7.1524      1.00000
     11      -1.1860      1.00000
     12      -0.6890      1.00000
     13      -0.4493      1.00000
     14       0.2360      1.00000
     15       0.4296      1.00000
     16       0.6144      1.00000
     17       2.1202      1.00000
     18       2.2487      1.00000
     19       2.6991      1.00000
     20       6.3243      0.00000
     21       6.4621      0.00000
     22       6.6501      0.00000
     23       8.4399      0.00000
     24       9.9259      0.00000
     25      10.2851      0.00000
     26      11.0318      0.00000
     27      11.2895      0.00000
     28      11.4773      0.00000
     29      12.9222      0.00000
     30      15.3461      0.00000
     31      16.6151      0.00000
     32      16.9307      0.00000

 k-point    38 :       0.3125    0.3125    0.4375
  band No.  band energies     occupation 
      1     -30.0773      1.00000
      2     -30.0357      1.00000
      3     -30.0354      1.00000
      4     -21.8542      1.00000
      5     -13.3959      1.00000
      6     -13.1665      1.00000
      7     -13.0725      1.00000
      8      -7.6136      1.00000
      9      -7.4509      1.00000
     10      -7.2464      1.00000
     11      -1.0322      1.00000
     12      -0.4800      1.00000
     13      -0.3876      1.00000
     14      -0.0574      1.00000
     15       0.4984      1.00000
     16       0.5129      1.00000
     17       2.3785      1.00000
     18       2.3845      1.00000
     19       2.5967      1.00000
     20       6.4429      0.00000
     21       6.5222      0.00000
     22       6.5362      0.00000
     23       9.2284      0.00000
     24       9.4822      0.00000
     25      10.4618      0.00000
     26      10.4640      0.00000
     27      10.7007      0.00000
     28      11.5678      0.00000
     29      12.3773      0.00000
     30      15.0493      0.00000
     31      16.7692      0.00000
     32      17.3888      0.00000

 k-point    39 :       0.4375    0.3125    0.4375
  band No.  band energies     occupation 
      1     -30.0767      1.00000
      2     -30.0481      1.00000
      3     -30.0350      1.00000
      4     -21.8362      1.00000
      5     -13.2530      1.00000
      6     -13.1360      1.00000
      7     -13.0568      1.00000
      8      -7.6689      1.00000
      9      -7.5927      1.00000
     10      -7.4582      1.00000
     11      -1.2258      1.00000
     12      -0.6855      1.00000
     13      -0.3988      1.00000
     14       0.0486      1.00000
     15       0.4105      1.00000
     16       0.5192      1.00000
     17       2.4449      1.00000
     18       2.6083      1.00000
     19       2.7387      1.00000
     20       6.5808      0.00000
     21       6.6923      0.00000
     22       6.7419      0.00000
     23       9.2362      0.00000
     24       9.8029      0.00000
     25      10.0898      0.00000
     26      10.2800      0.00000
     27      10.6020      0.00000
     28      11.9202      0.00000
     29      12.7618      0.00000
     30      15.1821      0.00000
     31      17.1421      0.00000
     32      17.3637      0.00000

 k-point    40 :       0.4375    0.4375    0.4375
  band No.  band energies     occupation 
      1     -30.0761      1.00000
      2     -30.0476      1.00000
      3     -30.0475      1.00000
      4     -21.8191      1.00000
      5     -13.1409      1.00000
      6     -13.0526      1.00000
      7     -13.0223      1.00000
      8      -7.8077      1.00000
      9      -7.7696      1.00000
     10      -7.6599      1.00000
     11      -1.3675      1.00000
     12      -0.7793      1.00000
     13      -0.6488      1.00000
     14       0.3028      1.00000
     15       0.4562      1.00000
     16       0.5118      1.00000
     17       2.6987      1.00000
     18       2.7434      1.00000
     19       2.9133      1.00000
     20       6.7957      0.00000
     21       6.7991      0.00000
     22       6.8935      0.00000
     23       9.3377      0.00000
     24       9.5938      0.00000
     25       9.6895      0.00000
     26      10.2857      0.00000
     27      10.2915      0.00000
     28      12.5696      0.00000
     29      12.8110      0.00000
     30      15.0949      0.00000
     31      17.5871      0.00000
     32      17.6831      0.00000


--------------------------------------------------------------------------------------------------------


 soft charge-density along one line, spin component           1
         0         1         2         3         4         5         6         7         8         9
 total charge-density along one line
 
 soft charge-density along one line, spin component           2
         0         1         2         3         4         5         6         7         8         9
 total charge-density along one line
 
 pseudopotential strength for first ion, spin component:           1
  1.229  -5.049   0.000  -0.004   0.000   0.000   0.001   0.000
 -5.049   0.692  -0.000   0.002  -0.000   0.000  -0.001   0.000
  0.000  -0.000  -7.676   0.000   0.000   4.462   0.000   0.000
 -0.004   0.002   0.000  -7.677  -0.000   0.000   4.461  -0.000
  0.000  -0.000   0.000  -0.000  -7.676   0.000  -0.000   4.462
  0.000   0.000   4.462   0.000   0.000   6.761  -0.000  -0.000
  0.001  -0.001   0.000   4.461  -0.000  -0.000   6.761   0.000
  0.000   0.000   0.000  -0.000   4.462  -0.000   0.000   6.761
  0.000  -0.000  -0.000  -0.000   0.000  -0.000  -0.000   0.000
  0.000  -0.000  -0.001   0.000  -0.000  -0.000   0.000  -0.000
 -0.000   0.000  -0.000  -0.001  -0.000  -0.000  -0.000  -0.000
 -0.000   0.000  -0.000   0.000  -0.001  -0.000   0.000  -0.000
 -0.000   0.000  -0.000  -0.000   0.000  -0.000  -0.000   0.000
  0.000  -0.000  -0.000  -0.000   0.000  -0.000  -0.000   0.000
  0.000  -0.000  -0.002   0.000  -0.000  -0.000   0.000  -0.000
 -0.001   0.001  -0.000  -0.002  -0.000  -0.000  -0.000  -0.000
 -0.000   0.000  -0.000   0.000  -0.002  -0.000   0.000  -0.000
 -0.000   0.000  -0.000  -0.000   0.000  -0.000  -0.000   0.000
 pseudopotential strength for first ion, spin component:           2
  1.229  -5.049   0.000  -0.004   0.000   0.000   0.001   0.000
 -5.049   0.692  -0.000   0.002  -0.000   0.000  -0.001   0.000
  0.000  -0.000  -7.676   0.000   0.000   4.462   0.000   0.000
 -0.004   0.002   0.000  -7.677  -0.000   0.000   4.460  -0.000
  0.000  -0.000   0.000  -0.000  -7.676   0.000  -0.000   4.462
  0.000   0.000   4.462   0.000   0.000   6.761  -0.000  -0.000
  0.001  -0.001   0.000   4.460  -0.000  -0.000   6.761   0.000
  0.000   0.000   0.000  -0.000   4.462  -0.000   0.000   6.761
  0.000  -0.000  -0.000   0.000   0.000  -0.000   0.000   0.000
  0.000  -0.000  -0.001   0.000   0.000  -0.000   0.000   0.000
 -0.000   0.000  -0.000  -0.001  -0.000  -0.000  -0.000  -0.000
 -0.000   0.000   0.000   0.000  -0.001   0.000  -0.000  -0.000
 -0.000   0.000  -0.000  -0.000   0.000  -0.000  -0.000   0.000
  0.000  -0.000  -0.000   0.000   0.000  -0.000   0.000   0.000
  0.000  -0.000  -0.002   0.000   0.000  -0.000   0.000   0.000
 -0.001   0.001  -0.000  -0.002  -0.000  -0.000  -0.000  -0.000
 -0.000   0.000   0.000   0.000  -0.002   0.000   0.000  -0.000
 -0.000   0.000  -0.000  -0.000   0.000  -0.000  -0.000   0.000
 total augmentation occupancy for first ion, spin component:           1
  2.004  -0.004   0.000  -0.000   0.000   0.000  -0.001   0.000   0.000   0.000  -0.001   0.000   0.000   0.000   0.000   0.000
 -0.004   0.392   0.000  -0.015   0.000   0.000   0.004   0.000   0.000   0.000  -0.023   0.000   0.000   0.000  -0.000   0.012
  0.000   0.000   2.021   0.000   0.000  -0.009   0.000   0.000   0.000  -0.023   0.000   0.000   0.000   0.000   0.010   0.000
 -0.000  -0.015   0.000   2.021   0.000   0.000  -0.009   0.000   0.000  -0.000  -0.013   0.000   0.000   0.000  -0.000   0.005
  0.000   0.000   0.000   0.000   2.021   0.000   0.000  -0.009   0.000   0.000   0.000  -0.023   0.000  -0.000   0.000   0.000
  0.000   0.000  -0.009   0.000   0.000   0.010   0.000   0.000   0.000   0.008   0.000   0.000  -0.000   0.000  -0.004   0.000
 -0.001   0.004   0.000  -0.009   0.000  -0.000   0.010   0.000   0.000   0.000   0.005   0.000   0.000   0.000   0.000  -0.003
  0.000   0.000   0.000   0.000  -0.009   0.000   0.000   0.010   0.000   0.000   0.000   0.008   0.000  -0.000   0.000   0.000
  0.000   0.000   0.000   0.000  -0.000   0.000   0.000  -0.000   2.894   0.000   0.000   0.000   0.000  -1.536   0.000   0.000
  0.000   0.000  -0.023   0.000   0.000   0.008   0.000   0.000   0.000   2.684   0.000   0.000   0.000   0.000  -1.422   0.000
 -0.001  -0.023   0.000  -0.013   0.000   0.000   0.005   0.000   0.000   0.000   1.799   0.000   0.000   0.000   0.000  -0.947
  0.000   0.000   0.000   0.000  -0.023   0.000   0.000   0.008   0.000   0.000   0.000   2.684   0.000   0.000   0.000   0.000
  0.000   0.000  -0.000   0.000   0.000   0.000   0.000   0.000   0.000   0.000   0.000   0.000   1.684   0.000   0.000   0.000
  0.000   0.000   0.000   0.000   0.000   0.000   0.000  -0.000  -1.536   0.000   0.000   0.000   0.000   0.817   0.000   0.000
  0.000   0.000   0.010   0.000   0.000  -0.004   0.000   0.000   0.000  -1.422   0.000   0.000   0.000   0.000   0.755   0.000
  0.000   0.012   0.000   0.005   0.000   0.000  -0.003   0.000   0.000   0.000  -0.947   0.000   0.000   0.000   0.000   0.500
  0.000   0.000   0.000   0.000   0.010   0.000   0.000  -0.004   0.000   0.000   0.000  -1.422   0.000   0.000   0.000   0.000
  0.000   0.000   0.000   0.000   0.000   0.000   0.000   0.000  -0.000   0.000   0.000   0.000  -0.886   0.000   0.000   0.000
 total augmentation occupancy for first ion, spin component:           2
  0.000   0.000   0.000  -0.000   0.000   0.000   0.000   0.000   0.000   0.000   0.000  -0.000   0.000   0.000   0.000  -0.000
  0.000  -0.000   0.000  -0.000   0.000   0.000  -0.000   0.000   0.000   0.000  -0.000   0.000   0.000   0.000   0.000   0.000
  0.000   0.000   0.000   0.000   0.000   0.000  -0.000   0.000   0.000  -0.000   0.000   0.000  -0.000   0.000   0.000  -0.000
 -0.000  -0.000   0.000   0.000   0.000   0.000   0.000   0.000   0.000   0.000  -0.000   0.000   0.000   0.000   0.000   0.000
  0.000   0.000   0.000   0.000   0.000   0.000   0.000   0.000  -0.000   0.000   0.000  -0.000   0.000   0.000   0.000   0.000
  0.000   0.000   0.000   0.000   0.000  -0.000   0.000   0.000   0.000   0.000   0.000   0.000   0.000  -0.000  -0.000   0.000
  0.000  -0.000  -0.000   0.000   0.000   0.000  -0.000   0.000   0.000   0.000   0.000   0.000   0.000   0.000   0.000  -0.000
  0.000   0.000   0.000   0.000   0.000   0.000   0.000  -0.000   0.000   0.000   0.000   0.000   0.000   0.000   0.000  -0.000
  0.000   0.000   0.000   0.000  -0.000   0.000   0.000   0.000  -0.000   0.000   0.000  -0.000   0.000   0.000   0.000   0.000
  0.000   0.000  -0.000   0.000   0.000   0.000   0.000   0.000   0.000  -0.000   0.000   0.000   0.000   0.000   0.000  -0.000
  0.000  -0.000   0.000  -0.000   0.000   0.000   0.000   0.000   0.000   0.000  -0.000   0.000   0.000   0.000   0.000   0.000
 -0.000   0.000   0.000   0.000  -0.000   0.000   0.000   0.000  -0.000   0.000   0.000  -0.000   0.000  -0.000   0.000   0.000
  0.000   0.000  -0.000   0.000   0.000   0.000   0.000   0.000   0.000   0.000   0.000   0.000  -0.000   0.000   0.000   0.000
  0.000   0.000   0.000   0.000   0.000  -0.000   0.000   0.000   0.000   0.000   0.000  -0.000   0.000  -0.000   0.000   0.000
  0.000   0.000   0.000   0.000   0.000  -0.000   0.000   0.000   0.000   0.000   0.000   0.000   0.000   0.000  -0.000   0.000
 -0.000   0.000  -0.000   0.000   0.000   0.000  -0.000  -0.000   0.000  -0.000   0.000   0.000   0.000   0.000   0.000  -0.000
  0.000   0.000   0.000   0.000   0.000   0.000   0.000  -0.000  -0.000   0.000   0.000   0.000   0.000   0.000   0.000   0.000
  0.000   0.000   0.000   0.000   0.000  -0.000   0.000   0.000   0.000   0.000   0.000   0.000   0.000  -0.000   0.000   0.000


------------------------ aborting loop because EDIFF is reached ----------------------------------------


 


 total charge     
 
# of ion     s       p       d       tot
----------------------------------------
  1        2.005   5.646   0.306   7.957
  2        0.297   6.407   1.890   8.594
  3        1.574   3.315   0.000   4.890
  4        1.552   3.591   0.000   5.143
  5        1.565   3.448   0.000   5.012
------------------------------------------------
tot        6.993  22.408   2.195  31.597
 


 magnetization (x)
 
# of ion     s       p       d       tot
----------------------------------------
  1        0.000   0.000  -0.000   0.000
  2        0.000   0.000  -0.000  -0.000
  3        0.000   0.000   0.000   0.000
  4        0.000   0.000   0.000   0.000
  5       -0.000  -0.000   0.000  -0.000
------------------------------------------------
tot        0.000   0.000  -0.000   0.000
 
    CHARGE:  cpu time    0.46: real time    0.46
    FORLOC:  cpu time    0.00: real time    0.00
    FORNL :  cpu time    2.56: real time    2.56
    STRESS:  cpu time    7.61: real time    7.64
    FORCOR:  cpu time    0.08: real time    0.09
    FORHAR:  cpu time    0.01: real time    0.01
    MIXING:  cpu time    0.00: real time    0.00
    OFIELD:  cpu time    0.00: real time    0.00

  FORCE on cell =-STRESS in cart. coord.  units (eV):
  Direction    XX          YY          ZZ          XY          YZ          ZX
  --------------------------------------------------------------------------------------
  Alpha Z   251.35143   251.35143   251.35143
  Ewald    -819.58867  -819.58867  -850.28441    -0.00000     0.00000    -0.00000
  Hartree   222.39537   222.39537   202.55661    -0.00000    -0.00000    -0.00000
  E(xc)    -171.23358  -171.23358  -171.29377    -0.00000     0.00000     0.00000
  Local     -45.48739   -45.48739     5.23544     0.00000     0.00000    -0.00000
  n-local  -129.22520  -126.55186  -128.27779    -0.36072    -0.32909    -0.29124
  augment    63.27148    63.27148    63.04267    -0.00000    -0.00000     0.00000
  Kinetic   621.21154   632.95625   626.59696    -3.08909    -3.11398    -2.67888
  Fock        0.00000     0.00000     0.00000     0.00000     0.00000     0.00000
  -------------------------------------------------------------------------------------
  Total      -0.09601    -0.09601    -1.07286     0.00000     0.00000     0.00000
  in kB      -2.30745    -2.30745   -25.78457     0.00000     0.00000     0.00000
  external pressure =      -10.13 kB  Pullay stress =        0.00 kB


 VOLUME and BASIS-vectors are now :
 -----------------------------------------------------------------------------
  energy-cutoff  :      520.00
  volume of cell :       66.66
      direct lattice vectors                 reciprocal lattice vectors
     4.015446000  0.000000000  0.000000000     0.249038338  0.000000000  0.000000000
     0.000000000  4.015446000  0.000000000     0.000000000  0.249038338  0.000000000
     0.000000000  0.000000000  4.134544000     0.000000000  0.000000000  0.241864641

  length of vectors
     4.015446000  4.015446000  4.134544000     0.249038338  0.249038338  0.241864641


 FORCES acting on ions
    electron-ion (+dipol)            ewald-force                    non-local-force                 convergence-correction
 -----------------------------------------------------------------------------------------------
   -.703E-14 -.346E-14 0.398E+01   -.118E-13 -.114E-13 -.354E+01   0.000E+00 0.000E+00 -.502E+00   -.122E-13 -.733E-14 0.562E-02
   0.162E-12 0.211E-11 0.396E+02   0.187E-13 0.239E-13 -.386E+02   0.000E+00 0.104E-16 -.440E+00   -.611E-13 -.632E-13 -.433E-01
   -.137E-13 0.603E-13 0.114E+02   -.216E-13 0.105E-13 -.119E+02   0.000E+00 0.000E+00 0.403E+00   0.461E-14 -.594E-13 0.257E-02
   0.134E-12 -.177E-14 0.114E+02   0.789E-14 -.272E-13 -.119E+02   0.000E+00 0.000E+00 0.403E+00   -.490E-13 0.323E-13 0.257E-02
   0.123E-12 0.157E-11 -.602E+02   0.729E-14 0.182E-14 0.659E+02   0.000E+00 0.000E+00 -.605E+01   -.493E-13 -.371E-13 -.237E-01
 -----------------------------------------------------------------------------------------------
   0.398E-12 0.373E-11 0.624E+01   0.443E-15 -.235E-14 0.000E+00   0.000E+00 0.104E-16 -.618E+01   -.167E-12 -.135E-12 -.562E-01
 
 
 POSITION                                       TOTAL-FORCE (eV/Angst)
 -----------------------------------------------------------------------------------
      0.00000      0.00000      0.05171        -0.000000     -0.000000     -0.051234
      2.00772      2.00772      2.16166        -0.000000      0.000000      0.518360
      0.00000      2.00772      2.05409        -0.000000     -0.000000     -0.050411
      2.00772      0.00000      2.05409         0.000000     -0.000000     -0.050411
      2.00772      2.00772      4.07268        -0.000000      0.000000     -0.366305
 -----------------------------------------------------------------------------------
    total drift:                                0.000000      0.000000      0.001506


--------------------------------------------------------------------------------------------------------



  FREE ENERGIE OF THE ION-ELECTRON SYSTEM (eV)
  ---------------------------------------------------
  free  energy   TOTEN  =       -39.91355125 eV

  energy  without entropy=      -39.91355125  energy(sigma->0) =      -39.91355125
 


--------------------------------------------------------------------------------------------------------


    POTLOK:  cpu time    0.10: real time    0.11


--------------------------------------------------------------------------------------------------------


 writing wavefunctions
     LOOP+:  cpu time  334.78: real time  339.89
    4ORBIT:  cpu time    0.00: real time    0.00
 


 total charge     
 
# of ion     s       p       d       tot
----------------------------------------
  1        2.005   5.646   0.306   7.957
  2        0.297   6.407   1.890   8.594
  3        1.574   3.315   0.000   4.890
  4        1.552   3.591   0.000   5.143
  5        1.565   3.448   0.000   5.012
------------------------------------------------
tot        6.993  22.408   2.195  31.597
 


 magnetization (x)
 
# of ion     s       p       d       tot
----------------------------------------
  1        0.000   0.000  -0.000   0.000
  2        0.000   0.000  -0.000  -0.000
  3        0.000   0.000   0.000   0.000
  4        0.000   0.000   0.000   0.000
  5       -0.000  -0.000   0.000  -0.000
------------------------------------------------
tot        0.000   0.000  -0.000   0.000
 
 BZINTS: Fermi energy:  2.959094; 38.000000 electrons
         Band energy:-332.057255;  BLOECHL correction:  0.000000

 total amount of memory used by VASP on root node    49547. kBytes
========================================================================

   base      :      30000. kBytes
   nonlr-proj:       3500. kBytes
   fftplans  :       1162. kBytes
   grid      :       5105. kBytes
   one-center:        155. kBytes
   wavefun   :       9625. kBytes
 
  
  
 General timing and accounting informations for this job:
 ========================================================
  
                  Total CPU time used (sec):      344.187
                            User time (sec):      331.752
                          System time (sec):       12.435
                         Elapsed time (sec):      351.402
  
                   Maximum memory used (kb):       64600.
                   Average memory used (kb):           0.
  
                          Minor page faults:      3266466
                          Major page faults:            5
                 Voluntary context switches:         1243
