<?xml version="1.0" encoding="ISO-8859-1"?>
<modeling>
 <generator>
  <i name="program" type="string">vasp </i>
  <i name="version" type="string">5.3.5  </i>
  <i name="subversion" type="string">31Mar14 (build Oct 24 2014 12:38:34) complex                          parallel </i>
  <i name="platform" type="string">LinuxIFC </i>
  <i name="date" type="string">2016 10 20 </i>
  <i name="time" type="string">19:24:50 </i>
 </generator>
 <incar>
  <i type="string" name="PREC">accurate</i>
  <i type="string" name="ALGO"> Normal</i>
  <i type="int" name="ISPIN">     2</i>
  <i type="int" name="ICHARG">     0</i>
  <i type="int" name="NELM">   100</i>
  <i type="int" name="IBRION">    -1</i>
  <i name="EDIFF">      0.00025000</i>
  <i type="int" name="NSW">     0</i>
  <i type="int" name="ISIF">     3</i>
  <i name="ENCUT">    520.00000000</i>
  <v name="MAGMOM">      0.60000000      0.60000000      0.60000000      0.60000000      0.60000000</v>
  <i type="string" name="LREAL"> Auto</i>
  <i type="int" name="ISMEAR">    -5</i>
  <i name="SIGMA">      0.05000000</i>
  <i type="logical" name="LWAVE"> T  </i>
  <i type="logical" name="LCHARG"> T  </i>
  <i type="logical" name="LVHAR"> T  </i>
  <i type="logical" name="LORBIT"> F  </i>
  <i type="logical" name="LAECHG"> T  </i>
  <i type="int" name="NELM">   100</i>
 </incar>
 <kpoints>
  <generation param="Monkhorst-Pack">
   <v type="int" name="divisions">       8        8        8 </v>
   <v name="usershift">      0.00000000       0.00000000       0.00000000 </v>
   <v name="genvec1">      0.12500000       0.00000000       0.00000000 </v>
   <v name="genvec2">      0.00000000       0.12500000       0.00000000 </v>
   <v name="genvec3">      0.00000000       0.00000000       0.12500000 </v>
   <v name="shift">      0.50000000       0.50000000       0.50000000 </v>
  </generation>
  <varray name="kpointlist" >
   <v>       0.06250000       0.06250000       0.06250000 </v>
   <v>       0.18750000       0.06250000       0.06250000 </v>
   <v>       0.31250000       0.06250000       0.06250000 </v>
   <v>       0.43750000       0.06250000       0.06250000 </v>
   <v>       0.18750000       0.18750000       0.06250000 </v>
   <v>       0.31250000       0.18750000       0.06250000 </v>
   <v>       0.43750000       0.18750000       0.06250000 </v>
   <v>       0.31250000       0.31250000       0.06250000 </v>
   <v>       0.43750000       0.31250000       0.06250000 </v>
   <v>       0.43750000       0.43750000       0.06250000 </v>
   <v>       0.06250000       0.06250000       0.18750000 </v>
   <v>       0.18750000       0.06250000       0.18750000 </v>
   <v>       0.31250000       0.06250000       0.18750000 </v>
   <v>       0.43750000       0.06250000       0.18750000 </v>
   <v>       0.18750000       0.18750000       0.18750000 </v>
   <v>       0.31250000       0.18750000       0.18750000 </v>
   <v>       0.43750000       0.18750000       0.18750000 </v>
   <v>       0.31250000       0.31250000       0.18750000 </v>
   <v>       0.43750000       0.31250000       0.18750000 </v>
   <v>       0.43750000       0.43750000       0.18750000 </v>
   <v>       0.06250000       0.06250000       0.31250000 </v>
   <v>       0.18750000       0.06250000       0.31250000 </v>
   <v>       0.31250000       0.06250000       0.31250000 </v>
   <v>       0.43750000       0.06250000       0.31250000 </v>
   <v>       0.18750000       0.18750000       0.31250000 </v>
   <v>       0.31250000       0.18750000       0.31250000 </v>
   <v>       0.43750000       0.18750000       0.31250000 </v>
   <v>       0.31250000       0.31250000       0.31250000 </v>
   <v>       0.43750000       0.31250000       0.31250000 </v>
   <v>       0.43750000       0.43750000       0.31250000 </v>
   <v>       0.06250000       0.06250000       0.43750000 </v>
   <v>       0.18750000       0.06250000       0.43750000 </v>
   <v>       0.31250000       0.06250000       0.43750000 </v>
   <v>       0.43750000       0.06250000       0.43750000 </v>
   <v>       0.18750000       0.18750000       0.43750000 </v>
   <v>       0.31250000       0.18750000       0.43750000 </v>
   <v>       0.43750000       0.18750000       0.43750000 </v>
   <v>       0.31250000       0.31250000       0.43750000 </v>
   <v>       0.43750000       0.31250000       0.43750000 </v>
   <v>       0.43750000       0.43750000       0.43750000 </v>
  </varray>
  <varray name="weights" >
   <v>       0.01562500 </v>
   <v>       0.03125000 </v>
   <v>       0.03125000 </v>
   <v>       0.03125000 </v>
   <v>       0.01562500 </v>
   <v>       0.03125000 </v>
   <v>       0.03125000 </v>
   <v>       0.01562500 </v>
   <v>       0.03125000 </v>
   <v>       0.01562500 </v>
   <v>       0.01562500 </v>
   <v>       0.03125000 </v>
   <v>       0.03125000 </v>
   <v>       0.03125000 </v>
   <v>       0.01562500 </v>
   <v>       0.03125000 </v>
   <v>       0.03125000 </v>
   <v>       0.01562500 </v>
   <v>       0.03125000 </v>
   <v>       0.01562500 </v>
   <v>       0.01562500 </v>
   <v>       0.03125000 </v>
   <v>       0.03125000 </v>
   <v>       0.03125000 </v>
   <v>       0.01562500 </v>
   <v>       0.03125000 </v>
   <v>       0.03125000 </v>
   <v>       0.01562500 </v>
   <v>       0.03125000 </v>
   <v>       0.01562500 </v>
   <v>       0.01562500 </v>
   <v>       0.03125000 </v>
   <v>       0.03125000 </v>
   <v>       0.03125000 </v>
   <v>       0.01562500 </v>
   <v>       0.03125000 </v>
   <v>       0.03125000 </v>
   <v>       0.01562500 </v>
   <v>       0.03125000 </v>
   <v>       0.01562500 </v>
  </varray>
  <varray name="tetrahedronlist"  type="int" >
   <v type="int" >        4        1        2        5       11 </v>
   <v type="int" >        4        2        5       11       12 </v>
   <v type="int" >        4        5       11       12       15 </v>
   <v type="int" >        4        2        3        6       12 </v>
   <v type="int" >        4        2        5        6       12 </v>
   <v type="int" >        4        5        6       12       15 </v>
   <v type="int" >        4        3        6       12       13 </v>
   <v type="int" >        4        6       12       13       16 </v>
   <v type="int" >        4        6       12       15       16 </v>
   <v type="int" >        4        3        4        7       13 </v>
   <v type="int" >        4        3        6        7       13 </v>
   <v type="int" >        4        6        7       13       16 </v>
   <v type="int" >        4        4        7       13       14 </v>
   <v type="int" >        4        7       13       14       17 </v>
   <v type="int" >        4        7       13       16       17 </v>
   <v type="int" >        4        4        4        7       14 </v>
   <v type="int" >        4        4        7        7       14 </v>
   <v type="int" >        4        7        7       14       17 </v>
   <v type="int" >        4        4        7       14       14 </v>
   <v type="int" >        4        7       14       14       17 </v>
   <v type="int" >        4        7       14       17       17 </v>
   <v type="int" >        4        3        4        6       14 </v>
   <v type="int" >        4        4        6        7       14 </v>
   <v type="int" >        4        6        7       14       17 </v>
   <v type="int" >        4        3        6       13       14 </v>
   <v type="int" >        4        6       13       14       16 </v>
   <v type="int" >        4        6       14       16       17 </v>
   <v type="int" >        4        2        3        5       13 </v>
   <v type="int" >        4        3        5        6       13 </v>
   <v type="int" >        4        5        6       13       16 </v>
   <v type="int" >        4        2        5       12       13 </v>
   <v type="int" >        4        5       12       13       15 </v>
   <v type="int" >        4        5       13       15       16 </v>
   <v type="int" >        8        1        2        2       12 </v>
   <v type="int" >        4        2        2        5       12 </v>
   <v type="int" >        4        2        5       12       15 </v>
   <v type="int" >        4        1        2       11       12 </v>
   <v type="int" >        8        2       11       12       12 </v>
   <v type="int" >        4        2       12       12       15 </v>
   <v type="int" >        4        1        1        2       11 </v>
   <v type="int" >        4        1        2        2       11 </v>
   <v type="int" >        4        2        2       11       12 </v>
   <v type="int" >        4        1        2       11       11 </v>
   <v type="int" >        4        2       11       11       12 </v>
   <v type="int" >        4        5        6        8       15 </v>
   <v type="int" >        4        6        8       15       16 </v>
   <v type="int" >        4        8       15       16       18 </v>
   <v type="int" >        4        6        7        9       16 </v>
   <v type="int" >        4        6        8        9       16 </v>
   <v type="int" >        4        8        9       16       18 </v>
   <v type="int" >        4        7        9       16       17 </v>
   <v type="int" >        4        9       16       17       19 </v>
   <v type="int" >        4        9       16       18       19 </v>
   <v type="int" >        4        7        7        9       17 </v>
   <v type="int" >        4        7        9        9       17 </v>
   <v type="int" >        4        9        9       17       19 </v>
   <v type="int" >        4        7        9       17       17 </v>
   <v type="int" >        4        9       17       17       19 </v>
   <v type="int" >        4        9       17       19       19 </v>
   <v type="int" >        4        6        7        8       17 </v>
   <v type="int" >        4        7        8        9       17 </v>
   <v type="int" >        4        8        9       17       19 </v>
   <v type="int" >        4        6        8       16       17 </v>
   <v type="int" >        4        8       16       17       18 </v>
   <v type="int" >        4        8       17       18       19 </v>
   <v type="int" >        4        5        6        6       16 </v>
   <v type="int" >        4        6        6        8       16 </v>
   <v type="int" >        4        6        8       16       18 </v>
   <v type="int" >        4        5        6       15       16 </v>
   <v type="int" >        4        6       15       16       16 </v>
   <v type="int" >        4        6       16       16       18 </v>
   <v type="int" >        4        2        3        5       15 </v>
   <v type="int" >        4        3        5        6       15 </v>
   <v type="int" >        4        3        6       15       16 </v>
   <v type="int" >        4        2        3       12       15 </v>
   <v type="int" >        4        3       12       13       15 </v>
   <v type="int" >        4        3       13       15       16 </v>
   <v type="int" >        4        2        2        3       12 </v>
   <v type="int" >        4        2        3        3       12 </v>
   <v type="int" >        4        3        3       12       13 </v>
   <v type="int" >        4        2        3       12       12 </v>
   <v type="int" >        4        3       12       12       13 </v>
   <v type="int" >        4        3       12       13       13 </v>
   <v type="int" >        4        8        9       10       18 </v>
   <v type="int" >        4        9       10       18       19 </v>
   <v type="int" >        4       10       18       19       20 </v>
   <v type="int" >        8        9        9       10       19 </v>
   <v type="int" >        4        9       10       10       19 </v>
   <v type="int" >        4       10       10       19       20 </v>
   <v type="int" >        4        9       10       19       19 </v>
   <v type="int" >        4       10       19       19       20 </v>
   <v type="int" >        4       10       19       20       20 </v>
   <v type="int" >        4        8        9        9       19 </v>
   <v type="int" >        4        9       10       19       20 </v>
   <v type="int" >        4        8        9       18       19 </v>
   <v type="int" >        4        9       18       19       19 </v>
   <v type="int" >        8        9       19       19       20 </v>
   <v type="int" >        4        6        7        8       18 </v>
   <v type="int" >        4        7        8        9       18 </v>
   <v type="int" >        4        7        9       18       19 </v>
   <v type="int" >        4        6        7       16       18 </v>
   <v type="int" >        4        7       16       17       18 </v>
   <v type="int" >        4        7       17       18       19 </v>
   <v type="int" >        4        3        4        6       16 </v>
   <v type="int" >        4        4        6        7       16 </v>
   <v type="int" >        4        4        7       16       17 </v>
   <v type="int" >        4        3        4       13       16 </v>
   <v type="int" >        4        4       13       14       16 </v>
   <v type="int" >        4        4       14       16       17 </v>
   <v type="int" >        4        3        3        4       13 </v>
   <v type="int" >        4        3        4        4       13 </v>
   <v type="int" >        4        4        4       13       14 </v>
   <v type="int" >        4        3        4       13       13 </v>
   <v type="int" >        4        4       13       13       14 </v>
   <v type="int" >        4        4       13       14       14 </v>
   <v type="int" >        4       10       10       10       20 </v>
   <v type="int" >        4       10       10       20       20 </v>
   <v type="int" >        4       10       20       20       20 </v>
   <v type="int" >        4        9        9       10       20 </v>
   <v type="int" >        4        9       10       10       20 </v>
   <v type="int" >        4        9       10       20       20 </v>
   <v type="int" >        4        9        9       19       20 </v>
   <v type="int" >        4        9       19       20       20 </v>
   <v type="int" >        4        7        7        9       19 </v>
   <v type="int" >        4        7        9        9       19 </v>
   <v type="int" >        4        7        9       19       19 </v>
   <v type="int" >        4        7        7       17       19 </v>
   <v type="int" >        4        7       17       17       19 </v>
   <v type="int" >        4        7       17       19       19 </v>
   <v type="int" >        4        4        4        7       17 </v>
   <v type="int" >        4        4        7        7       17 </v>
   <v type="int" >        4        4        7       17       17 </v>
   <v type="int" >        4        4        4       14       17 </v>
   <v type="int" >        4        4       14       14       17 </v>
   <v type="int" >        4        4       14       17       17 </v>
   <v type="int" >        8        4        4        4       14 </v>
   <v type="int" >        8        4        4       14       14 </v>
   <v type="int" >        8        4       14       14       14 </v>
   <v type="int" >        4        8        9       10       20 </v>
   <v type="int" >        4        8        9       19       20 </v>
   <v type="int" >        4        8       18       19       20 </v>
   <v type="int" >        4        6        7        9       19 </v>
   <v type="int" >        4        6        8        9       19 </v>
   <v type="int" >        4        6        8       18       19 </v>
   <v type="int" >        4        6        7       17       19 </v>
   <v type="int" >        4        6       16       17       19 </v>
   <v type="int" >        4        6       16       18       19 </v>
   <v type="int" >        4        3        4        7       17 </v>
   <v type="int" >        4        3        6        7       17 </v>
   <v type="int" >        4        3        6       16       17 </v>
   <v type="int" >        4        3        4       14       17 </v>
   <v type="int" >        4        3       13       14       17 </v>
   <v type="int" >        4        3       13       16       17 </v>
   <v type="int" >        4        3        4        4       14 </v>
   <v type="int" >        4        3        3        4       14 </v>
   <v type="int" >        4        3        3       13       14 </v>
   <v type="int" >        4        3        4       14       14 </v>
   <v type="int" >        4        3       13       14       14 </v>
   <v type="int" >        4        3       13       13       14 </v>
   <v type="int" >        4        5        6        8       18 </v>
   <v type="int" >        4        5        6       16       18 </v>
   <v type="int" >        4        5       15       16       18 </v>
   <v type="int" >        4        2        3        6       16 </v>
   <v type="int" >        4        2        5        6       16 </v>
   <v type="int" >        4        2        5       15       16 </v>
   <v type="int" >        4        2        3       13       16 </v>
   <v type="int" >        4        2       12       13       16 </v>
   <v type="int" >        4        2       12       15       16 </v>
   <v type="int" >        4        2        3        3       13 </v>
   <v type="int" >        4        2        2        3       13 </v>
   <v type="int" >        4        2        2       12       13 </v>
   <v type="int" >        4        2        3       13       13 </v>
   <v type="int" >        4        2       12       13       13 </v>
   <v type="int" >        4        2       12       12       13 </v>
   <v type="int" >        4        1        2        5       15 </v>
   <v type="int" >        4        1        2       12       15 </v>
   <v type="int" >        4        1       11       12       15 </v>
   <v type="int" >        4        1        1        2       12 </v>
   <v type="int" >        4        1        1       11       12 </v>
   <v type="int" >        4        1        2       12       12 </v>
   <v type="int" >        4        1       11       12       12 </v>
   <v type="int" >        4        1       11       11       12 </v>
   <v type="int" >        4        1        1        1       11 </v>
   <v type="int" >        4        1        1       11       11 </v>
   <v type="int" >        4        1       11       11       11 </v>
   <v type="int" >        4       11       12       15       21 </v>
   <v type="int" >        4       12       15       21       22 </v>
   <v type="int" >        4       15       21       22       25 </v>
   <v type="int" >        4       12       13       16       22 </v>
   <v type="int" >        4       12       15       16       22 </v>
   <v type="int" >        4       15       16       22       25 </v>
   <v type="int" >        4       13       16       22       23 </v>
   <v type="int" >        4       16       22       23       26 </v>
   <v type="int" >        4       16       22       25       26 </v>
   <v type="int" >        4       13       14       17       23 </v>
   <v type="int" >        4       13       16       17       23 </v>
   <v type="int" >        4       16       17       23       26 </v>
   <v type="int" >        4       14       17       23       24 </v>
   <v type="int" >        4       17       23       24       27 </v>
   <v type="int" >        4       17       23       26       27 </v>
   <v type="int" >        4       14       14       17       24 </v>
   <v type="int" >        4       14       17       17       24 </v>
   <v type="int" >        4       17       17       24       27 </v>
   <v type="int" >        4       14       17       24       24 </v>
   <v type="int" >        4       17       24       24       27 </v>
   <v type="int" >        4       17       24       27       27 </v>
   <v type="int" >        4       13       14       16       24 </v>
   <v type="int" >        4       14       16       17       24 </v>
   <v type="int" >        4       16       17       24       27 </v>
   <v type="int" >        4       13       16       23       24 </v>
   <v type="int" >        4       16       23       24       26 </v>
   <v type="int" >        4       16       24       26       27 </v>
   <v type="int" >        4       12       13       15       23 </v>
   <v type="int" >        4       13       15       16       23 </v>
   <v type="int" >        4       15       16       23       26 </v>
   <v type="int" >        4       12       15       22       23 </v>
   <v type="int" >        4       15       22       23       25 </v>
   <v type="int" >        4       15       23       25       26 </v>
   <v type="int" >        8       11       12       12       22 </v>
   <v type="int" >        4       12       12       15       22 </v>
   <v type="int" >        4       12       15       22       25 </v>
   <v type="int" >        4       11       12       21       22 </v>
   <v type="int" >        8       12       21       22       22 </v>
   <v type="int" >        4       12       22       22       25 </v>
   <v type="int" >        4       11       11       12       21 </v>
   <v type="int" >        4       11       12       12       21 </v>
   <v type="int" >        4       12       12       21       22 </v>
   <v type="int" >        4       11       12       21       21 </v>
   <v type="int" >        4       12       21       21       22 </v>
   <v type="int" >        4       15       16       18       25 </v>
   <v type="int" >        4       16       18       25       26 </v>
   <v type="int" >        4       18       25       26       28 </v>
   <v type="int" >        4       16       17       19       26 </v>
   <v type="int" >        4       16       18       19       26 </v>
   <v type="int" >        4       18       19       26       28 </v>
   <v type="int" >        4       17       19       26       27 </v>
   <v type="int" >        4       19       26       27       29 </v>
   <v type="int" >        4       19       26       28       29 </v>
   <v type="int" >        4       17       17       19       27 </v>
   <v type="int" >        4       17       19       19       27 </v>
   <v type="int" >        4       19       19       27       29 </v>
   <v type="int" >        4       17       19       27       27 </v>
   <v type="int" >        4       19       27       27       29 </v>
   <v type="int" >        4       19       27       29       29 </v>
   <v type="int" >        4       16       17       18       27 </v>
   <v type="int" >        4       17       18       19       27 </v>
   <v type="int" >        4       18       19       27       29 </v>
   <v type="int" >        4       16       18       26       27 </v>
   <v type="int" >        4       18       26       27       28 </v>
   <v type="int" >        4       18       27       28       29 </v>
   <v type="int" >        4       15       16       16       26 </v>
   <v type="int" >        4       16       16       18       26 </v>
   <v type="int" >        4       16       18       26       28 </v>
   <v type="int" >        4       15       16       25       26 </v>
   <v type="int" >        4       16       25       26       26 </v>
   <v type="int" >        4       16       26       26       28 </v>
   <v type="int" >        4       12       13       15       25 </v>
   <v type="int" >        4       13       15       16       25 </v>
   <v type="int" >        4       13       16       25       26 </v>
   <v type="int" >        4       12       13       22       25 </v>
   <v type="int" >        4       13       22       23       25 </v>
   <v type="int" >        4       13       23       25       26 </v>
   <v type="int" >        4       12       12       13       22 </v>
   <v type="int" >        4       12       13       13       22 </v>
   <v type="int" >        4       13       13       22       23 </v>
   <v type="int" >        4       12       13       22       22 </v>
   <v type="int" >        4       13       22       22       23 </v>
   <v type="int" >        4       13       22       23       23 </v>
   <v type="int" >        4       18       19       20       28 </v>
   <v type="int" >        4       19       20       28       29 </v>
   <v type="int" >        4       20       28       29       30 </v>
   <v type="int" >        8       19       19       20       29 </v>
   <v type="int" >        4       19       20       20       29 </v>
   <v type="int" >        4       20       20       29       30 </v>
   <v type="int" >        4       19       20       29       29 </v>
   <v type="int" >        4       20       29       29       30 </v>
   <v type="int" >        4       20       29       30       30 </v>
   <v type="int" >        4       18       19       19       29 </v>
   <v type="int" >        4       19       20       29       30 </v>
   <v type="int" >        4       18       19       28       29 </v>
   <v type="int" >        4       19       28       29       29 </v>
   <v type="int" >        8       19       29       29       30 </v>
   <v type="int" >        4       16       17       18       28 </v>
   <v type="int" >        4       17       18       19       28 </v>
   <v type="int" >        4       17       19       28       29 </v>
   <v type="int" >        4       16       17       26       28 </v>
   <v type="int" >        4       17       26       27       28 </v>
   <v type="int" >        4       17       27       28       29 </v>
   <v type="int" >        4       13       14       16       26 </v>
   <v type="int" >        4       14       16       17       26 </v>
   <v type="int" >        4       14       17       26       27 </v>
   <v type="int" >        4       13       14       23       26 </v>
   <v type="int" >        4       14       23       24       26 </v>
   <v type="int" >        4       14       24       26       27 </v>
   <v type="int" >        4       13       13       14       23 </v>
   <v type="int" >        4       13       14       14       23 </v>
   <v type="int" >        4       14       14       23       24 </v>
   <v type="int" >        4       13       14       23       23 </v>
   <v type="int" >        4       14       23       23       24 </v>
   <v type="int" >        4       14       23       24       24 </v>
   <v type="int" >        4       20       20       20       30 </v>
   <v type="int" >        4       20       20       30       30 </v>
   <v type="int" >        4       20       30       30       30 </v>
   <v type="int" >        4       19       19       20       30 </v>
   <v type="int" >        4       19       20       20       30 </v>
   <v type="int" >        4       19       20       30       30 </v>
   <v type="int" >        4       19       19       29       30 </v>
   <v type="int" >        4       19       29       30       30 </v>
   <v type="int" >        4       17       17       19       29 </v>
   <v type="int" >        4       17       19       19       29 </v>
   <v type="int" >        4       17       19       29       29 </v>
   <v type="int" >        4       17       17       27       29 </v>
   <v type="int" >        4       17       27       27       29 </v>
   <v type="int" >        4       17       27       29       29 </v>
   <v type="int" >        4       14       14       17       27 </v>
   <v type="int" >        4       14       17       17       27 </v>
   <v type="int" >        4       14       17       27       27 </v>
   <v type="int" >        4       14       14       24       27 </v>
   <v type="int" >        4       14       24       24       27 </v>
   <v type="int" >        4       14       24       27       27 </v>
   <v type="int" >        8       14       14       14       24 </v>
   <v type="int" >        8       14       14       24       24 </v>
   <v type="int" >        8       14       24       24       24 </v>
   <v type="int" >        4       18       19       20       30 </v>
   <v type="int" >        4       18       19       29       30 </v>
   <v type="int" >        4       18       28       29       30 </v>
   <v type="int" >        4       16       17       19       29 </v>
   <v type="int" >        4       16       18       19       29 </v>
   <v type="int" >        4       16       18       28       29 </v>
   <v type="int" >        4       16       17       27       29 </v>
   <v type="int" >        4       16       26       27       29 </v>
   <v type="int" >        4       16       26       28       29 </v>
   <v type="int" >        4       13       14       17       27 </v>
   <v type="int" >        4       13       16       17       27 </v>
   <v type="int" >        4       13       16       26       27 </v>
   <v type="int" >        4       13       14       24       27 </v>
   <v type="int" >        4       13       23       24       27 </v>
   <v type="int" >        4       13       23       26       27 </v>
   <v type="int" >        4       13       14       14       24 </v>
   <v type="int" >        4       13       13       14       24 </v>
   <v type="int" >        4       13       13       23       24 </v>
   <v type="int" >        4       13       14       24       24 </v>
   <v type="int" >        4       13       23       24       24 </v>
   <v type="int" >        4       13       23       23       24 </v>
   <v type="int" >        4       15       16       18       28 </v>
   <v type="int" >        4       15       16       26       28 </v>
   <v type="int" >        4       15       25       26       28 </v>
   <v type="int" >        4       12       13       16       26 </v>
   <v type="int" >        4       12       15       16       26 </v>
   <v type="int" >        4       12       15       25       26 </v>
   <v type="int" >        4       12       13       23       26 </v>
   <v type="int" >        4       12       22       23       26 </v>
   <v type="int" >        4       12       22       25       26 </v>
   <v type="int" >        4       12       13       13       23 </v>
   <v type="int" >        4       12       12       13       23 </v>
   <v type="int" >        4       12       12       22       23 </v>
   <v type="int" >        4       12       13       23       23 </v>
   <v type="int" >        4       12       22       23       23 </v>
   <v type="int" >        4       12       22       22       23 </v>
   <v type="int" >        4       11       12       15       25 </v>
   <v type="int" >        4       11       12       22       25 </v>
   <v type="int" >        4       11       21       22       25 </v>
   <v type="int" >        4       11       11       12       22 </v>
   <v type="int" >        4       11       11       21       22 </v>
   <v type="int" >        4       11       12       22       22 </v>
   <v type="int" >        4       11       21       22       22 </v>
   <v type="int" >        4       11       21       21       22 </v>
   <v type="int" >        4       11       11       11       21 </v>
   <v type="int" >        4       11       11       21       21 </v>
   <v type="int" >        4       11       21       21       21 </v>
   <v type="int" >        4       21       22       25       31 </v>
   <v type="int" >        4       22       25       31       32 </v>
   <v type="int" >        4       25       31       32       35 </v>
   <v type="int" >        4       22       23       26       32 </v>
   <v type="int" >        4       22       25       26       32 </v>
   <v type="int" >        4       25       26       32       35 </v>
   <v type="int" >        4       23       26       32       33 </v>
   <v type="int" >        4       26       32       33       36 </v>
   <v type="int" >        4       26       32       35       36 </v>
   <v type="int" >        4       23       24       27       33 </v>
   <v type="int" >        4       23       26       27       33 </v>
   <v type="int" >        4       26       27       33       36 </v>
   <v type="int" >        4       24       27       33       34 </v>
   <v type="int" >        4       27       33       34       37 </v>
   <v type="int" >        4       27       33       36       37 </v>
   <v type="int" >        4       24       24       27       34 </v>
   <v type="int" >        4       24       27       27       34 </v>
   <v type="int" >        4       27       27       34       37 </v>
   <v type="int" >        4       24       27       34       34 </v>
   <v type="int" >        4       27       34       34       37 </v>
   <v type="int" >        4       27       34       37       37 </v>
   <v type="int" >        4       23       24       26       34 </v>
   <v type="int" >        4       24       26       27       34 </v>
   <v type="int" >        4       26       27       34       37 </v>
   <v type="int" >        4       23       26       33       34 </v>
   <v type="int" >        4       26       33       34       36 </v>
   <v type="int" >        4       26       34       36       37 </v>
   <v type="int" >        4       22       23       25       33 </v>
   <v type="int" >        4       23       25       26       33 </v>
   <v type="int" >        4       25       26       33       36 </v>
   <v type="int" >        4       22       25       32       33 </v>
   <v type="int" >        4       25       32       33       35 </v>
   <v type="int" >        4       25       33       35       36 </v>
   <v type="int" >        8       21       22       22       32 </v>
   <v type="int" >        4       22       22       25       32 </v>
   <v type="int" >        4       22       25       32       35 </v>
   <v type="int" >        4       21       22       31       32 </v>
   <v type="int" >        8       22       31       32       32 </v>
   <v type="int" >        4       22       32       32       35 </v>
   <v type="int" >        4       21       21       22       31 </v>
   <v type="int" >        4       21       22       22       31 </v>
   <v type="int" >        4       22       22       31       32 </v>
   <v type="int" >        4       21       22       31       31 </v>
   <v type="int" >        4       22       31       31       32 </v>
   <v type="int" >        4       25       26       28       35 </v>
   <v type="int" >        4       26       28       35       36 </v>
   <v type="int" >        4       28       35       36       38 </v>
   <v type="int" >        4       26       27       29       36 </v>
   <v type="int" >        4       26       28       29       36 </v>
   <v type="int" >        4       28       29       36       38 </v>
   <v type="int" >        4       27       29       36       37 </v>
   <v type="int" >        4       29       36       37       39 </v>
   <v type="int" >        4       29       36       38       39 </v>
   <v type="int" >        4       27       27       29       37 </v>
   <v type="int" >        4       27       29       29       37 </v>
   <v type="int" >        4       29       29       37       39 </v>
   <v type="int" >        4       27       29       37       37 </v>
   <v type="int" >        4       29       37       37       39 </v>
   <v type="int" >        4       29       37       39       39 </v>
   <v type="int" >        4       26       27       28       37 </v>
   <v type="int" >        4       27       28       29       37 </v>
   <v type="int" >        4       28       29       37       39 </v>
   <v type="int" >        4       26       28       36       37 </v>
   <v type="int" >        4       28       36       37       38 </v>
   <v type="int" >        4       28       37       38       39 </v>
   <v type="int" >        4       25       26       26       36 </v>
   <v type="int" >        4       26       26       28       36 </v>
   <v type="int" >        4       26       28       36       38 </v>
   <v type="int" >        4       25       26       35       36 </v>
   <v type="int" >        4       26       35       36       36 </v>
   <v type="int" >        4       26       36       36       38 </v>
   <v type="int" >        4       22       23       25       35 </v>
   <v type="int" >        4       23       25       26       35 </v>
   <v type="int" >        4       23       26       35       36 </v>
   <v type="int" >        4       22       23       32       35 </v>
   <v type="int" >        4       23       32       33       35 </v>
   <v type="int" >        4       23       33       35       36 </v>
   <v type="int" >        4       22       22       23       32 </v>
   <v type="int" >        4       22       23       23       32 </v>
   <v type="int" >        4       23       23       32       33 </v>
   <v type="int" >        4       22       23       32       32 </v>
   <v type="int" >        4       23       32       32       33 </v>
   <v type="int" >        4       23       32       33       33 </v>
   <v type="int" >        4       28       29       30       38 </v>
   <v type="int" >        4       29       30       38       39 </v>
   <v type="int" >        4       30       38       39       40 </v>
   <v type="int" >        8       29       29       30       39 </v>
   <v type="int" >        4       29       30       30       39 </v>
   <v type="int" >        4       30       30       39       40 </v>
   <v type="int" >        4       29       30       39       39 </v>
   <v type="int" >        4       30       39       39       40 </v>
   <v type="int" >        4       30       39       40       40 </v>
   <v type="int" >        4       28       29       29       39 </v>
   <v type="int" >        4       29       30       39       40 </v>
   <v type="int" >        4       28       29       38       39 </v>
   <v type="int" >        4       29       38       39       39 </v>
   <v type="int" >        8       29       39       39       40 </v>
   <v type="int" >        4       26       27       28       38 </v>
   <v type="int" >        4       27       28       29       38 </v>
   <v type="int" >        4       27       29       38       39 </v>
   <v type="int" >        4       26       27       36       38 </v>
   <v type="int" >        4       27       36       37       38 </v>
   <v type="int" >        4       27       37       38       39 </v>
   <v type="int" >        4       23       24       26       36 </v>
   <v type="int" >        4       24       26       27       36 </v>
   <v type="int" >        4       24       27       36       37 </v>
   <v type="int" >        4       23       24       33       36 </v>
   <v type="int" >        4       24       33       34       36 </v>
   <v type="int" >        4       24       34       36       37 </v>
   <v type="int" >        4       23       23       24       33 </v>
   <v type="int" >        4       23       24       24       33 </v>
   <v type="int" >        4       24       24       33       34 </v>
   <v type="int" >        4       23       24       33       33 </v>
   <v type="int" >        4       24       33       33       34 </v>
   <v type="int" >        4       24       33       34       34 </v>
   <v type="int" >        4       30       30       30       40 </v>
   <v type="int" >        4       30       30       40       40 </v>
   <v type="int" >        4       30       40       40       40 </v>
   <v type="int" >        4       29       29       30       40 </v>
   <v type="int" >        4       29       30       30       40 </v>
   <v type="int" >        4       29       30       40       40 </v>
   <v type="int" >        4       29       29       39       40 </v>
   <v type="int" >        4       29       39       40       40 </v>
   <v type="int" >        4       27       27       29       39 </v>
   <v type="int" >        4       27       29       29       39 </v>
   <v type="int" >        4       27       29       39       39 </v>
   <v type="int" >        4       27       27       37       39 </v>
   <v type="int" >        4       27       37       37       39 </v>
   <v type="int" >        4       27       37       39       39 </v>
   <v type="int" >        4       24       24       27       37 </v>
   <v type="int" >        4       24       27       27       37 </v>
   <v type="int" >        4       24       27       37       37 </v>
   <v type="int" >        4       24       24       34       37 </v>
   <v type="int" >        4       24       34       34       37 </v>
   <v type="int" >        4       24       34       37       37 </v>
   <v type="int" >        8       24       24       24       34 </v>
   <v type="int" >        8       24       24       34       34 </v>
   <v type="int" >        8       24       34       34       34 </v>
   <v type="int" >        4       28       29       30       40 </v>
   <v type="int" >        4       28       29       39       40 </v>
   <v type="int" >        4       28       38       39       40 </v>
   <v type="int" >        4       26       27       29       39 </v>
   <v type="int" >        4       26       28       29       39 </v>
   <v type="int" >        4       26       28       38       39 </v>
   <v type="int" >        4       26       27       37       39 </v>
   <v type="int" >        4       26       36       37       39 </v>
   <v type="int" >        4       26       36       38       39 </v>
   <v type="int" >        4       23       24       27       37 </v>
   <v type="int" >        4       23       26       27       37 </v>
   <v type="int" >        4       23       26       36       37 </v>
   <v type="int" >        4       23       24       34       37 </v>
   <v type="int" >        4       23       33       34       37 </v>
   <v type="int" >        4       23       33       36       37 </v>
   <v type="int" >        4       23       24       24       34 </v>
   <v type="int" >        4       23       23       24       34 </v>
   <v type="int" >        4       23       23       33       34 </v>
   <v type="int" >        4       23       24       34       34 </v>
   <v type="int" >        4       23       33       34       34 </v>
   <v type="int" >        4       23       33       33       34 </v>
   <v type="int" >        4       25       26       28       38 </v>
   <v type="int" >        4       25       26       36       38 </v>
   <v type="int" >        4       25       35       36       38 </v>
   <v type="int" >        4       22       23       26       36 </v>
   <v type="int" >        4       22       25       26       36 </v>
   <v type="int" >        4       22       25       35       36 </v>
   <v type="int" >        4       22       23       33       36 </v>
   <v type="int" >        4       22       32       33       36 </v>
   <v type="int" >        4       22       32       35       36 </v>
   <v type="int" >        4       22       23       23       33 </v>
   <v type="int" >        4       22       22       23       33 </v>
   <v type="int" >        4       22       22       32       33 </v>
   <v type="int" >        4       22       23       33       33 </v>
   <v type="int" >        4       22       32       33       33 </v>
   <v type="int" >        4       22       32       32       33 </v>
   <v type="int" >        4       21       22       25       35 </v>
   <v type="int" >        4       21       22       32       35 </v>
   <v type="int" >        4       21       31       32       35 </v>
   <v type="int" >        4       21       21       22       32 </v>
   <v type="int" >        4       21       21       31       32 </v>
   <v type="int" >        4       21       22       32       32 </v>
   <v type="int" >        4       21       31       32       32 </v>
   <v type="int" >        4       21       31       31       32 </v>
   <v type="int" >        4       21       21       21       31 </v>
   <v type="int" >        4       21       21       31       31 </v>
   <v type="int" >        4       21       31       31       31 </v>
   <v type="int" >        4       31       31       32       35 </v>
   <v type="int" >        4       31       32       32       35 </v>
   <v type="int" >        4       31       32       35       35 </v>
   <v type="int" >        4       32       32       33       36 </v>
   <v type="int" >        4       32       32       35       36 </v>
   <v type="int" >        4       32       35       35       36 </v>
   <v type="int" >        4       32       33       33       36 </v>
   <v type="int" >        4       32       33       36       36 </v>
   <v type="int" >        4       32       35       36       36 </v>
   <v type="int" >        4       33       33       34       37 </v>
   <v type="int" >        4       33       33       36       37 </v>
   <v type="int" >        4       33       36       36       37 </v>
   <v type="int" >        4       33       34       34       37 </v>
   <v type="int" >        4       33       34       37       37 </v>
   <v type="int" >        4       33       36       37       37 </v>
   <v type="int" >        8       34       34       34       37 </v>
   <v type="int" >        8       34       34       37       37 </v>
   <v type="int" >        8       34       37       37       37 </v>
   <v type="int" >        4       33       34       34       36 </v>
   <v type="int" >        4       34       34       36       37 </v>
   <v type="int" >        4       34       36       37       37 </v>
   <v type="int" >        4       33       33       34       36 </v>
   <v type="int" >        4       33       34       36       36 </v>
   <v type="int" >        4       34       36       36       37 </v>
   <v type="int" >        4       32       33       33       35 </v>
   <v type="int" >        4       33       33       35       36 </v>
   <v type="int" >        4       33       35       36       36 </v>
   <v type="int" >        4       32       32       33       35 </v>
   <v type="int" >        4       32       33       35       35 </v>
   <v type="int" >        4       33       35       35       36 </v>
   <v type="int" >       12       31       32       32       32 </v>
   <v type="int" >        4       32       32       32       35 </v>
   <v type="int" >        2       32       32       35       35 </v>
   <v type="int" >       10       31       31       32       32 </v>
   <v type="int" >        8       31       31       31       32 </v>
   <v type="int" >        4       35       35       36       38 </v>
   <v type="int" >        4       35       36       36       38 </v>
   <v type="int" >        4       35       36       38       38 </v>
   <v type="int" >        4       36       36       37       39 </v>
   <v type="int" >        4       36       36       38       39 </v>
   <v type="int" >        4       36       38       38       39 </v>
   <v type="int" >        4       36       37       37       39 </v>
   <v type="int" >        4       36       37       39       39 </v>
   <v type="int" >        4       36       38       39       39 </v>
   <v type="int" >        8       37       37       37       39 </v>
   <v type="int" >        8       37       37       39       39 </v>
   <v type="int" >        8       37       39       39       39 </v>
   <v type="int" >        4       36       37       37       38 </v>
   <v type="int" >        4       37       37       38       39 </v>
   <v type="int" >        4       37       38       39       39 </v>
   <v type="int" >        4       36       36       37       38 </v>
   <v type="int" >        4       36       37       38       38 </v>
   <v type="int" >        4       37       38       38       39 </v>
   <v type="int" >        4       35       36       36       36 </v>
   <v type="int" >        4       36       36       36       38 </v>
   <v type="int" >        2       36       36       38       38 </v>
   <v type="int" >        2       35       35       36       36 </v>
   <v type="int" >        8       32       32       32       33 </v>
   <v type="int" >        8       32       32       33       33 </v>
   <v type="int" >        8       32       33       33       33 </v>
   <v type="int" >        4       38       38       39       40 </v>
   <v type="int" >        4       38       39       39       40 </v>
   <v type="int" >        4       38       39       40       40 </v>
   <v type="int" >       12       39       39       39       40 </v>
   <v type="int" >       10       39       39       40       40 </v>
   <v type="int" >        8       39       40       40       40 </v>
   <v type="int" >        4       38       39       39       39 </v>
   <v type="int" >        2       38       38       39       39 </v>
   <v type="int" >        8       33       33       33       34 </v>
   <v type="int" >        8       33       33       34       34 </v>
   <v type="int" >        8       33       34       34       34 </v>
   <v type="int" >        6       40       40       40       40 </v>
   <v type="int" >       12       34       34       34       34 </v>
   <v type="int" >        6       31       31       31       31 </v>
   <v type="int" >        4        1        1        2        5 </v>
   <v type="int" >        4        1        2        2        5 </v>
   <v type="int" >        4        1        2        5        5 </v>
   <v type="int" >        4        2        2        3        6 </v>
   <v type="int" >        4        2        2        5        6 </v>
   <v type="int" >        4        2        5        5        6 </v>
   <v type="int" >        4        2        3        3        6 </v>
   <v type="int" >        4        2        3        6        6 </v>
   <v type="int" >        4        2        5        6        6 </v>
   <v type="int" >        4        3        3        4        7 </v>
   <v type="int" >        4        3        3        6        7 </v>
   <v type="int" >        4        3        6        6        7 </v>
   <v type="int" >        4        3        4        4        7 </v>
   <v type="int" >        4        3        4        7        7 </v>
   <v type="int" >        4        3        6        7        7 </v>
   <v type="int" >        8        4        4        4        7 </v>
   <v type="int" >        8        4        4        7        7 </v>
   <v type="int" >        8        4        7        7        7 </v>
   <v type="int" >        4        3        4        4        6 </v>
   <v type="int" >        4        4        4        6        7 </v>
   <v type="int" >        4        4        6        7        7 </v>
   <v type="int" >        4        3        3        4        6 </v>
   <v type="int" >        4        3        4        6        6 </v>
   <v type="int" >        4        4        6        6        7 </v>
   <v type="int" >        4        2        3        3        5 </v>
   <v type="int" >        4        3        3        5        6 </v>
   <v type="int" >        4        3        5        6        6 </v>
   <v type="int" >        4        2        2        3        5 </v>
   <v type="int" >        4        2        3        5        5 </v>
   <v type="int" >        4        3        5        5        6 </v>
   <v type="int" >       12        1        2        2        2 </v>
   <v type="int" >        4        2        2        2        5 </v>
   <v type="int" >        2        2        2        5        5 </v>
   <v type="int" >       10        1        1        2        2 </v>
   <v type="int" >        8        1        1        1        2 </v>
   <v type="int" >        4        5        5        6        8 </v>
   <v type="int" >        4        5        6        6        8 </v>
   <v type="int" >        4        5        6        8        8 </v>
   <v type="int" >        4        6        6        7        9 </v>
   <v type="int" >        4        6        6        8        9 </v>
   <v type="int" >        4        6        8        8        9 </v>
   <v type="int" >        4        6        7        7        9 </v>
   <v type="int" >        4        6        7        9        9 </v>
   <v type="int" >        4        6        8        9        9 </v>
   <v type="int" >        8        7        7        7        9 </v>
   <v type="int" >        8        7        7        9        9 </v>
   <v type="int" >        8        7        9        9        9 </v>
   <v type="int" >        4        6        7        7        8 </v>
   <v type="int" >        4        7        7        8        9 </v>
   <v type="int" >        4        7        8        9        9 </v>
   <v type="int" >        4        6        6        7        8 </v>
   <v type="int" >        4        6        7        8        8 </v>
   <v type="int" >        4        7        8        8        9 </v>
   <v type="int" >        4        5        6        6        6 </v>
   <v type="int" >        4        6        6        6        8 </v>
   <v type="int" >        2        6        6        8        8 </v>
   <v type="int" >        2        5        5        6        6 </v>
   <v type="int" >        8        2        2        2        3 </v>
   <v type="int" >        8        2        2        3        3 </v>
   <v type="int" >        8        2        3        3        3 </v>
   <v type="int" >        4        8        8        9       10 </v>
   <v type="int" >        4        8        9        9       10 </v>
   <v type="int" >        4        8        9       10       10 </v>
   <v type="int" >       12        9        9        9       10 </v>
   <v type="int" >       10        9        9       10       10 </v>
   <v type="int" >        8        9       10       10       10 </v>
   <v type="int" >        4        8        9        9        9 </v>
   <v type="int" >        2        8        8        9        9 </v>
   <v type="int" >        8        3        3        3        4 </v>
   <v type="int" >        8        3        3        4        4 </v>
   <v type="int" >        8        3        4        4        4 </v>
   <v type="int" >        6       10       10       10       10 </v>
   <v type="int" >       12        4        4        4        4 </v>
   <v type="int" >        6        1        1        1        1 </v>
  </varray>
  <i name="volumeweight">      0.00032552 </i>
 </kpoints>
 <parameters>
  <separator name="general" >
   <i type="string" name="SYSTEM">unknown system</i>
   <i type="logical" name="LCOMPAT"> F  </i>
  </separator>
  <separator name="electronic" >
   <i type="string" name="PREC">accura</i>
   <i name="ENMAX">    520.00000000</i>
   <i name="ENAUG">    605.39200000</i>
   <i name="EDIFF">      0.00025000</i>
   <i type="int" name="IALGO">    38</i>
   <i type="int" name="IWAVPR">    10</i>
   <i type="int" name="NBANDS">    32</i>
   <i name="NELECT">     38.00000000</i>
   <i type="int" name="TURBO">     0</i>
   <i type="int" name="IRESTART">     0</i>
   <i type="int" name="NREBOOT">     0</i>
   <i type="int" name="NMIN">     0</i>
   <i name="EREF">      0.00000000</i>
   <separator name="electronic smearing" >
    <i type="int" name="ISMEAR">    -5</i>
    <i name="SIGMA">      0.05000000</i>
    <i name="KSPACING">      0.50000000</i>
    <i type="logical" name="KGAMMA"> T  </i>
   </separator>
   <separator name="electronic projectors" >
    <i type="logical" name="LREAL"> T  </i>
    <v name="ROPT">     -0.00025000     -0.00025000     -0.00025000</v>
    <i type="int" name="LMAXPAW">  -100</i>
    <i type="int" name="LMAXMIX">     2</i>
    <i type="logical" name="NLSPLINE"> F  </i>
   </separator>
   <separator name="electronic startup" >
    <i type="int" name="ISTART">     0</i>
    <i type="int" name="ICHARG">     0</i>
    <i type="int" name="INIWAV">     1</i>
   </separator>
   <separator name="electronic spin" >
    <i type="int" name="ISPIN">     2</i>
    <i type="logical" name="LNONCOLLINEAR"> F  </i>
    <v name="MAGMOM">      0.60000000      0.60000000      0.60000000      0.60000000      0.60000000</v>
    <i name="NUPDOWN">     -1.00000000</i>
    <i type="logical" name="LSORBIT"> F  </i>
    <v name="SAXIS">      0.00000000      0.00000000      1.00000000</v>
    <i type="logical" name="LSPIRAL"> F  </i>
    <v name="QSPIRAL">      0.00000000      0.00000000      0.00000000</v>
    <i type="logical" name="LZEROZ"> F  </i>
   </separator>
   <separator name="electronic exchange-correlation" >
    <i type="logical" name="LASPH"> F  </i>
    <i type="logical" name="LMETAGGA"> F  </i>
   </separator>
   <separator name="electronic convergence" >
    <i type="int" name="NELM">   100</i>
    <i type="int" name="NELMDL">    -5</i>
    <i type="int" name="NELMIN">     2</i>
    <i name="ENINI">    520.00000000</i>
    <separator name="electronic convergence detail" >
     <i type="logical" name="LDIAG"> T  </i>
     <i type="logical" name="LSUBROT"> F  </i>
     <i name="WEIMIN">      0.00000000</i>
     <i name="EBREAK">      0.00000195</i>
     <i name="DEPER">      0.30000000</i>
     <i type="int" name="NRMM">     4</i>
     <i name="TIME">      0.40000000</i>
    </separator>
   </separator>
   <separator name="electronic mixer" >
    <i name="AMIX">      0.40000000</i>
    <i name="BMIX">      1.00000000</i>
    <i name="AMIN">      0.10000000</i>
    <i name="AMIX_MAG">      1.60000000</i>
    <i name="BMIX_MAG">      1.00000000</i>
    <separator name="electronic mixer details" >
     <i type="int" name="IMIX">     4</i>
     <i type="int" name="MAXMIX">   -45</i>
     <i name="WC">    100.00000000</i>
     <i type="int" name="INIMIX">     1</i>
     <i type="int" name="MIXPRE">     1</i>
     <i type="int" name="MREMOVE">     5</i>
    </separator>
   </separator>
   <separator name="electronic dipolcorrection" >
    <i type="logical" name="LDIPOL"> F  </i>
    <i type="logical" name="LMONO"> F  </i>
    <i type="int" name="IDIPOL">     0</i>
    <i name="EPSILON">      1.00000000</i>
    <v name="DIPOL">   -100.00000000   -100.00000000   -100.00000000</v>
    <i name="EFIELD">      0.00000000</i>
   </separator>
  </separator>
  <separator name="grids" >
   <i type="int" name="NGX">    30</i>
   <i type="int" name="NGY">    30</i>
   <i type="int" name="NGZ">    32</i>
   <i type="int" name="NGXF">    60</i>
   <i type="int" name="NGYF">    60</i>
   <i type="int" name="NGZF">    64</i>
   <i type="logical" name="ADDGRID"> F  </i>
  </separator>
  <separator name="ionic" >
   <i type="int" name="NSW">     0</i>
   <i type="int" name="IBRION">    -1</i>
   <i type="int" name="ISIF">     3</i>
   <i name="PSTRESS">      0.00000000</i>
   <i name="EDIFFG">      0.00250000</i>
   <i type="int" name="NFREE">     0</i>
   <i name="POTIM">      0.50000000</i>
   <i name="SMASS">     -3.00000000</i>
   <i name="SCALEE">      1.00000000</i>
  </separator>
  <separator name="ionic md" >
   <i name="TEBEG">      0.00010000</i>
   <i name="TEEND">      0.00010000</i>
   <i type="int" name="NBLOCK">     1</i>
   <i type="int" name="KBLOCK">     1</i>
   <i type="int" name="NPACO">   256</i>
   <i name="APACO">     16.00000000</i>
  </separator>
  <separator name="symmetry" >
   <i type="int" name="ISYM">     2</i>
   <i name="SYMPREC">      0.00001000</i>
  </separator>
  <separator name="dos" >
   <i type="logical" name="LORBIT"> F  </i>
   <v name="RWIGS">     -1.00000000     -1.00000000     -1.00000000</v>
   <i type="int" name="NEDOS">   301</i>
   <i name="EMIN">     10.00000000</i>
   <i name="EMAX">    -10.00000000</i>
   <i name="EFERMI">      0.00000000</i>
  </separator>
  <separator name="writing" >
   <i type="int" name="NWRITE">     2</i>
   <i type="logical" name="LWAVE"> T  </i>
   <i type="logical" name="LCHARG"> T  </i>
   <i type="logical" name="LPARD"> F  </i>
   <i type="logical" name="LVTOT"> F  </i>
   <i type="logical" name="LVHAR"> T  </i>
   <i type="logical" name="LELF"> F  </i>
   <i type="logical" name="LOPTICS"> F  </i>
   <v name="STM">      0.00000000      0.00000000      0.00000000      0.00000000      0.00000000      0.00000000      0.00000000</v>
  </separator>
  <separator name="performance" >
   <i type="int" name="NPAR">     8</i>
   <i type="int" name="NSIM">     4</i>
   <i type="int" name="NBLK">    -1</i>
   <i type="logical" name="LPLANE"> T  </i>
   <i type="logical" name="LSCALAPACK"> T  </i>
   <i type="logical" name="LSCAAWARE"> F  </i>
   <i type="logical" name="LSCALU"> F  </i>
   <i type="logical" name="LASYNC"> F  </i>
   <i type="logical" name="LORBITALREAL"> F  </i>
  </separator>
  <separator name="miscellaneous" >
   <i type="int" name="IDIOT">     3</i>
   <i type="logical" name="LMUSIC"> F  </i>
   <v name="POMASS">    137.32700000     47.88000000     16.00000000</v>
   <v name="DARWINR">      0.00000000      0.00000000      0.00000000</v>
   <v name="DARWINV">      1.00000000      1.00000000      1.00000000</v>
   <i type="logical" name="LCORR"> T  </i>
  </separator>
  <i type="logical" name="GGA_COMPAT"> T  </i>
  <i type="logical" name="LBERRY"> F  </i>
  <i type="int" name="ICORELEVEL">     0</i>
  <i type="logical" name="LDAU"> F  </i>
  <i type="int" name="I_CONSTRAINED_M">     0</i>
  <separator name="electronic exchange-correlation" >
   <i type="string" name="GGA">--</i>
   <i type="int" name="VOSKOWN">     0</i>
   <i type="logical" name="LHFCALC"> F  </i>
   <i type="string" name="PRECFOCK"></i>
   <i type="logical" name="LSYMGRAD"> F  </i>
   <i type="logical" name="LHFONE"> F  </i>
   <i type="logical" name="LRHFCALC"> F  </i>
   <i type="logical" name="LTHOMAS"> F  </i>
   <i type="logical" name="LMODELHF"> F  </i>
   <i name="ENCUT4O">     -1.00000000</i>
   <i type="int" name="EXXOEP">     0</i>
   <i type="int" name="FOURORBIT">     0</i>
   <i name="AEXX">      0.00000000</i>
   <i name="HFALPHA">      0.00000000</i>
   <i name="MCALPHA">      0.00000000</i>
   <i name="ALDAX">      1.00000000</i>
   <i name="AGGAX">      1.00000000</i>
   <i name="ALDAC">      1.00000000</i>
   <i name="AGGAC">      1.00000000</i>
   <i type="int" name="NKREDX">     1</i>
   <i type="int" name="NKREDY">     1</i>
   <i type="int" name="NKREDZ">     1</i>
   <i type="logical" name="SHIFTRED"> F  </i>
   <i type="logical" name="ODDONLY"> F  </i>
   <i type="logical" name="EVENONLY"> F  </i>
   <i type="int" name="LMAXFOCK">     0</i>
   <i type="int" name="NMAXFOCKAE">     0</i>
   <i type="logical" name="LFOCKAEDFT"> F  </i>
   <i name="HFSCREEN">      0.00000000</i>
   <i name="HFSCREENC">      0.00000000</i>
   <i type="int" name="NBANDSGWLOW">     0</i>
  </separator>
  <separator name="vdW DFT" >
   <i type="logical" name="LUSE_VDW"> F  </i>
   <i name="Zab_VDW">     -0.84910000</i>
   <i name="PARAM1">      0.12340000</i>
   <i name="PARAM2">      1.00000000</i>
   <i name="PARAM3">      0.00000000</i>
  </separator>
  <separator name="model GW" >
   <i type="int" name="MODEL_GW">     0</i>
   <i name="MODEL_EPS0">      7.99975053</i>
   <i name="MODEL_ALPHA">      1.00000000</i>
  </separator>
  <separator name="linear response parameters" >
   <i type="logical" name="LEPSILON"> F  </i>
   <i type="logical" name="LRPA"> F  </i>
   <i type="logical" name="LNABLA"> F  </i>
   <i type="logical" name="LVEL"> F  </i>
   <i type="int" name="KINTER">     0</i>
   <i name="CSHIFT">      0.10000000</i>
   <i name="OMEGAMAX">     -1.00000000</i>
   <i name="DEG_THRESHOLD">      0.00200000</i>
  </separator>
  <separator name="orbital magnetization" >
   <i type="logical" name="NUCIND"> F  </i>
   <v name="MAGPOS">      0.00000000      0.00000000      0.00000000</v>
   <i type="logical" name="LNICSALL"> T  </i>
   <i type="logical" name="ORBITALMAG"> F  </i>
   <i type="logical" name="LMAGBLOCH"> F  </i>
   <i type="logical" name="LCHIMAG"> F  </i>
   <i type="logical" name="LGAUGE"> T  </i>
   <i type="int" name="MAGATOM">     0</i>
   <v name="MAGDIPOL">      0.00000000      0.00000000      0.00000000</v>
   <v name="AVECCONST">      0.00000000      0.00000000      0.00000000</v>
  </separator>
  <separator name="response functions" >
   <i type="logical" name="LADDER"> F  </i>
   <i type="logical" name="LFXC"> F  </i>
   <i type="logical" name="LHARTREE"> T  </i>
   <i type="int" name="IBSE">     0</i>
   <i type="logical" name="LTCTE"> F  </i>
   <i type="logical" name="LTETE"> F  </i>
   <i type="logical" name="LTRIPLET"> F  </i>
   <i type="logical" name="LFXCEPS"> F  </i>
   <i type="logical" name="LFXHEG"> F  </i>
   <i type="logical" name="L2ORDER"> F  </i>
   <i type="logical" name="LUSEW"> F  </i>
   <i name="ENCUTGW">     -2.00000000</i>
   <i name="ENCUTGWSOFT">     -2.00000000</i>
   <i name="ENCUTLF">     -1.00000000</i>
   <i type="int" name="LMAXMP2">    -1</i>
   <i name="SCISSOR">      0.00000000</i>
   <i type="int" name="NOMEGA">     0</i>
   <i type="int" name="NOMEGAR">     0</i>
   <i type="int" name="NBANDSGW">    -1</i>
   <i type="int" name="NBANDSO">    -1</i>
   <i type="int" name="NBANDSV">    -1</i>
   <i type="int" name="NELM">   100</i>
   <i type="int" name="DIM">     3</i>
   <i type="int" name="ANTIRES">     0</i>
   <i name="OMEGAMAX">    -30.00000000</i>
   <i name="OMEGAMIN">    -30.00000000</i>
   <i name="OMEGATL">   -200.00000000</i>
   <i type="int" name="OMEGAGRID">     0</i>
   <i name="CSHIFT">     -0.10000000</i>
   <i type="logical" name="SELFENERGY"> F  </i>
   <i type="logical" name="LSPECTRAL"> F  </i>
   <i type="logical" name="ODDONLYGW"> F  </i>
   <i type="logical" name="EVENONLYGW"> F  </i>
   <i type="int" name="NKREDLFX">     1</i>
   <i type="int" name="NKREDLFY">     1</i>
   <i type="int" name="NKREDLFZ">     1</i>
   <i type="int" name="MAXMEM">  1800</i>
   <i type="int" name="TELESCOPE">     0</i>
   <i type="int" name="TAUPAR">     1</i>
  </separator>
  <separator name="External order field" >
   <i name="OFIELD_KAPPA">      0.00000000</i>
   <v name="OFIELD_K">      0.00000000      0.00000000      0.00000000</v>
   <i name="OFIELD_Q6_NEAR">      0.00000000</i>
   <i name="OFIELD_Q6_FAR">      0.00000000</i>
   <i name="OFIELD_A">      0.00000000</i>
  </separator>
 </parameters>
 <atominfo>
  <atoms>       5 </atoms>
  <types>       3 </types>
  <array name="atoms" >
   <dimension dim="1">ion</dimension>
   <field type="string">element</field>
   <field type="int">atomtype</field>
   <set>
    <rc><c>Ba</c><c>   1</c></rc>
    <rc><c>Ti</c><c>   2</c></rc>
    <rc><c>O </c><c>   3</c></rc>
    <rc><c>O </c><c>   3</c></rc>
    <rc><c>O </c><c>   3</c></rc>
   </set>
  </array>
  <array name="atomtypes" >
   <dimension dim="1">type</dimension>
   <field type="int">atomspertype</field>
   <field type="string">element</field>
   <field>mass</field>
   <field>valence</field>
   <field type="string">pseudopotential</field>
   <set>
    <rc><c>   1</c><c>Ba</c><c>    137.32700000</c><c>     10.00000000</c><c>  PAW_PBE Ba_sv 06Sep2000               </c></rc>
    <rc><c>   1</c><c>Ti</c><c>     47.88000000</c><c>     10.00000000</c><c>  PAW_PBE Ti_pv 07Sep2000               </c></rc>
    <rc><c>   3</c><c>O </c><c>     16.00000000</c><c>      6.00000000</c><c>  PAW_PBE O 08Apr2002                   </c></rc>
   </set>
  </array>
 </atominfo>
 <structure name="initialpos" >
  <crystal>
   <varray name="basis" >
    <v>       4.01544600       0.00000000       0.00000000 </v>
    <v>       0.00000000       4.01544600       0.00000000 </v>
    <v>       0.00000000       0.00000000       4.13454400 </v>
   </varray>
   <i name="volume">     66.66458775 </i>
   <varray name="rec_basis" >
    <v>       0.24903834       0.00000000       0.00000000 </v>
    <v>       0.00000000       0.24903834       0.00000000 </v>
    <v>       0.00000000       0.00000000       0.24186464 </v>
   </varray>
  </crystal>
  <varray name="positions" >
   <v>       0.00000000       0.00000000       0.01250700 </v>
   <v>       0.50000000       0.50000000       0.52282900 </v>
   <v>       0.00000000       0.50000000       0.49681200 </v>
   <v>       0.50000000       0.00000000       0.49681200 </v>
   <v>       0.50000000       0.50000000       0.98503800 </v>
  </varray>
 </structure>
 <calculation>
  <scstep>
   <time name="dav">   10.18   10.21</time>
   <time name="total">   10.76   11.41</time>
   <energy>
    <i name="alphaZ">    251.35142885 </i>
    <i name="ewald">  -2489.45882261 </i>
    <i name="hartreedc">    -60.67934627 </i>
    <i name="XCdc">    115.19299644 </i>
    <i name="pawpsdc"> 110609.01800899 </i>
    <i name="pawaedc">-110608.65779553 </i>
    <i name="eentropy">      0.00000000 </i>
    <i name="bandstr">  -1743.53181214 </i>
    <i name="atom">   3040.52701931 </i>
    <i name="e_fr_energy">   -886.23832297 </i>
    <i name="e_wo_entrp">   -886.23832297 </i>
    <i name="e_0_energy">   -886.23832297 </i>
   </energy>
  </scstep>
  <scstep>
   <time name="dav">    8.93    8.93</time>
   <time name="total">    8.95    8.96</time>
   <energy>
    <i name="e_fr_energy">  -1303.65735249 </i>
    <i name="e_wo_entrp">  -1303.65735249 </i>
    <i name="e_0_energy">  -1303.65735249 </i>
   </energy>
  </scstep>
  <scstep>
   <time name="dav">   10.15   10.15</time>
   <time name="total">   10.16   10.17</time>
   <energy>
    <i name="e_fr_energy">  -1329.50798298 </i>
    <i name="e_wo_entrp">  -1329.50798298 </i>
    <i name="e_0_energy">  -1329.50798298 </i>
   </energy>
  </scstep>
  <scstep>
   <time name="dav">   11.27   11.27</time>
   <time name="total">   11.34   11.34</time>
   <energy>
    <i name="e_fr_energy">  -1330.33563023 </i>
    <i name="e_wo_entrp">  -1330.33563023 </i>
    <i name="e_0_energy">  -1330.33563023 </i>
   </energy>
  </scstep>
  <scstep>
   <time name="dav">   12.20   12.20</time>
   <time name="total">   12.68   12.69</time>
   <energy>
    <i name="e_fr_energy">  -1330.36360495 </i>
    <i name="e_wo_entrp">  -1330.36360495 </i>
    <i name="e_0_energy">  -1330.36360495 </i>
   </energy>
  </scstep>
  <scstep>
   <time name="dav">   13.55   13.55</time>
   <time name="total">   14.15   14.16</time>
   <energy>
    <i name="e_fr_energy">   -239.75028639 </i>
    <i name="e_wo_entrp">   -239.75028639 </i>
    <i name="e_0_energy">   -239.75028639 </i>
   </energy>
  </scstep>
  <scstep>
   <time name="dav">   10.49   10.48</time>
   <time name="total">   11.07   11.08</time>
   <energy>
    <i name="e_fr_energy">    -88.16055294 </i>
    <i name="e_wo_entrp">    -88.16055294 </i>
    <i name="e_0_energy">    -88.16055294 </i>
   </energy>
  </scstep>
  <scstep>
   <time name="dav">   10.51   10.51</time>
   <time name="total">   11.18   11.18</time>
   <energy>
    <i name="e_fr_energy">    -60.45381273 </i>
    <i name="e_wo_entrp">    -60.45381273 </i>
    <i name="e_0_energy">    -60.45381273 </i>
   </energy>
  </scstep>
  <scstep>
   <time name="dav">   10.70   10.70</time>
   <time name="total">   11.36   11.42</time>
   <energy>
    <i name="e_fr_energy">    -56.77654244 </i>
    <i name="e_wo_entrp">    -56.77654244 </i>
    <i name="e_0_energy">    -56.77654244 </i>
   </energy>
  </scstep>
  <scstep>
   <time name="dav">    9.80    9.80</time>
   <time name="total">   10.46   10.46</time>
   <energy>
    <i name="e_fr_energy">    -65.58504554 </i>
    <i name="e_wo_entrp">    -65.58504554 </i>
    <i name="e_0_energy">    -65.58504554 </i>
   </energy>
  </scstep>
  <scstep>
   <time name="dav">   11.47   11.47</time>
   <time name="total">   12.13   12.13</time>
   <energy>
    <i name="e_fr_energy">    -57.00621668 </i>
    <i name="e_wo_entrp">    -57.00621668 </i>
    <i name="e_0_energy">    -57.00621668 </i>
   </energy>
  </scstep>
  <scstep>
   <time name="dav">   11.29   11.29</time>
   <time name="total">   11.96   11.96</time>
   <energy>
    <i name="e_fr_energy">    -76.87128782 </i>
    <i name="e_wo_entrp">    -76.87128782 </i>
    <i name="e_0_energy">    -76.87128782 </i>
   </energy>
  </scstep>
  <scstep>
   <time name="dav">   10.04   10.04</time>
   <time name="total">   10.69   10.69</time>
   <energy>
    <i name="e_fr_energy">    -47.55148795 </i>
    <i name="e_wo_entrp">    -47.55148795 </i>
    <i name="e_0_energy">    -47.55148795 </i>
   </energy>
  </scstep>
  <scstep>
   <time name="dav">   11.14   11.13</time>
   <time name="total">   11.73   11.72</time>
   <energy>
    <i name="e_fr_energy">    -44.09957970 </i>
    <i name="e_wo_entrp">    -44.09957970 </i>
    <i name="e_0_energy">    -44.09957970 </i>
   </energy>
  </scstep>
  <scstep>
   <time name="dav">    9.69    9.68</time>
   <time name="total">   10.27   10.28</time>
   <energy>
    <i name="e_fr_energy">    -41.35938444 </i>
    <i name="e_wo_entrp">    -41.35938444 </i>
    <i name="e_0_energy">    -41.35938444 </i>
   </energy>
  </scstep>
  <scstep>
   <time name="dav">   10.98   10.97</time>
   <time name="total">   11.57   11.57</time>
   <energy>
    <i name="e_fr_energy">    -40.37810087 </i>
    <i name="e_wo_entrp">    -40.37810087 </i>
    <i name="e_0_energy">    -40.37810087 </i>
   </energy>
  </scstep>
  <scstep>
   <time name="dav">   10.95   10.95</time>
   <time name="total">   11.54   11.53</time>
   <energy>
    <i name="e_fr_energy">    -40.27264433 </i>
    <i name="e_wo_entrp">    -40.27264433 </i>
    <i name="e_0_energy">    -40.27264433 </i>
   </energy>
  </scstep>
  <scstep>
   <time name="dav">   10.24   10.24</time>
   <time name="total">   10.83   10.83</time>
   <energy>
    <i name="e_fr_energy">    -40.03843497 </i>
    <i name="e_wo_entrp">    -40.03843497 </i>
    <i name="e_0_energy">    -40.03843497 </i>
   </energy>
  </scstep>
  <scstep>
   <time name="dav">   10.24   10.24</time>
   <time name="total">   10.83   10.83</time>
   <energy>
    <i name="e_fr_energy">    -40.04538915 </i>
    <i name="e_wo_entrp">    -40.04538915 </i>
    <i name="e_0_energy">    -40.04538915 </i>
   </energy>
  </scstep>
  <scstep>
   <time name="dav">    9.89    9.95</time>
   <time name="total">   10.48   10.55</time>
   <energy>
    <i name="e_fr_energy">    -40.03972761 </i>
    <i name="e_wo_entrp">    -40.03972761 </i>
    <i name="e_0_energy">    -40.03972761 </i>
   </energy>
  </scstep>
  <scstep>
   <time name="dav">   10.91   10.90</time>
   <time name="total">   11.49   11.50</time>
   <energy>
    <i name="e_fr_energy">    -39.99514674 </i>
    <i name="e_wo_entrp">    -39.99514674 </i>
    <i name="e_0_energy">    -39.99514674 </i>
   </energy>
  </scstep>
  <scstep>
   <time name="dav">   10.93   10.92</time>
   <time name="total">   11.52   11.52</time>
   <energy>
    <i name="e_fr_energy">    -39.92884027 </i>
    <i name="e_wo_entrp">    -39.92884027 </i>
    <i name="e_0_energy">    -39.92884027 </i>
   </energy>
  </scstep>
  <scstep>
   <time name="dav">   11.47   11.46</time>
   <time name="total">   12.06   12.07</time>
   <energy>
    <i name="e_fr_energy">    -39.92186565 </i>
    <i name="e_wo_entrp">    -39.92186565 </i>
    <i name="e_0_energy">    -39.92186565 </i>
   </energy>
  </scstep>
  <scstep>
   <time name="dav">    9.05    9.04</time>
   <time name="total">    9.64    9.64</time>
   <energy>
    <i name="e_fr_energy">    -39.92041012 </i>
    <i name="e_wo_entrp">    -39.92041012 </i>
    <i name="e_0_energy">    -39.92041012 </i>
   </energy>
  </scstep>
  <scstep>
   <time name="dav">   10.06   10.09</time>
   <time name="total">   10.66   11.35</time>
   <energy>
    <i name="e_fr_energy">    -39.91735400 </i>
    <i name="e_wo_entrp">    -39.91735400 </i>
    <i name="e_0_energy">    -39.91735400 </i>
   </energy>
  </scstep>
  <scstep>
   <time name="dav">    9.23    9.26</time>
   <time name="total">    9.82    9.85</time>
   <energy>
    <i name="e_fr_energy">    -39.91535000 </i>
    <i name="e_wo_entrp">    -39.91535000 </i>
    <i name="e_0_energy">    -39.91535000 </i>
   </energy>
  </scstep>
  <scstep>
   <time name="dav">    7.68    7.70</time>
   <time name="total">    8.41    8.44</time>
   <energy>
    <i name="e_fr_energy">    -39.91473056 </i>
    <i name="e_wo_entrp">    -39.91473056 </i>
    <i name="e_0_energy">    -39.91473056 </i>
   </energy>
  </scstep>
  <scstep>
   <time name="dav">    8.33    8.36</time>
   <time name="total">    8.91    8.96</time>
   <energy>
    <i name="e_fr_energy">    -39.91399058 </i>
    <i name="e_wo_entrp">    -39.91399058 </i>
    <i name="e_0_energy">    -39.91399058 </i>
   </energy>
  </scstep>
  <scstep>
   <time name="dav">    8.85    8.88</time>
   <time name="total">    9.44    9.47</time>
   <energy>
    <i name="e_fr_energy">    -39.91358952 </i>
    <i name="e_wo_entrp">    -39.91358952 </i>
    <i name="e_0_energy">    -39.91358952 </i>
   </energy>
  </scstep>
  <scstep>
   <time name="dav">    6.09    6.11</time>
   <time name="total">    6.22    6.24</time>
   <energy>
    <i name="alphaZ">    251.35142885 </i>
    <i name="ewald">  -2489.45882261 </i>
    <i name="hartreedc">   -647.48057623 </i>
    <i name="XCdc">    146.49769654 </i>
    <i name="pawpsdc">   3582.44022639 </i>
    <i name="pawaedc">  -3591.73326857 </i>
    <i name="eentropy">      0.00000000 </i>
    <i name="bandstr">   -332.05725492 </i>
    <i name="atom">   3040.52701931 </i>
    <i name="e_fr_energy">    -39.91355125 </i>
    <i name="e_wo_entrp">    -39.91355125 </i>
    <i name="e_0_energy">    -39.91355125 </i>
   </energy>
  </scstep>
  <structure>
   <crystal>
    <varray name="basis" >
     <v>       4.01544600       0.00000000       0.00000000 </v>
     <v>       0.00000000       4.01544600       0.00000000 </v>
     <v>       0.00000000       0.00000000       4.13454400 </v>
    </varray>
    <i name="volume">     66.66458775 </i>
    <varray name="rec_basis" >
     <v>       0.24903834       0.00000000       0.00000000 </v>
     <v>       0.00000000       0.24903834       0.00000000 </v>
     <v>       0.00000000       0.00000000       0.24186464 </v>
    </varray>
   </crystal>
   <varray name="positions" >
    <v>       0.00000000       0.00000000       0.01250700 </v>
    <v>       0.50000000       0.50000000       0.52282900 </v>
    <v>       0.00000000       0.50000000       0.49681200 </v>
    <v>       0.50000000       0.00000000       0.49681200 </v>
    <v>       0.50000000       0.50000000       0.98503800 </v>
   </varray>
  </structure>
  <varray name="forces" >
   <v>      -0.00000000      -0.00000000      -0.05123406 </v>
   <v>      -0.00000000       0.00000000       0.51836029 </v>
   <v>      -0.00000000      -0.00000000      -0.05041052 </v>
   <v>       0.00000000      -0.00000000      -0.05041052 </v>
   <v>      -0.00000000       0.00000000      -0.36630520 </v>
  </varray>
  <varray name="stress" >
   <v>      -2.30745308       0.00000000       0.00000000 </v>
   <v>       0.00000000      -2.30745308       0.00000000 </v>
   <v>       0.00000000       0.00000000     -25.78456995 </v>
  </varray>
  <energy>
   <i name="e_fr_energy">    -39.91355125 </i>
   <i name="e_wo_entrp">    -39.91355125 </i>
   <i name="e_0_energy">      0.00000000 </i>
  </energy>
  <time name="totalsc">  334.78  339.89</time>
  <eigenvalues>
   <array>
    <dimension dim="1">band</dimension>
    <dimension dim="2">kpoint</dimension>
    <dimension dim="3">spin</dimension>
    <field>eigene</field>
    <field>occ</field>
    <set>
     <set comment="spin 1">
      <set comment="kpoint 1">
       <r>  -30.0496    1.0000 </r>
       <r>  -30.0074    1.0000 </r>
       <r>  -30.0073    1.0000 </r>
       <r>  -22.0202    1.0000 </r>
       <r>  -13.9138    1.0000 </r>
       <r>  -13.2349    1.0000 </r>
       <r>  -13.2155    1.0000 </r>
       <r>   -7.2147    1.0000 </r>
       <r>   -7.1743    1.0000 </r>
       <r>   -7.1216    1.0000 </r>
       <r>    0.4396    1.0000 </r>
       <r>    0.5417    1.0000 </r>
       <r>    0.5745    1.0000 </r>
       <r>    1.5680    1.0000 </r>
       <r>    1.5713    1.0000 </r>
       <r>    1.8551    1.0000 </r>
       <r>    2.2749    1.0000 </r>
       <r>    2.5455    1.0000 </r>
       <r>    2.5639    1.0000 </r>
       <r>    4.8334    0.0000 </r>
       <r>    4.9853    0.0000 </r>
[...]
        <r>  0.0458  0.0258  0.0012  0.0137  0.0000  0.0000  0.0000  0.0000  0.0000 </r>
        <r>  0.0001  0.0129  0.0003  0.0084  0.0000  0.0000  0.0000  0.0000  0.0000 </r>
        <r>  0.0022  0.0012  0.0039  0.0023  0.0000  0.0000  0.0000  0.0000  0.0000 </r>
       </set>
       <set comment="band 27">
        <r>  0.0008  0.0002  0.0000  0.0032  0.3770  0.0040  0.0070  0.0175  0.0002 </r>
        <r>  0.0003  0.0007  0.0061  0.0003  0.0004  0.0090  0.1441  0.0006  0.0384 </r>
        <r>  0.0002  0.0003  0.0012  0.0472  0.0000  0.0000  0.0000  0.0000  0.0000 </r>
        <r>  0.0021  0.0013  0.0048  0.0002  0.0000  0.0000  0.0000  0.0000  0.0000 </r>
        <r>  0.0419  0.0255  0.0234  0.0007  0.0000  0.0000  0.0000  0.0000  0.0000 </r>
       </set>
       <set comment="band 28">
        <r>  0.0004  0.0030  0.0002  0.0002  0.0033  0.0020  0.2073  0.0008  0.4412 </r>
        <r>  0.0000  0.0000  0.0002  0.0002  0.0003  0.0002  0.0002  0.0021  0.0000 </r>
        <r>  0.0000  0.0002  0.0316  0.0001  0.0000  0.0000  0.0000  0.0000  0.0000 </r>
        <r>  0.0000  0.0001  0.0038  0.0044  0.0000  0.0000  0.0000  0.0000  0.0000 </r>
        <r>  0.0001  0.0001  0.0000  0.0429  0.0000  0.0000  0.0000  0.0000  0.0000 </r>
       </set>
       <set comment="band 29">
        <r>  0.0030  0.0000  0.0006  0.0013  0.0025  0.0043  0.5175  0.0000  0.2269 </r>
        <r>  0.0000  0.0000  0.0002  0.0002  0.0002  0.0001  0.0001  0.0000  0.0000 </r>
        <r>  0.0000  0.0077  0.0119  0.0001  0.0000  0.0000  0.0000  0.0000  0.0000 </r>
        <r>  0.0000  0.0000  0.0028  0.0032  0.0000  0.0000  0.0000  0.0000  0.0000 </r>
        <r>  0.0000  0.0069  0.0001  0.0024  0.0000  0.0000  0.0000  0.0000  0.0000 </r>
       </set>
       <set comment="band 30">
        <r>  0.3924  0.0000  0.0030  0.0024  0.0040  0.0029  0.0009  0.0007  0.0164 </r>
        <r>  0.0000  0.0000  0.0000  0.0000  0.0027  0.0011  0.0000  0.0063  0.0000 </r>
        <r>  0.0003  0.0066  0.0267  0.0000  0.0000  0.0000  0.0000  0.0000  0.0000 </r>
        <r>  0.0001  0.0001  0.0125  0.0081  0.0000  0.0000  0.0000  0.0000  0.0000 </r>
        <r>  0.0004  0.0118  0.0000  0.0315  0.0000  0.0000  0.0000  0.0000  0.0000 </r>
       </set>
       <set comment="band 31">
        <r>  0.0114  0.0026  0.0537  0.0516  0.0116  0.0117  0.0152  0.0080  0.0061 </r>
        <r>  0.0003  0.0125  0.0091  0.0088  0.0012  0.0013  0.0002  0.0002  0.0000 </r>
        <r>  0.0057  0.0325  0.0003  0.0024  0.0000  0.0000  0.0000  0.0000  0.0000 </r>
        <r>  0.0024  0.0062  0.0373  0.0471  0.0000  0.0000  0.0000  0.0000  0.0000 </r>
        <r>  0.0047  0.0266  0.0028  0.0001  0.0000  0.0000  0.0000  0.0000  0.0000 </r>
       </set>
       <set comment="band 32">
        <r>  0.0268  0.0003  0.0480  0.0553  0.0089  0.0073  0.0179  0.0012  0.0172 </r>
        <r>  0.0007  0.0022  0.0065  0.0026  0.0011  0.0011  0.0008  0.0007  0.0001 </r>
        <r>  0.0038  0.0301  0.0002  0.0009  0.0000  0.0000  0.0000  0.0000  0.0000 </r>
        <r>  0.0002  0.0020  0.0398  0.0482  0.0000  0.0000  0.0000  0.0000  0.0000 </r>
        <r>  0.0040  0.0271  0.0011  0.0011  0.0000  0.0000  0.0000  0.0000  0.0000 </r>
       </set>
      </set>
      <set comment="kpoint 40">
       <set comment="band 1">
        <r>  0.0000  0.0000  0.0000  0.0000  0.0000  0.0000  0.0000  0.0000  0.0000 </r>
        <r>  0.0000  0.0001  0.9801  0.0001  0.0000  0.0000  0.0001  0.0000  0.0000 </r>
        <r>  0.0000  0.0000  0.0000  0.0000  0.0000  0.0000  0.0000  0.0000  0.0000 </r>
        <r>  0.0000  0.0000  0.0000  0.0000  0.0000  0.0000  0.0000  0.0000  0.0000 </r>
        <r>  0.0065  0.0000  0.0010  0.0000  0.0000  0.0000  0.0000  0.0000  0.0000 </r>
       </set>
       <set comment="band 2">
        <r>  0.0000  0.0000  0.0000  0.0000  0.0000  0.0000  0.0000  0.0000  0.0000 </r>
        <r>  0.0000  0.4896  0.0001  0.4896  0.0000  0.0000  0.0000  0.0000  0.0000 </r>
        <r>  0.0036  0.0000  0.0000  0.0001  0.0000  0.0000  0.0000  0.0000  0.0000 </r>
        <r>  0.0036  0.0001  0.0000  0.0000  0.0000  0.0000  0.0000  0.0000  0.0000 </r>
        <r>  0.0000  0.0000  0.0000  0.0000  0.0000  0.0000  0.0000  0.0000  0.0000 </r>
       </set>
       <set comment="band 3">
        <r>  0.0000  0.0000  0.0000  0.0000  0.0000  0.0000  0.0000  0.0000  0.0000 </r>
        <r>  0.0000  0.4897  0.0000  0.4897  0.0000  0.0000  0.0000  0.0000  0.0000 </r>
        <r>  0.0036  0.0000  0.0000  0.0001  0.0000  0.0000  0.0000  0.0000  0.0000 </r>
        <r>  0.0036  0.0001  0.0000  0.0000  0.0000  0.0000  0.0000  0.0000  0.0000 </r>
        <r>  0.0000  0.0000  0.0000  0.0000  0.0000  0.0000  0.0000  0.0000  0.0000 </r>
       </set>
       <set comment="band 4">
        <r>  0.9808  0.0000  0.0000  0.0000  0.0000  0.0000  0.0000  0.0000  0.0000 </r>
        <r>  0.0000  0.0000  0.0000  0.0000  0.0000  0.0000  0.0000  0.0000  0.0000 </r>
        <r>  0.0000  0.0000  0.0000  0.0000  0.0000  0.0000  0.0000  0.0000  0.0000 </r>
        <r>  0.0000  0.0000  0.0000  0.0000  0.0000  0.0000  0.0000  0.0000  0.0000 </r>
        <r>  0.0000  0.0000  0.0000  0.0000  0.0000  0.0000  0.0000  0.0000  0.0000 </r>
       </set>
       <set comment="band 5">
        <r>  0.0000  0.0018  0.0002  0.0018  0.0055  0.0003  0.0000  0.0003  0.0000 </r>
        <r>  0.0038  0.0020  0.0315  0.0020  0.0000  0.0000  0.0055  0.0000  0.0000 </r>
        <r>  0.0398  0.0000  0.0000  0.0000  0.0000  0.0000  0.0000  0.0000  0.0000 </r>
        <r>  0.0398  0.0000  0.0000  0.0000  0.0000  0.0000  0.0000  0.0000  0.0000 </r>
        <r>  0.6856  0.0000  0.0004  0.0000  0.0000  0.0000  0.0000  0.0000  0.0000 </r>
       </set>
       <set comment="band 6">
        <r>  0.0000  0.0003  0.0020  0.0003  0.0007  0.0023  0.0000  0.0023  0.0000 </r>
        <r>  0.0015  0.0176  0.0038  0.0176  0.0000  0.0002  0.0020  0.0002  0.0000 </r>
        <r>  0.3433  0.0000  0.0000  0.0000  0.0000  0.0000  0.0000  0.0000  0.0000 </r>
        <r>  0.3433  0.0000  0.0000  0.0000  0.0000  0.0000  0.0000  0.0000  0.0000 </r>
        <r>  0.0819  0.0000  0.0001  0.0000  0.0000  0.0000  0.0000  0.0000  0.0000 </r>
       </set>
       <set comment="band 7">
        <r>  0.0000  0.0008  0.0000  0.0008  0.0000  0.0026  0.0000  0.0026  0.0000 </r>
        <r>  0.0000  0.0198  0.0000  0.0198  0.0000  0.0002  0.0000  0.0002  0.0025 </r>
        <r>  0.3855  0.0000  0.0000  0.0000  0.0000  0.0000  0.0000  0.0000  0.0000 </r>
        <r>  0.3855  0.0000  0.0000  0.0000  0.0000  0.0000  0.0000  0.0000  0.0000 </r>
        <r>  0.0000  0.0000  0.0000  0.0000  0.0000  0.0000  0.0000  0.0000  0.0000 </r>
       </set>
       <set comment="band 8">
        <r>  0.0000  0.4036  0.0000  0.4036  0.0000  0.0000  0.0000  0.0000  0.0001 </r>
        <r>  0.0000  0.0001  0.0000  0.0001  0.0000  0.0035  0.0000  0.0035  0.0000 </r>
        <r>  0.0012  0.0000  0.0072  0.0000  0.0000  0.0000  0.0000  0.0000  0.0000 </r>
        <r>  0.0012  0.0000  0.0072  0.0000  0.0000  0.0000  0.0000  0.0000  0.0000 </r>
        <r>  0.0000  0.0086  0.0000  0.0086  0.0000  0.0000  0.0000  0.0000  0.0000 </r>
       </set>
       <set comment="band 9">
        <r>  0.0001  0.3532  0.1024  0.3532  0.0001  0.0000  0.0001  0.0000  0.0000 </r>
        <r>  0.0000  0.0001  0.0000  0.0001  0.0010  0.0029  0.0001  0.0029  0.0000 </r>
        <r>  0.0003  0.0020  0.0063  0.0000  0.0000  0.0000  0.0000  0.0000  0.0000 </r>
        <r>  0.0003  0.0000  0.0063  0.0020  0.0000  0.0000  0.0000  0.0000  0.0000 </r>
        <r>  0.0036  0.0069  0.0000  0.0069  0.0000  0.0000  0.0000  0.0000  0.0000 </r>
       </set>
       <set comment="band 10">
        <r>  0.0001  0.0513  0.7125  0.0513  0.0000  0.0001  0.0000  0.0001  0.0000 </r>
        <r>  0.0000  0.0000  0.0000  0.0000  0.0061  0.0003  0.0000  0.0003  0.0000 </r>
        <r>  0.0027  0.0128  0.0008  0.0000  0.0000  0.0000  0.0000  0.0000  0.0000 </r>
        <r>  0.0027  0.0000  0.0008  0.0128  0.0000  0.0000  0.0000  0.0000  0.0000 </r>
        <r>  0.0005  0.0010  0.0000  0.0010  0.0000  0.0000  0.0000  0.0000  0.0000 </r>
       </set>
       <set comment="band 11">
        <r>  0.0000  0.0000  0.0000  0.0000  0.0007  0.0002  0.0000  0.0002  0.0000 </r>
        <r>  0.2133  0.0017  0.0012  0.0017  0.0000  0.0002  0.0062  0.0002  0.0000 </r>
        <r>  0.0006  0.0001  0.0001  0.1955  0.0000  0.0000  0.0000  0.0000  0.0000 </r>
        <r>  0.0006  0.1955  0.0001  0.0001  0.0000  0.0000  0.0000  0.0000  0.0000 </r>
        <r>  0.0004  0.0001  0.1316  0.0001  0.0000  0.0000  0.0000  0.0000  0.0000 </r>
       </set>
       <set comment="band 12">
        <r>  0.0000  0.0001  0.0000  0.0001  0.0000  0.0001  0.0000  0.0001  0.0000 </r>
        <r>  0.0000  0.0018  0.0000  0.0018  0.0000  0.0002  0.0000  0.0002  0.3887 </r>
        <r>  0.0001  0.0000  0.0002  0.2502  0.0000  0.0000  0.0000  0.0000  0.0000 </r>
        <r>  0.0001  0.2502  0.0002  0.0000  0.0000  0.0000  0.0000  0.0000  0.0000 </r>
        <r>  0.0000  0.0000  0.0000  0.0000  0.0000  0.0000  0.0000  0.0000  0.0000 </r>
       </set>
       <set comment="band 13">
        <r>  0.0000  0.0001  0.0000  0.0001  0.0007  0.0001  0.0000  0.0001  0.0000 </r>
        <r>  0.0026  0.0005  0.0043  0.0005  0.0000  0.0000  0.3681  0.0000  0.0000 </r>
        <r>  0.0000  0.0000  0.0002  0.0636  0.0000  0.0000  0.0000  0.0000  0.0000 </r>
        <r>  0.0000  0.0636  0.0002  0.0000  0.0000  0.0000  0.0000  0.0000  0.0000 </r>
        <r>  0.0005  0.0000  0.3727  0.0000  0.0000  0.0000  0.0000  0.0000  0.0000 </r>
       </set>
       <set comment="band 14">
        <r>  0.0025  0.0121  0.1009  0.0121  0.0004  0.0015  0.0004  0.0015  0.0000 </r>
        <r>  0.0002  0.0001  0.0000  0.0001  0.1333  0.0169  0.0000  0.0169  0.0000 </r>
        <r>  0.0000  0.1739  0.0235  0.0002  0.0000  0.0000  0.0000  0.0000  0.0000 </r>
        <r>  0.0000  0.0002  0.0235  0.1739  0.0000  0.0000  0.0000  0.0000  0.0000 </r>
        <r>  0.0000  0.0207  0.0003  0.0207  0.0000  0.0000  0.0000  0.0000  0.0000 </r>
       </set>
       <set comment="band 15">
        <r>  0.0007  0.0525  0.0287  0.0525  0.0019  0.0001  0.0010  0.0001  0.0000 </r>
        <r>  0.0001  0.0005  0.0001  0.0005  0.0346  0.0665  0.0000  0.0665  0.0000 </r>
        <r>  0.0000  0.0446  0.0872  0.0001  0.0000  0.0000  0.0000  0.0000  0.0000 </r>
        <r>  0.0000  0.0001  0.0872  0.0446  0.0000  0.0000  0.0000  0.0000  0.0000 </r>
        <r>  0.0001  0.0884  0.0001  0.0884  0.0000  0.0000  0.0000  0.0000  0.0000 </r>
       </set>
       <set comment="band 16">
        <r>  0.0000  0.0680  0.0000  0.0680  0.0000  0.0007  0.0000  0.0007  0.0013 </r>
        <r>  0.0000  0.0006  0.0000  0.0006  0.0000  0.0842  0.0000  0.0842  0.0002 </r>
        <r>  0.0000  0.0001  0.1173  0.0002  0.0000  0.0000  0.0000  0.0000  0.0000 </r>
        <r>  0.0000  0.0002  0.1173  0.0001  0.0000  0.0000  0.0000  0.0000  0.0000 </r>
        <r>  0.0000  0.1035  0.0000  0.1035  0.0000  0.0000  0.0000  0.0000  0.0000 </r>
       </set>
       <set comment="band 17">
        <r>  0.0000  0.0001  0.0002  0.0001  0.0044  0.0014  0.0012  0.0014  0.0000 </r>
        <r>  0.0000  0.0001  0.0007  0.0001  0.0001  0.0001  0.0002  0.0001  0.0000 </r>
        <r>  0.0002  0.0001  0.1816  0.0001  0.0000  0.0000  0.0000  0.0000  0.0000 </r>
        <r>  0.0002  0.0001  0.1816  0.0001  0.0000  0.0000  0.0000  0.0000  0.0000 </r>
        <r>  0.0008  0.1864  0.0005  0.1864  0.0000  0.0000  0.0000  0.0000  0.0000 </r>
       </set>
       <set comment="band 18">
        <r>  0.0000  0.0005  0.0000  0.0005  0.0000  0.0021  0.0000  0.0021  0.0003 </r>
        <r>  0.0000  0.0002  0.0000  0.0002  0.0000  0.0000  0.0000  0.0000  0.0001 </r>
        <r>  0.0003  0.0117  0.1691  0.0001  0.0000  0.0000  0.0000  0.0000  0.0000 </r>
        <r>  0.0003  0.0001  0.1691  0.0117  0.0000  0.0000  0.0000  0.0000  0.0000 </r>
        <r>  0.0000  0.1909  0.0000  0.1909  0.0000  0.0000  0.0000  0.0000  0.0000 </r>
       </set>
       <set comment="band 19">
        <r>  0.0000  0.0000  0.0000  0.0000  0.0000  0.0014  0.0000  0.0014  0.0008 </r>
        <r>  0.0000  0.0002  0.0000  0.0002  0.0000  0.0001  0.0000  0.0001  0.0001 </r>
        <r>  0.0003  0.3628  0.0067  0.0000  0.0000  0.0000  0.0000  0.0000  0.0000 </r>
        <r>  0.0003  0.0000  0.0067  0.3628  0.0000  0.0000  0.0000  0.0000  0.0000 </r>
        <r>  0.0000  0.0061  0.0000  0.0061  0.0000  0.0000  0.0000  0.0000  0.0000 </r>
       </set>
       <set comment="band 20">
        <r>  0.0002  0.0029  0.0000  0.0029  0.0004  0.0002  0.0006  0.0002  0.0000 </r>
        <r>  0.0001  0.0002  0.0006  0.0002  0.0074  0.3802  0.0006  0.3802  0.0000 </r>
        <r>  0.0002  0.0006  0.0415  0.0000  0.0000  0.0000  0.0000  0.0000  0.0000 </r>
        <r>  0.0002  0.0000  0.0415  0.0006  0.0000  0.0000  0.0000  0.0000  0.0000 </r>
        <r>  0.0003  0.0357  0.0003  0.0357  0.0000  0.0000  0.0000  0.0000  0.0000 </r>
       </set>
       <set comment="band 21">
        <r>  0.0000  0.0027  0.0000  0.0027  0.0000  0.0003  0.0000  0.0003  0.0016 </r>
        <r>  0.0000  0.0002  0.0000  0.0002  0.0000  0.3844  0.0000  0.3844  0.0007 </r>
        <r>  0.0001  0.0000  0.0424  0.0000  0.0000  0.0000  0.0000  0.0000  0.0000 </r>
        <r>  0.0001  0.0000  0.0424  0.0000  0.0000  0.0000  0.0000  0.0000  0.0000 </r>
        <r>  0.0000  0.0355  0.0000  0.0355  0.0000  0.0000  0.0000  0.0000  0.0000 </r>
       </set>
       <set comment="band 22">
        <r>  0.0007  0.0000  0.0049  0.0000  0.0000  0.0003  0.0012  0.0003  0.0000 </r>
        <r>  0.0000  0.0002  0.0000  0.0002  0.7642  0.0036  0.0000  0.0036  0.0000 </r>
        <r>  0.0002  0.0762  0.0003  0.0000  0.0000  0.0000  0.0000  0.0000  0.0000 </r>
        <r>  0.0002  0.0000  0.0003  0.0762  0.0000  0.0000  0.0000  0.0000  0.0000 </r>
        <r>  0.0000  0.0003  0.0000  0.0003  0.0000  0.0000  0.0000  0.0000  0.0000 </r>
       </set>
       <set comment="band 23">
        <r>  0.0001  0.0003  0.0002  0.0003  0.2417  0.0317  0.0002  0.0317  0.0000 </r>
        <r>  0.0002  0.0026  0.0363  0.0026  0.0008  0.0017  0.2260  0.0017  0.0000 </r>
        <r>  0.0055  0.0000  0.0019  0.0143  0.0000  0.0000  0.0000  0.0000  0.0000 </r>
        <r>  0.0055  0.0143  0.0019  0.0000  0.0000  0.0000  0.0000  0.0000  0.0000 </r>
        <r>  0.0361  0.0017  0.0786  0.0017  0.0000  0.0000  0.0000  0.0000  0.0000 </r>
       </set>
       <set comment="band 24">
        <r>  0.0000  0.0003  0.0000  0.0003  0.0000  0.2363  0.0000  0.2363  0.0006 </r>
        <r>  0.0000  0.0137  0.0000  0.0137  0.0000  0.0017  0.0000  0.0017  0.0459 </r>
        <r>  0.0337  0.0050  0.0019  0.0048  0.0000  0.0000  0.0000  0.0000  0.0000 </r>
        <r>  0.0337  0.0048  0.0019  0.0050  0.0000  0.0000  0.0000  0.0000  0.0000 </r>
        <r>  0.0000  0.0015  0.0000  0.0015  0.0000  0.0000  0.0000  0.0000  0.0000 </r>
       </set>
       <set comment="band 25">
        <r>  0.0004  0.0004  0.0010  0.0004  0.0388  0.2227  0.0005  0.2227  0.0000 </r>
        <r>  0.0002  0.0100  0.0062  0.0100  0.0048  0.0025  0.0266  0.0025  0.0000 </r>
        <r>  0.0287  0.0002  0.0019  0.0005  0.0000  0.0000  0.0000  0.0000  0.0000 </r>
        <r>  0.0287  0.0005  0.0019  0.0002  0.0000  0.0000  0.0000  0.0000  0.0000 </r>
        <r>  0.0060  0.0018  0.0226  0.0018  0.0000  0.0000  0.0000  0.0000  0.0000 </r>
       </set>
       <set comment="band 26">
        <r>  0.0001  0.0003  0.0000  0.0003  0.2348  0.0008  0.0005  0.0008  0.0000 </r>
        <r>  0.0007  0.0003  0.0002  0.0003  0.0000  0.0003  0.4138  0.0003  0.0000 </r>
        <r>  0.0001  0.0000  0.0003  0.0303  0.0000  0.0000  0.0000  0.0000  0.0000 </r>
        <r>  0.0001  0.0303  0.0003  0.0000  0.0000  0.0000  0.0000  0.0000  0.0000 </r>
        <r>  0.0309  0.0019  0.1017  0.0019  0.0000  0.0000  0.0000  0.0000  0.0000 </r>
       </set>
       <set comment="band 27">
        <r>  0.0000  0.0000  0.0000  0.0000  0.0000  0.0187  0.0000  0.0187  0.0001 </r>
        <r>  0.0000  0.0002  0.0000  0.0002  0.0000  0.0006  0.0000  0.0006  0.6265 </r>
        <r>  0.0003  0.0002  0.0003  0.1435  0.0000  0.0000  0.0000  0.0000  0.0000 </r>
        <r>  0.0003  0.1435  0.0003  0.0002  0.0000  0.0000  0.0000  0.0000  0.0000 </r>
        <r>  0.0000  0.0000  0.0000  0.0000  0.0000  0.0000  0.0000  0.0000  0.0000 </r>
       </set>
       <set comment="band 28">
        <r>  0.0037  0.0003  0.0006  0.0003  0.0004  0.0002  0.7599  0.0002  0.0000 </r>
        <r>  0.0000  0.0000  0.0000  0.0000  0.0004  0.0001  0.0000  0.0001  0.0000 </r>
        <r>  0.0000  0.0067  0.0000  0.0000  0.0000  0.0000  0.0000  0.0000  0.0000 </r>
        <r>  0.0000  0.0000  0.0000  0.0067  0.0000  0.0000  0.0000  0.0000  0.0000 </r>
        <r>  0.0000  0.0035  0.0000  0.0035  0.0000  0.0000  0.0000  0.0000  0.0000 </r>
       </set>
       <set comment="band 29">
        <r>  0.0000  0.0010  0.0000  0.0010  0.0000  0.0003  0.0000  0.0003  0.7730 </r>
        <r>  0.0000  0.0001  0.0000  0.0001  0.0000  0.0001  0.0000  0.0001  0.0000 </r>
        <r>  0.0000  0.0008  0.0068  0.0000  0.0000  0.0000  0.0000  0.0000  0.0000 </r>
        <r>  0.0000  0.0000  0.0068  0.0008  0.0000  0.0000  0.0000  0.0000  0.0000 </r>
        <r>  0.0000  0.0035  0.0000  0.0035  0.0000  0.0000  0.0000  0.0000  0.0000 </r>
       </set>
       <set comment="band 30">
        <r>  0.4388  0.0004  0.0023  0.0004  0.0004  0.0003  0.0088  0.0003  0.0000 </r>
        <r>  0.0000  0.0000  0.0000  0.0000  0.0035  0.0009  0.0000  0.0009  0.0000 </r>
        <r>  0.0000  0.0044  0.0073  0.0000  0.0000  0.0000  0.0000  0.0000  0.0000 </r>
        <r>  0.0000  0.0000  0.0073  0.0044  0.0000  0.0000  0.0000  0.0000  0.0000 </r>
        <r>  0.0000  0.0085  0.0000  0.0085  0.0000  0.0000  0.0000  0.0000  0.0000 </r>
       </set>
       <set comment="band 31">
        <r>  0.0061  0.0316  0.0311  0.0321  0.0045  0.0050  0.0101  0.0051  0.0000 </r>
        <r>  0.0251  0.0072  0.0085  0.0072  0.0017  0.0015  0.0011  0.0014  0.0000 </r>
        <r>  0.0013  0.0253  0.0204  0.0259  0.0000  0.0000  0.0000  0.0000  0.0000 </r>
        <r>  0.0013  0.0260  0.0207  0.0253  0.0000  0.0000  0.0000  0.0000  0.0000 </r>
        <r>  0.0011  0.0214  0.0253  0.0211  0.0000  0.0000  0.0000  0.0000  0.0000 </r>
       </set>
       <set comment="band 32">
        <r>  0.0016  0.0077  0.0116  0.0097  0.0070  0.0003  0.0031  0.0003  0.0000 </r>
        <r>  0.1152  0.0005  0.0278  0.0007  0.0014  0.0011  0.0042  0.0009  0.0000 </r>
        <r>  0.0005  0.0092  0.0052  0.0902  0.0000  0.0000  0.0000  0.0000  0.0000 </r>
        <r>  0.0006  0.0900  0.0067  0.0092  0.0000  0.0000  0.0000  0.0000  0.0000 </r>
        <r>  0.0007  0.0074  0.0875  0.0058  0.0000  0.0000  0.0000  0.0000  0.0000 </r>
       </set>
      </set>
     </set>
    </set>
   </array>
  </projected>
 </calculation>
 <structure name="finalpos" >
  <crystal>
   <varray name="basis" >
    <v>       4.01544600       0.00000000       0.00000000 </v>
    <v>       0.00000000       4.01544600       0.00000000 </v>
    <v>       0.00000000       0.00000000       4.13454400 </v>
   </varray>
   <i name="volume">     66.66458775 </i>
   <varray name="rec_basis" >
    <v>       0.24903834       0.00000000       0.00000000 </v>
    <v>       0.00000000       0.24903834       0.00000000 </v>
    <v>       0.00000000       0.00000000       0.24186464 </v>
   </varray>
  </crystal>
  <varray name="positions" >
   <v>       0.00000000       0.00000000       0.01250700 </v>
   <v>       0.50000000       0.50000000       0.52282900 </v>
   <v>       0.00000000       0.50000000       0.49681200 </v>
   <v>       0.50000000       0.00000000       0.49681200 </v>
   <v>       0.50000000       0.50000000       0.98503800 </v>
  </varray>
 </structure>
</modeling>
