 vasp.5.3.5 31Mar14 (build Oct 24 2014 12:38:34) complex                        
  
 executed on             LinuxIFC date 2016.10.20  19:40:54
 running on    8 total cores
 distrk:  each k-point on    8 cores,    1 groups
 distr:  one band on NCORES_PER_BAND=   1 cores,    8 groups


--------------------------------------------------------------------------------------------------------


 INCAR:
 POTCAR:    PAW_PBE Ba_sv 06Sep2000               
 POTCAR:    PAW_PBE Ti_pv 07Sep2000               
 POTCAR:    PAW_PBE O 08Apr2002                   

 ----------------------------------------------------------------------------- 
|                                                                             |
|           W    W    AA    RRRRR   N    N  II  N    N   GGGG   !!!           |
|           W    W   A  A   R    R  NN   N  II  NN   N  G    G  !!!           |
|           W    W  A    A  R    R  N N  N  II  N N  N  G       !!!           |
|           W WW W  AAAAAA  RRRRR   N  N N  II  N  N N  G  GGG   !            |
|           WW  WW  A    A  R   R   N   NN  II  N   NN  G    G                |
|           W    W  A    A  R    R  N    N  II  N    N   GGGG   !!!           |
|                                                                             |
|      For optimal performance we recommend to set                            |
|        NCORE= 4 - approx SQRT( number of cores)                             |
|      NCORE specifies how many cores store one orbital (NPAR=cpu/NCORE).     |
|      This setting can  greatly improve the performance of VASP for DFT.     |
|      The default, NPAR=number of cores might be grossly inefficient         |
|      on modern multi-core architectures or massively parallel machines.     |
|      Do your own testing !!!!                                               |
|      Unfortunately you need to use the default for GW and RPA calculations. |
|      (for HF NCORE is supported but not extensively tested yet)             |
|                                                                             |
 ----------------------------------------------------------------------------- 

 POTCAR:    PAW_PBE Ba_sv 06Sep2000               
   VRHFIN =Ba: 5s5p6s                                                           
   LEXCH  = PE                                                                  
   EATOM  =   700.8560 eV,   51.5115 Ry                                         
                                                                                
   TITEL  = PAW_PBE Ba_sv 06Sep2000                                             
   LULTRA =        F    use ultrasoft PP ?                                      
   IUNSCR =        1    unscreen: 0-lin 1-nonlin 2-no                           
   RPACOR =    2.400    partial core radius                                     
   POMASS =  137.327; ZVAL   =   10.000    mass and valenz                      
   RCORE  =    2.800    outmost cutoff radius                                   
   RWIGS  =    3.740; RWIGS  =    1.979    wigner-seitz radius (au A)           
   ENMAX  =  187.181; ENMIN  =  140.386 eV                                      
   RCLOC  =    2.516    cutoff for local pot                                    
   LCOR   =        T    correct aug charges                                     
   LPAW   =        T    paw PP                                                  
   EAUG   =  351.165                                                            
   DEXC   =    0.000                                                            
   RMAX   =    2.865    core radius for proj-oper                               
   RAUG   =    1.300    factor for augmentation sphere                          
   RDEP   =    2.976    radius for radial grids                                 
   RDEPT  =    2.289    core radius for aug-charge                              
                                                                                
   Atomic configuration                                                         
   13 entries                                                                   
     n  l   j            E        occ.                                          
     1  0  0.50    -37249.5946   2.0000                                         
     2  0  0.50     -5887.1925   2.0000                                         
     2  1  1.50     -5278.3977   6.0000                                         
     3  0  0.50     -1242.7293   2.0000                                         
     3  1  1.50     -1047.6609   6.0000                                         
     3  2  2.50      -764.6158  10.0000                                         
     4  0  0.50      -243.8228   2.0000                                         
     4  1  1.50      -180.9218   6.0000                                         
     4  2  2.50       -89.6477  10.0000                                         
     5  0  0.50       -33.6549   2.0000                                         
     6  0  0.50        -3.2247   1.9900                                         
     5  1  1.50       -18.7193   6.0000                                         
     5  2  2.50        -2.0115   0.0100                                         
   Description                                                                  
     l       E           TYP  RCUT    TYP  RCUT                                 
     0    -33.6549039     23  2.800                                             
     0     -3.2246942     23  2.800                                             
     1    -18.7193050     23  2.700                                             
     1     27.2116520     23  2.700                                             
     2     -2.0115002     23  2.700                                             
     2      0.3057420     23  2.700                                             
  local pseudopotential read in
  partial core-charges read in
  partial kinetic energy density read in
  atomic valenz-charges read in
  non local Contribution for L=           0  read in
    real space projection operators read in
  non local Contribution for L=           0  read in
    real space projection operators read in
  non local Contribution for L=           1  read in
    real space projection operators read in
  non local Contribution for L=           1  read in
    real space projection operators read in
  non local Contribution for L=           2  read in
    real space projection operators read in
  non local Contribution for L=           2  read in
    real space projection operators read in
    PAW grid and wavefunctions read in
 
   number of l-projection  operators is LMAX  =           6
   number of lm-projection operators is LMMAX =          18
 
 POTCAR:    PAW_PBE Ti_pv 07Sep2000               
   VRHFIN =Ti: d3 s1                                                            
   LEXCH  = PE                                                                  
   EATOM  =  1042.5995 eV,   76.6289 Ry                                         
                                                                                
   TITEL  = PAW_PBE Ti_pv 07Sep2000                                             
   LULTRA =        F    use ultrasoft PP ?                                      
   IUNSCR =        1    unscreen: 0-lin 1-nonlin 2-no                           
   RPACOR =    2.200    partial core radius                                     
   POMASS =   47.880; ZVAL   =   10.000    mass and valenz                      
   RCORE  =    2.500    outmost cutoff radius                                   
   RWIGS  =    2.500; RWIGS  =    1.323    wigner-seitz radius (au A)           
   ENMAX  =  222.335; ENMIN  =  166.751 eV                                      
   RCLOC  =    1.701    cutoff for local pot                                    
   LCOR   =        T    correct aug charges                                     
   LPAW   =        T    paw PP                                                  
   EAUG   =  482.848                                                            
   DEXC   =    0.000                                                            
   RMAX   =    2.564    core radius for proj-oper                               
   RAUG   =    1.300    factor for augmentation sphere                          
   RDEP   =    2.538    radius for radial grids                                 
   RDEPT  =    1.952    core radius for aug-charge                              
                                                                                
   Atomic configuration                                                         
    8 entries                                                                   
     n  l   j            E        occ.                                          
     1  0  0.50     -4865.3608   2.0000                                         
     2  0  0.50      -533.1368   2.0000                                         
     2  1  1.50      -440.5031   6.0000                                         
     3  0  0.50       -59.3186   2.0000                                         
     3  1  1.50       -35.7012   6.0000                                         
     3  2  2.50        -1.9157   3.0000                                         
     4  0  0.50        -3.7291   1.0000                                         
     4  3  2.50        -1.3606   0.0000                                         
   Description                                                                  
     l       E           TYP  RCUT    TYP  RCUT                                 
     1    -35.7012140     23  2.300                                             
     1     -1.3605826     23  2.300                                             
     2     -1.9156996     23  2.500                                             
     2     -0.4063033     23  2.500                                             
     0     -3.7290856     23  2.500                                             
     0     20.4087390     23  2.500                                             
  local pseudopotential read in
  partial core-charges read in
  partial kinetic energy density read in
  atomic valenz-charges read in
  non local Contribution for L=           1  read in
    real space projection operators read in
  non local Contribution for L=           1  read in
    real space projection operators read in
  non local Contribution for L=           2  read in
    real space projection operators read in
  non local Contribution for L=           2  read in
    real space projection operators read in
  non local Contribution for L=           0  read in
    real space projection operators read in
  non local Contribution for L=           0  read in
    real space projection operators read in
    PAW grid and wavefunctions read in
 
   number of l-projection  operators is LMAX  =           6
   number of lm-projection operators is LMMAX =          18
 
 POTCAR:    PAW_PBE O 08Apr2002                   
   VRHFIN =O: s2p4                                                              
   LEXCH  = PE                                                                  
   EATOM  =   432.3788 eV,   31.7789 Ry                                         
                                                                                
   TITEL  = PAW_PBE O 08Apr2002                                                 
   LULTRA =        F    use ultrasoft PP ?                                      
   IUNSCR =        1    unscreen: 0-lin 1-nonlin 2-no                           
   RPACOR =    1.200    partial core radius                                     
   POMASS =   16.000; ZVAL   =    6.000    mass and valenz                      
   RCORE  =    1.520    outmost cutoff radius                                   
   RWIGS  =    1.550; RWIGS  =    0.820    wigner-seitz radius (au A)           
   ENMAX  =  400.000; ENMIN  =  300.000 eV                                      
   ICORE  =        2    local potential                                         
   LCOR   =        T    correct aug charges                                     
   LPAW   =        T    paw PP                                                  
   EAUG   =  605.392                                                            
   DEXC   =    0.000                                                            
   RMAX   =    1.553    core radius for proj-oper                               
   RAUG   =    1.300    factor for augmentation sphere                          
   RDEP   =    1.550    radius for radial grids                                 
   RDEPT  =    1.329    core radius for aug-charge                              
                                                                                
   Atomic configuration                                                         
    4 entries                                                                   
     n  l   j            E        occ.                                          
     1  0  0.50      -514.6923   2.0000                                         
     2  0  0.50       -23.9615   2.0000                                         
     2  1  0.50        -9.0305   4.0000                                         
     3  2  1.50        -9.5241   0.0000                                         
   Description                                                                  
     l       E           TYP  RCUT    TYP  RCUT                                 
     0    -23.9615318     23  1.200                                             
     0     -9.5240782     23  1.200                                             
     1     -9.0304911     23  1.520                                             
     1      8.1634956     23  1.520                                             
     2     -9.5240782      7  1.500                                             
  local pseudopotential read in
  partial core-charges read in
  partial kinetic energy density read in
  kinetic energy density of atom read in
  atomic valenz-charges read in
  non local Contribution for L=           0  read in
    real space projection operators read in
  non local Contribution for L=           0  read in
    real space projection operators read in
  non local Contribution for L=           1  read in
    real space projection operators read in
  non local Contribution for L=           1  read in
    real space projection operators read in
    PAW grid and wavefunctions read in
 
   number of l-projection  operators is LMAX  =           4
   number of lm-projection operators is LMMAX =           8
 

 ----------------------------------------------------------------------------- 
|                                                                             |
|  ADVICE TO THIS USER RUNNING 'VASP/VAMP'   (HEAR YOUR MASTER'S VOICE ...):  |
|                                                                             |
|      You have a (more or less) 'small supercell' and for smaller cells      |
|      it is recommended  to use the reciprocal-space projection scheme!      |
|      The real space optimization is not  efficient for small cells and it   |
|      is also less accurate ...                                              |
|      Therefore set LREAL=.FALSE. in the  INCAR file                         |
|                                                                             |
 ----------------------------------------------------------------------------- 

 Optimization of the real space projectors (new method)

 maximal supplied QI-value         = 13.42
 optimisation between [QCUT,QGAM] = [ 11.67, 23.35] = [ 38.16,152.62] Ry 
 Optimized for a Real-space Cutoff    1.68 Angstroem

   l    n(q)    QCUT    max X(q) W(low)/X(q) W(high)/X(q)  e(spline) 
   0     12    11.673    13.244    0.27E-04    0.53E-05    0.55E-07
   0     12    11.673    14.240    0.39E-04    0.74E-05    0.11E-06
   1     11    11.673     4.828    0.65E-05    0.14E-04    0.51E-07
   1     11    11.673     3.934    0.16E-04    0.58E-04    0.38E-06
   2     11    11.673    87.714    0.23E-03    0.16E-03    0.84E-06
   2     11    11.673    59.874    0.22E-03    0.15E-03    0.81E-06
 Optimization of the real space projectors (new method)

 maximal supplied QI-value         = 15.12
 optimisation between [QCUT,QGAM] = [ 11.64, 23.28] = [ 37.95,151.78] Ry 
 Optimized for a Real-space Cutoff    1.49 Angstroem

   l    n(q)    QCUT    max X(q) W(low)/X(q) W(high)/X(q)  e(spline) 
   1     10    11.641     4.216    0.17E-04    0.40E-04    0.50E-07
   1     10    11.641     5.422    0.66E-04    0.10E-03    0.13E-06
   2      9    11.641    72.084    0.68E-04    0.13E-03    0.50E-06
   2      9    11.641    65.965    0.66E-04    0.13E-03    0.50E-06
   0     10    11.641    41.531    0.10E-03    0.87E-04    0.31E-06
   0     10    11.641    16.290    0.75E-04    0.66E-04    0.24E-06
 Optimization of the real space projectors (new method)

 maximal supplied QI-value         = 24.76
 optimisation between [QCUT,QGAM] = [ 11.64, 23.27] = [ 37.91,151.63] Ry 
 Optimized for a Real-space Cutoff    1.14 Angstroem

   l    n(q)    QCUT    max X(q) W(low)/X(q) W(high)/X(q)  e(spline) 
   0      8    11.635    20.381    0.10E-03    0.33E-03    0.24E-06
   0      8    11.635    15.268    0.11E-03    0.35E-03    0.26E-06
   1      7    11.635     5.964    0.24E-03    0.31E-03    0.30E-06
   1      7    11.635     5.382    0.22E-03    0.25E-03    0.26E-06
  PAW_PBE Ba_sv 06Sep2000               :
 energy of atom  1       EATOM= -700.8560
 kinetic energy error for atom=    0.0005 (will be added to EATOM!!)
  PAW_PBE Ti_pv 07Sep2000               :
 energy of atom  2       EATOM=-1042.5995
 kinetic energy error for atom=    0.0019 (will be added to EATOM!!)
  PAW_PBE O 08Apr2002                   :
 energy of atom  3       EATOM= -432.3788
 kinetic energy error for atom=    0.0208 (will be added to EATOM!!)
 
 
 POSCAR: Ba1 Ti1 O3                              
  positions in direct lattice
  velocities in cartesian coordinates
 exchange correlation table for  LEXCH =        8
   RHO(1)=    0.500       N(1)  =     2000
   RHO(2)=  100.500       N(2)  =     4000
 


--------------------------------------------------------------------------------------------------------


 ion  position               nearest neighbor table
   1  0.000  0.000  0.007-   3 2.85   4 2.85   3 2.85   4 2.85   5 2.85   5 2.85   5 2.85   5 2.85
                             3 2.88   4 2.88   4 2.88   3 2.88   2 3.49   2 3.49   2 3.49   2 3.49
   2  0.500  0.500  0.511-   5 1.98   4 2.01   3 2.01   4 2.01   3 2.01   5 2.10   1 3.49   1 3.49
                             1 3.49   1 3.49   1 3.51   1 3.51   1 3.51   1 3.51
   3  0.000  0.500  0.500-   2 2.01   2 2.01   1 2.85   1 2.85   1 2.88   1 2.88
   4  0.500  0.000  0.500-   2 2.01   2 2.01   1 2.85   1 2.85   1 2.88   1 2.88
   5  0.500  0.500  0.996-   2 1.98   2 2.10   1 2.85   1 2.85   1 2.85   1 2.85
 
  LATTYP: Found a simple tetragonal cell.
 ALAT       =     4.0260050000
 C/A-ratio  =     1.0118328219
  
  Lattice vectors:
  
 A1 = (   4.0260050000,   0.0000000000,   0.0000000000)
 A2 = (   0.0000000000,   4.0260050000,   0.0000000000)
 A3 = (   0.0000000000,   0.0000000000,   4.0736440000)


Analysis of symmetry for initial positions (statically):
=====================================================================
 Subroutine PRICEL returns:
 Original cell was already a primitive cell.
 

 Routine SETGRP: Setting up the symmetry group for a 
 simple tetragonal supercell.


 Subroutine GETGRP returns: Found  8 space group operations
 (whereof  8 operations were pure point group operations)
 out of a pool of 16 trial point group operations.


The static configuration has the point symmetry C_4v.


Analysis of symmetry for dynamics (positions and initial velocities):
=====================================================================
 Subroutine PRICEL returns:
 Original cell was already a primitive cell.
 

 Routine SETGRP: Setting up the symmetry group for a 
 simple tetragonal supercell.


 Subroutine GETGRP returns: Found  8 space group operations
 (whereof  8 operations were pure point group operations)
 out of a pool of 16 trial point group operations.


The dynamic configuration has the point symmetry C_4v.


Analysis of magnetic symmetry:
=====================================================================
 Subroutine PRICEL returns:
 Original cell was already a primitive cell.
 

 Subroutine MAGSYM returns: Found  8 space group operations
 (whereof  8 operations were pure point group operations)
 out of a pool of  8 trial space group operations
 (whereof  8 operations were pure point group operations)
 and found also     1 'primitive' translations


The magnetic configuration has the point symmetry C_4v.
 
 
 KPOINTS: pymatgen generated KPOINTS with grid den

Automatic generation of k-mesh.
Space group operators:
 irot       det(A)        alpha          n_x          n_y          n_z        tau_x        tau_y        tau_z
    1     1.000000     0.000000     1.000000     0.000000     0.000000     0.000000     0.000000     0.000000
    2     1.000000    90.000000     0.000000     0.000000    -1.000000     0.000000     0.000000     0.000000
    3     1.000000   179.999999     0.000000     0.000000     1.000000     0.000000     0.000000     0.000000
    4     1.000000    90.000000     0.000000     0.000000     1.000000     0.000000     0.000000     0.000000
    5    -1.000000   180.000000     0.000000     1.000000     0.000000     0.000000     0.000000     0.000000
    6    -1.000000   180.000000     0.707107     0.707107     0.000000     0.000000     0.000000     0.000000
    7    -1.000000   180.000000     1.000000     0.000000     0.000000     0.000000     0.000000     0.000000
    8    -1.000000   180.000000     0.707107    -0.707107     0.000000     0.000000     0.000000     0.000000
 
 Subroutine IBZKPT returns following result:
 ===========================================
 
 Found     40 irreducible k-points:
 
 Following reciprocal coordinates:
            Coordinates               Weight
  0.062500  0.062500  0.062500      8.000000
  0.187500  0.062500  0.062500     16.000000
  0.312500  0.062500  0.062500     16.000000
  0.437500  0.062500  0.062500     16.000000
  0.187500  0.187500  0.062500      8.000000
  0.312500  0.187500  0.062500     16.000000
  0.437500  0.187500  0.062500     16.000000
  0.312500  0.312500  0.062500      8.000000
  0.437500  0.312500  0.062500     16.000000
  0.437500  0.437500  0.062500      8.000000
  0.062500  0.062500  0.187500      8.000000
  0.187500  0.062500  0.187500     16.000000
  0.312500  0.062500  0.187500     16.000000
  0.437500  0.062500  0.187500     16.000000
  0.187500  0.187500  0.187500      8.000000
  0.312500  0.187500  0.187500     16.000000
  0.437500  0.187500  0.187500     16.000000
  0.312500  0.312500  0.187500      8.000000
  0.437500  0.312500  0.187500     16.000000
  0.437500  0.437500  0.187500      8.000000
  0.062500  0.062500  0.312500      8.000000
  0.187500  0.062500  0.312500     16.000000
  0.312500  0.062500  0.312500     16.000000
  0.437500  0.062500  0.312500     16.000000
  0.187500  0.187500  0.312500      8.000000
  0.312500  0.187500  0.312500     16.000000
  0.437500  0.187500  0.312500     16.000000
  0.312500  0.312500  0.312500      8.000000
  0.437500  0.312500  0.312500     16.000000
  0.437500  0.437500  0.312500      8.000000
  0.062500  0.062500  0.437500      8.000000
  0.187500  0.062500  0.437500     16.000000
  0.312500  0.062500  0.437500     16.000000
  0.437500  0.062500  0.437500     16.000000
  0.187500  0.187500  0.437500      8.000000
  0.312500  0.187500  0.437500     16.000000
  0.437500  0.187500  0.437500     16.000000
  0.312500  0.312500  0.437500      8.000000
  0.437500  0.312500  0.437500     16.000000
  0.437500  0.437500  0.437500      8.000000
 
 Following cartesian coordinates:
            Coordinates               Weight
  0.015524  0.015524  0.015343      8.000000
  0.046572  0.015524  0.015343     16.000000
  0.077620  0.015524  0.015343     16.000000
  0.108669  0.015524  0.015343     16.000000
  0.046572  0.046572  0.015343      8.000000
  0.077620  0.046572  0.015343     16.000000
  0.108669  0.046572  0.015343     16.000000
  0.077620  0.077620  0.015343      8.000000
  0.108669  0.077620  0.015343     16.000000
  0.108669  0.108669  0.015343      8.000000
  0.015524  0.015524  0.046028      8.000000
  0.046572  0.015524  0.046028     16.000000
  0.077620  0.015524  0.046028     16.000000
  0.108669  0.015524  0.046028     16.000000
  0.046572  0.046572  0.046028      8.000000
  0.077620  0.046572  0.046028     16.000000
  0.108669  0.046572  0.046028     16.000000
  0.077620  0.077620  0.046028      8.000000
  0.108669  0.077620  0.046028     16.000000
  0.108669  0.108669  0.046028      8.000000
  0.015524  0.015524  0.076713      8.000000
  0.046572  0.015524  0.076713     16.000000
  0.077620  0.015524  0.076713     16.000000
  0.108669  0.015524  0.076713     16.000000
  0.046572  0.046572  0.076713      8.000000
  0.077620  0.046572  0.076713     16.000000
  0.108669  0.046572  0.076713     16.000000
  0.077620  0.077620  0.076713      8.000000
  0.108669  0.077620  0.076713     16.000000
  0.108669  0.108669  0.076713      8.000000
  0.015524  0.015524  0.107398      8.000000
  0.046572  0.015524  0.107398     16.000000
  0.077620  0.015524  0.107398     16.000000
  0.108669  0.015524  0.107398     16.000000
  0.046572  0.046572  0.107398      8.000000
  0.077620  0.046572  0.107398     16.000000
  0.108669  0.046572  0.107398     16.000000
  0.077620  0.077620  0.107398      8.000000
  0.108669  0.077620  0.107398     16.000000
  0.108669  0.108669  0.107398      8.000000
 
 TETIRR: Found    703 inequivalent tetrahedra from     3072


--------------------------------------------------------------------------------------------------------




 Dimension of arrays:
   k-points           NKPTS =     40   k-points in BZ     NKDIM =     40   number of bands    NBANDS=     32
   number of dos      NEDOS =    301   number of ions     NIONS =      5
   non local maximal  LDIM  =      6   non local SUM 2l+1 LMDIM =     18
   total plane-waves  NPLWV =  27000
   max r-space proj   IRMAX =   8114   max aug-charges    IRDMAX=  25793
   dimension x,y,z NGX =    30 NGY =   30 NGZ =   30
   dimension x,y,z NGXF=    60 NGYF=   60 NGZF=   60
   support grid    NGXF=    60 NGYF=   60 NGZF=   60
   ions per type =               1   1   3
 NGX,Y,Z   is equivalent  to a cutoff of  12.39, 12.39, 12.24 a.u.
 NGXF,Y,Z  is equivalent  to a cutoff of  24.78, 24.78, 24.49 a.u.


 I would recommend the setting:
   dimension x,y,z NGX =    30 NGY =   30 NGZ =   30
 SYSTEM =  unknown system                          
 POSCAR =  Ba1 Ti1 O3                              

 Startparameter for this run:
   NWRITE =      2    write-flag & timer
   PREC   = accura    normal or accurate (medium, high low for compatibility)
   ISTART =      0    job   : 0-new  1-cont  2-samecut
   ICHARG =      0    charge: 1-file 2-atom 10-const
   ISPIN  =      2    spin polarized calculation?
   LNONCOLLINEAR =      F non collinear calculations
   LSORBIT =      F    spin-orbit coupling
   INIWAV =      1    electr: 0-lowe 1-rand  2-diag
   LASPH  =      F    aspherical Exc in radial PAW
   METAGGA=      F    non-selfconsistent MetaGGA calc.

 Electronic Relaxation 1
   ENCUT  =  520.0 eV  38.22 Ry    6.18 a.u.   7.49  7.49  7.57*2*pi/ulx,y,z
   ENINI  =  520.0     initial cutoff
   ENAUG  =  605.4 eV  augmentation charge cutoff
   NELM   =    100;   NELMIN=  2; NELMDL= -5     # of ELM steps 
   EDIFF  = 0.3E-03   stopping-criterion for ELM
   LREAL  =      T    real-space projection
   NLSPLINE    = F    spline interpolate recip. space projectors
   LCOMPAT=      F    compatible to vasp.4.4
   GGA_COMPAT  = T    GGA compatible to vasp.4.4-vasp.4.6
   LMAXPAW     = -100 max onsite density
   LMAXMIX     =    2 max onsite mixed and CHGCAR
   VOSKOWN=      0    Vosko Wilk Nusair interpolation
   ROPT   =   -0.00025  -0.00025  -0.00025
 Ionic relaxation
   EDIFFG = 0.3E-02   stopping-criterion for IOM
   NSW    =      0    number of steps for IOM
   NBLOCK =      1;   KBLOCK =      1    inner block; outer block 
   IBRION =     -1    ionic relax: 0-MD 1-quasi-New 2-CG
   NFREE  =      0    steps in history (QN), initial steepest desc. (CG)
   ISIF   =      3    stress and relaxation
   IWAVPR =     10    prediction:  0-non 1-charg 2-wave 3-comb
   ISYM   =      2    0-nonsym 1-usesym 2-fastsym
   LCORR  =      T    Harris-Foulkes like correction to forces

   POTIM  = 0.5000    time-step for ionic-motion
   TEIN   =    0.0    initial temperature
   TEBEG  =    0.0;   TEEND  =   0.0 temperature during run
   SMASS  =  -3.00    Nose mass-parameter (am)
   estimated Nose-frequenzy (Omega)   =  0.10E-29 period in steps =****** mass=  -0.370E-27a.u.
   SCALEE = 1.0000    scale energy and forces
   NPACO  =    256;   APACO  = 16.0  distance and # of slots for P.C.
   PSTRESS=    0.0 pullay stress

  Mass of Ions in am
   POMASS = 137.33 47.88 16.00
  Ionic Valenz
   ZVAL   =  10.00 10.00  6.00
  Atomic Wigner-Seitz radii
   RWIGS  =  -1.00 -1.00 -1.00
  virtual crystal weights 
   VCA    =   1.00  1.00  1.00
   NELECT =      38.0000    total number of electrons
   NUPDOWN=      -1.0000    fix difference up-down

 DOS related values:
   EMIN   =  10.00;   EMAX   =-10.00  energy-range for DOS
   EFERMI =   0.00
   ISMEAR =    -5;   SIGMA  =   0.05  broadening in eV -4-tet -1-fermi 0-gaus

 Electronic relaxation 2 (details)
   IALGO  =     38    algorithm
   LDIAG  =      T    sub-space diagonalisation (order eigenvalues)
   LSUBROT=      F    optimize rotation matrix (better conditioning)
   TURBO    =      0    0=normal 1=particle mesh
   IRESTART =      0    0=no restart 2=restart with 2 vectors
   NREBOOT  =      0    no. of reboots
   NMIN     =      0    reboot dimension
   EREF     =   0.00    reference energy to select bands
   IMIX   =      4    mixing-type and parameters
     AMIX     =   0.40;   BMIX     =  1.00
     AMIX_MAG =   1.60;   BMIX_MAG =  1.00
     AMIN     =   0.10
     WC   =   100.;   INIMIX=   1;  MIXPRE=   1;  MAXMIX= -45

 Intra band minimization:
   WEIMIN = 0.0000     energy-eigenvalue tresh-hold
   EBREAK =  0.20E-05  absolut break condition
   DEPER  =   0.30     relativ break condition  

   TIME   =   0.40     timestep for ELM

  volume/ion in A,a.u.               =      13.21        89.12
  Fermi-wavevector in a.u.,A,eV,Ry     =   1.361734  2.573303 25.229531  1.854318
  Thomas-Fermi vector in A             =   2.488284
 
 Write flags
   LWAVE  =      T    write WAVECAR
   LCHARG =      T    write CHGCAR
   LVTOT  =      F    write LOCPOT, total local potential
   LVHAR  =      T    write LOCPOT, Hartree potential only
   LELF   =      F    write electronic localiz. function (ELF)
   LORBIT =     11    0 simple, 1 ext, 2 COOP (PROOUT)


 Dipole corrections
   LMONO  =      F    monopole corrections only (constant potential shift)
   LDIPOL =      F    correct potential (dipole corrections)
   IDIPOL =      0    1-x, 2-y, 3-z, 4-all directions 
   EPSILON=  1.0000000 bulk dielectric constant

 Exchange correlation treatment:
   GGA     =    --    GGA type
   LEXCH   =     8    internal setting for exchange type
   VOSKOWN=      0    Vosko Wilk Nusair interpolation
   LHFCALC =     F    Hartree Fock is set to
   LHFONE  =     F    Hartree Fock one center treatment
   AEXX    =    0.0000 exact exchange contribution

 Linear response parameters
   LEPSILON=     F    determine dielectric tensor
   LRPA    =     F    only Hartree local field effects (RPA)
   LNABLA  =     F    use nabla operator in PAW spheres
   LVEL    =     F    velocity operator in full k-point grid
   LINTERFAST=   F  fast interpolation
   KINTER  =     0    interpolate to denser k-point grid
   CSHIFT  =0.1000    complex shift for real part using Kramers Kronig
   OMEGAMAX=  -1.0    maximum frequency
   DEG_THRESHOLD= 0.2000000E-02 threshold for treating states as degnerate
   RTIME   =    0.100 relaxation time in fs

 Orbital magnetization related:
   ORBITALMAG=     F  switch on orbital magnetization
   LCHIMAG   =     F  perturbation theory with respect to B field
   DQ        =  0.001000  dq finite difference perturbation B field



--------------------------------------------------------------------------------------------------------


 Static calculation
 charge density and potential will be updated during run
 spin polarized calculation
 Variant of blocked Davidson
 Davidson routine will perform the subspace rotation
 perform sub-space diagonalisation
    after iterative eigenvector-optimisation
 modified Broyden-mixing scheme, WC =      100.0
 initial mixing is a Kerker type mixing with AMIX =  0.4000 and BMIX =      1.0000
 Hartree-type preconditioning will be used
 using additional bands           13
 real space projection scheme for non local part
 use partial core corrections
 calculate Harris-corrections to forces 
   (improved forces if not selfconsistent)
 use gradient corrections 
 use of overlap-Matrix (Vanderbilt PP)
 Fermi weights with tetrahedron method with Bloechl corrections


--------------------------------------------------------------------------------------------------------


  energy-cutoff  :      520.00
  volume of cell :       66.03
      direct lattice vectors                 reciprocal lattice vectors
     4.026005000  0.000000000  0.000000000     0.248385186  0.000000000  0.000000000
     0.000000000  4.026005000  0.000000000     0.000000000  0.248385186  0.000000000
     0.000000000  0.000000000  4.073644000     0.000000000  0.000000000  0.245480459

  length of vectors
     4.026005000  4.026005000  4.073644000     0.248385186  0.248385186  0.245480459


 
 k-points in units of 2pi/SCALE and weight: pymatgen generated KPOINTS with grid den
   0.01552407  0.01552407  0.01534253       0.016
   0.04657222  0.01552407  0.01534253       0.031
   0.07762037  0.01552407  0.01534253       0.031
   0.10866852  0.01552407  0.01534253       0.031
   0.04657222  0.04657222  0.01534253       0.016
   0.07762037  0.04657222  0.01534253       0.031
   0.10866852  0.04657222  0.01534253       0.031
   0.07762037  0.07762037  0.01534253       0.016
   0.10866852  0.07762037  0.01534253       0.031
   0.10866852  0.10866852  0.01534253       0.016
   0.01552407  0.01552407  0.04602759       0.016
   0.04657222  0.01552407  0.04602759       0.031
   0.07762037  0.01552407  0.04602759       0.031
   0.10866852  0.01552407  0.04602759       0.031
   0.04657222  0.04657222  0.04602759       0.016
   0.07762037  0.04657222  0.04602759       0.031
   0.10866852  0.04657222  0.04602759       0.031
   0.07762037  0.07762037  0.04602759       0.016
   0.10866852  0.07762037  0.04602759       0.031
   0.10866852  0.10866852  0.04602759       0.016
   0.01552407  0.01552407  0.07671264       0.016
   0.04657222  0.01552407  0.07671264       0.031
   0.07762037  0.01552407  0.07671264       0.031
   0.10866852  0.01552407  0.07671264       0.031
   0.04657222  0.04657222  0.07671264       0.016
   0.07762037  0.04657222  0.07671264       0.031
   0.10866852  0.04657222  0.07671264       0.031
   0.07762037  0.07762037  0.07671264       0.016
   0.10866852  0.07762037  0.07671264       0.031
   0.10866852  0.10866852  0.07671264       0.016
   0.01552407  0.01552407  0.10739770       0.016
   0.04657222  0.01552407  0.10739770       0.031
   0.07762037  0.01552407  0.10739770       0.031
   0.10866852  0.01552407  0.10739770       0.031
   0.04657222  0.04657222  0.10739770       0.016
   0.07762037  0.04657222  0.10739770       0.031
   0.10866852  0.04657222  0.10739770       0.031
   0.07762037  0.07762037  0.10739770       0.016
   0.10866852  0.07762037  0.10739770       0.031
   0.10866852  0.10866852  0.10739770       0.016
 
 k-points in reciprocal lattice and weights: pymatgen generated KPOINTS with grid den
   0.06250000  0.06250000  0.06250000       0.016
   0.18750000  0.06250000  0.06250000       0.031
   0.31250000  0.06250000  0.06250000       0.031
   0.43750000  0.06250000  0.06250000       0.031
   0.18750000  0.18750000  0.06250000       0.016
   0.31250000  0.18750000  0.06250000       0.031
   0.43750000  0.18750000  0.06250000       0.031
   0.31250000  0.31250000  0.06250000       0.016
   0.43750000  0.31250000  0.06250000       0.031
   0.43750000  0.43750000  0.06250000       0.016
   0.06250000  0.06250000  0.18750000       0.016
   0.18750000  0.06250000  0.18750000       0.031
   0.31250000  0.06250000  0.18750000       0.031
   0.43750000  0.06250000  0.18750000       0.031
   0.18750000  0.18750000  0.18750000       0.016
   0.31250000  0.18750000  0.18750000       0.031
   0.43750000  0.18750000  0.18750000       0.031
   0.31250000  0.31250000  0.18750000       0.016
   0.43750000  0.31250000  0.18750000       0.031
   0.43750000  0.43750000  0.18750000       0.016
   0.06250000  0.06250000  0.31250000       0.016
   0.18750000  0.06250000  0.31250000       0.031
   0.31250000  0.06250000  0.31250000       0.031
   0.43750000  0.06250000  0.31250000       0.031
   0.18750000  0.18750000  0.31250000       0.016
   0.31250000  0.18750000  0.31250000       0.031
   0.43750000  0.18750000  0.31250000       0.031
   0.31250000  0.31250000  0.31250000       0.016
   0.43750000  0.31250000  0.31250000       0.031
   0.43750000  0.43750000  0.31250000       0.016
   0.06250000  0.06250000  0.43750000       0.016
   0.18750000  0.06250000  0.43750000       0.031
   0.31250000  0.06250000  0.43750000       0.031
   0.43750000  0.06250000  0.43750000       0.031
   0.18750000  0.18750000  0.43750000       0.016
   0.31250000  0.18750000  0.43750000       0.031
   0.43750000  0.18750000  0.43750000       0.031
   0.31250000  0.31250000  0.43750000       0.016
   0.43750000  0.31250000  0.43750000       0.031
   0.43750000  0.43750000  0.43750000       0.016
 
 position of ions in fractional coordinates (direct lattice) 
   0.00000000  0.00000000  0.00668300
   0.50000000  0.50000000  0.51081200
   0.00000000  0.50000000  0.50040500
   0.50000000  0.00000000  0.50040500
   0.50000000  0.50000000  0.99569500
 
 position of ions in cartesian coordinates  (Angst):
   0.00000000  0.00000000  0.02722416
   2.01300250  2.01300250  2.08086624
   0.00000000  2.01300250  2.03847183
   2.01300250  0.00000000  2.03847183
   2.01300250  2.01300250  4.05610696
 


--------------------------------------------------------------------------------------------------------


 k-point  1 :   0.0625 0.0625 0.0625  plane waves:    1792
 k-point  2 :   0.1875 0.0625 0.0625  plane waves:    1787
 k-point  3 :   0.3125 0.0625 0.0625  plane waves:    1778
 k-point  4 :   0.4375 0.0625 0.0625  plane waves:    1780
 k-point  5 :   0.1875 0.1875 0.0625  plane waves:    1784
 k-point  6 :   0.3125 0.1875 0.0625  plane waves:    1783
 k-point  7 :   0.4375 0.1875 0.0625  plane waves:    1785
 k-point  8 :   0.3125 0.3125 0.0625  plane waves:    1780
 k-point  9 :   0.4375 0.3125 0.0625  plane waves:    1769
 k-point 10 :   0.4375 0.4375 0.0625  plane waves:    1768
 k-point 11 :   0.0625 0.0625 0.1875  plane waves:    1796
 k-point 12 :   0.1875 0.0625 0.1875  plane waves:    1783
 k-point 13 :   0.3125 0.0625 0.1875  plane waves:    1789
 k-point 14 :   0.4375 0.0625 0.1875  plane waves:    1776
 k-point 15 :   0.1875 0.1875 0.1875  plane waves:    1785
 k-point 16 :   0.3125 0.1875 0.1875  plane waves:    1784
 k-point 17 :   0.4375 0.1875 0.1875  plane waves:    1776
 k-point 18 :   0.3125 0.3125 0.1875  plane waves:    1779
 k-point 19 :   0.4375 0.3125 0.1875  plane waves:    1766
 k-point 20 :   0.4375 0.4375 0.1875  plane waves:    1768
 k-point 21 :   0.0625 0.0625 0.3125  plane waves:    1779
 k-point 22 :   0.1875 0.0625 0.3125  plane waves:    1787
 k-point 23 :   0.3125 0.0625 0.3125  plane waves:    1783
 k-point 24 :   0.4375 0.0625 0.3125  plane waves:    1773
 k-point 25 :   0.1875 0.1875 0.3125  plane waves:    1780
 k-point 26 :   0.3125 0.1875 0.3125  plane waves:    1775
 k-point 27 :   0.4375 0.1875 0.3125  plane waves:    1771
 k-point 28 :   0.3125 0.3125 0.3125  plane waves:    1775
 k-point 29 :   0.4375 0.3125 0.3125  plane waves:    1775
 k-point 30 :   0.4375 0.4375 0.3125  plane waves:    1770
 k-point 31 :   0.0625 0.0625 0.4375  plane waves:    1787
 k-point 32 :   0.1875 0.0625 0.4375  plane waves:    1784
 k-point 33 :   0.3125 0.0625 0.4375  plane waves:    1770
 k-point 34 :   0.4375 0.0625 0.4375  plane waves:    1757
 k-point 35 :   0.1875 0.1875 0.4375  plane waves:    1774
 k-point 36 :   0.3125 0.1875 0.4375  plane waves:    1777
 k-point 37 :   0.4375 0.1875 0.4375  plane waves:    1766
 k-point 38 :   0.3125 0.3125 0.4375  plane waves:    1774
 k-point 39 :   0.4375 0.3125 0.4375  plane waves:    1776
 k-point 40 :   0.4375 0.4375 0.4375  plane waves:    1782

 maximum and minimum number of plane-waves per node :      1796     1757

 maximum number of plane-waves:      1796
 maximum index in each direction: 
   IXMAX=    7   IYMAX=    7   IZMAX=    7
   IXMIN=   -7   IYMIN=   -7   IZMIN=   -8

 NGX is ok and might be reduce to  30
 NGY is ok and might be reduce to  30
 WARNING: aliasing errors must be expected set NGZ to  32 to avoid them
 aliasing errors are usually negligible using standard VASP settings
 and one can safely disregard these warnings

 serial   3D FFT for wavefunctions
 parallel 3D FFT for charge:
    minimum data exchange during FFTs selected (reduces bandwidth)


 total amount of memory used by VASP on root node    48908. kBytes
========================================================================

   base      :      30000. kBytes
   nonlr-proj:       3322. kBytes
   fftplans  :       1096. kBytes
   grid      :       4792. kBytes
   one-center:        155. kBytes
   wavefun   :       9543. kBytes
 
     INWAV:  cpu time    0.00: real time    0.00
 Broyden mixing: mesh for mixing (old mesh)
   NGX = 15   NGY = 15   NGZ = 15
  (NGX  = 60   NGY  = 60   NGZ  = 60)
  gives a total of   3375 points

 charge density for first step will be calculated from the start-wavefunctions


--------------------------------------------------------------------------------------------------------


 Maximum index for non-local projection operator         7829
 Maximum index for augmentation-charges         3635 (set IRDMAX)


--------------------------------------------------------------------------------------------------------


 initial charge from wavefunction
 First call to EWALD:  gamma=   0.439
 Maximum number of real-space cells 3x 3x 3
 Maximum number of reciprocal cells 3x 3x 3

 FEWALD executed in parallel
    FEWALD:  cpu time    0.00: real time    0.00


----------------------------------------- Iteration    1(   1)  ---------------------------------------


    POTLOK:  cpu time    0.08: real time    0.08
    SETDIJ:  cpu time    0.02: real time    0.02
     EDDAV:  cpu time    9.63: real time    9.63
 BZINTS: Fermi energy:-25.006293; 38.000000 electrons
         Band energy:***********;  BLOECHL correction: -1.006895
       DOS:  cpu time    0.10: real time    0.10
    --------------------------------------------
      LOOP:  cpu time    9.82: real time    9.83

 eigenvalue-minimisations  :  6280
 total energy-change (2. order) :-0.8977210E+03  (-0.3427019E+04)
 number of electron      37.9999997 magnetization      -0.0000000
 augmentation part       -1.2411055 magnetization      -0.0234840

 Free energy of the ion-electron system (eV)
  ---------------------------------------------------
  alpha Z        PSCENC =       253.77267845
  Ewald energy   TEWEN  =     -2500.93324040
  -Hartree energ DENC   =       -62.04407187
  -exchange      EXHF   =         0.00000000
  -V(xc)+E(xc)   XCENC  =       115.74832581
  PAW double counting   =    111390.53798416  -111390.03545325
  entropy T*S    EENTRO =         0.00000000
  eigenvalues    EBANDS =     -1745.29426025
  atomic energy  EATOM  =      3040.52701931
  ---------------------------------------------------
  free energy    TOTEN  =      -897.72101805 eV

  energy without entropy =     -897.72101805  energy(sigma->0) =     -897.72101805


--------------------------------------------------------------------------------------------------------




----------------------------------------- Iteration    1(   2)  ---------------------------------------


     EDDAV:  cpu time    8.27: real time    8.27
 BZINTS: Fermi energy:-42.159809; 38.000000 electrons
         Band energy:***********;  BLOECHL correction: -0.011904
       DOS:  cpu time    0.09: real time    0.09
    --------------------------------------------
      LOOP:  cpu time    8.37: real time    8.38

 eigenvalue-minimisations  :  5200
 total energy-change (2. order) :-0.4079242E+03  (-0.3910830E+03)
 number of electron      37.9999997 magnetization      -0.0000000
 augmentation part       -1.2411055 magnetization      -0.0234840

 Free energy of the ion-electron system (eV)
  ---------------------------------------------------
  alpha Z        PSCENC =       253.77267845
  Ewald energy   TEWEN  =     -2500.93324040
  -Hartree energ DENC   =       -62.04407187
  -exchange      EXHF   =         0.00000000
  -V(xc)+E(xc)   XCENC  =       115.74832581
  PAW double counting   =    111390.53798416  -111390.03545325
  entropy T*S    EENTRO =         0.00000000
  eigenvalues    EBANDS =     -2153.21844991
  atomic energy  EATOM  =      3040.52701931
  ---------------------------------------------------
  free energy    TOTEN  =     -1305.64520771 eV

  energy without entropy =    -1305.64520771  energy(sigma->0) =    -1305.64520771


--------------------------------------------------------------------------------------------------------




----------------------------------------- Iteration    1(   3)  ---------------------------------------


     EDDAV:  cpu time    9.75: real time    9.75
 BZINTS: Fermi energy:-42.812583; 38.000000 electrons
         Band energy:***********;  BLOECHL correction:  0.000000
       DOS:  cpu time    0.01: real time    0.01
    --------------------------------------------
      LOOP:  cpu time    9.77: real time   10.30

 eigenvalue-minimisations  :  6360
 total energy-change (2. order) :-0.2556961E+02  (-0.2534342E+02)
 number of electron      37.9999997 magnetization      -0.0000000
 augmentation part       -1.2411055 magnetization      -0.0234840

 Free energy of the ion-electron system (eV)
  ---------------------------------------------------
  alpha Z        PSCENC =       253.77267845
  Ewald energy   TEWEN  =     -2500.93324040
  -Hartree energ DENC   =       -62.04407187
  -exchange      EXHF   =         0.00000000
  -V(xc)+E(xc)   XCENC  =       115.74832581
  PAW double counting   =    111390.53798416  -111390.03545325
  entropy T*S    EENTRO =         0.00000000
  eigenvalues    EBANDS =     -2178.78805630
  atomic energy  EATOM  =      3040.52701931
  ---------------------------------------------------
  free energy    TOTEN  =     -1331.21481410 eV

  energy without entropy =    -1331.21481410  energy(sigma->0) =    -1331.21481410


--------------------------------------------------------------------------------------------------------




----------------------------------------- Iteration    1(   4)  ---------------------------------------


     EDDAV:  cpu time   11.03: real time   11.02
 BZINTS: Fermi energy:-42.694975; 38.000000 electrons
         Band energy:***********;  BLOECHL correction:  0.000000
       DOS:  cpu time    0.02: real time    0.02
    --------------------------------------------
      LOOP:  cpu time   11.04: real time   11.06

 eigenvalue-minimisations  :  6944
 total energy-change (2. order) :-0.7829070E+00  (-0.7826578E+00)
 number of electron      37.9999997 magnetization      -0.0000000
 augmentation part       -1.2411055 magnetization      -0.0234840

 Free energy of the ion-electron system (eV)
  ---------------------------------------------------
  alpha Z        PSCENC =       253.77267845
  Ewald energy   TEWEN  =     -2500.93324040
  -Hartree energ DENC   =       -62.04407187
  -exchange      EXHF   =         0.00000000
  -V(xc)+E(xc)   XCENC  =       115.74832581
  PAW double counting   =    111390.53798416  -111390.03545325
  entropy T*S    EENTRO =         0.00000000
  eigenvalues    EBANDS =     -2179.57096332
  atomic energy  EATOM  =      3040.52701931
  ---------------------------------------------------
  free energy    TOTEN  =     -1331.99772112 eV

  energy without entropy =    -1331.99772112  energy(sigma->0) =    -1331.99772112


--------------------------------------------------------------------------------------------------------




----------------------------------------- Iteration    1(   5)  ---------------------------------------


     EDDAV:  cpu time   11.55: real time   11.55
 BZINTS: Fermi energy:-42.821213; 38.000000 electrons
         Band energy:***********;  BLOECHL correction:  0.000000
       DOS:  cpu time    0.02: real time    0.02
    CHARGE:  cpu time    0.44: real time    0.44
    MIXING:  cpu time    0.00: real time    0.00
    --------------------------------------------
      LOOP:  cpu time   12.01: real time   18.37

 eigenvalue-minimisations  :  7776
 total energy-change (2. order) :-0.2906713E-01  (-0.2906668E-01)
 number of electron      37.9999972 magnetization       0.0000000
 augmentation part       15.8024987 magnetization       0.0002346

 Broyden mixing:
  rms(total) = 0.38717E+02    rms(broyden)= 0.38709E+02
  rms(prec ) = 0.57412E+02
  weight for this iteration     100.00

 Free energy of the ion-electron system (eV)
  ---------------------------------------------------
  alpha Z        PSCENC =       253.77267845
  Ewald energy   TEWEN  =     -2500.93324040
  -Hartree energ DENC   =       -62.04407187
  -exchange      EXHF   =         0.00000000
  -V(xc)+E(xc)   XCENC  =       115.74832581
  PAW double counting   =    111390.53798416  -111390.03545325
  entropy T*S    EENTRO =         0.00000000
  eigenvalues    EBANDS =     -2179.60003045
  atomic energy  EATOM  =      3040.52701931
  ---------------------------------------------------
  free energy    TOTEN  =     -1332.02678825 eV

  energy without entropy =    -1332.02678825  energy(sigma->0) =    -1332.02678825


--------------------------------------------------------------------------------------------------------




----------------------------------------- Iteration    1(   6)  ---------------------------------------


    POTLOK:  cpu time    0.08: real time    0.08
    SETDIJ:  cpu time    0.02: real time    0.02
     EDDAV:  cpu time   13.01: real time   13.01
 BZINTS: Fermi energy: -2.893545; 38.000000 electrons
         Band energy:-667.294222;  BLOECHL correction:  0.000000
       DOS:  cpu time    0.02: real time    0.02
    CHARGE:  cpu time    0.44: real time    0.44
    MIXING:  cpu time    0.00: real time    0.00
    --------------------------------------------
      LOOP:  cpu time   13.58: real time   13.59

 eigenvalue-minimisations  :  8728
 total energy-change (2. order) : 0.1092728E+04  (-0.3585259E+03)
 number of electron      37.9999960 magnetization      -0.0000000
 augmentation part        6.7249956 magnetization      -0.0029660

 Broyden mixing:
  rms(total) = 0.25245E+02    rms(broyden)= 0.25243E+02
  rms(prec ) = 0.29797E+02
  weight for this iteration     100.00

 eigenvalues of (default mixing * dielectric matrix)
  average eigenvalue GAMMA=   0.6433
  0.6433

 Free energy of the ion-electron system (eV)
  ---------------------------------------------------
  alpha Z        PSCENC =       253.77267845
  Ewald energy   TEWEN  =     -2500.93324040
  -Hartree energ DENC   =      -477.95329087
  -exchange      EXHF   =         0.00000000
  -V(xc)+E(xc)   XCENC  =       136.81150744
  PAW double counting   =    204603.76689428  -204627.99640724
  entropy T*S    EENTRO =         0.00000000
  eigenvalues    EBANDS =      -667.29422208
  atomic energy  EATOM  =      3040.52701931
  ---------------------------------------------------
  free energy    TOTEN  =      -239.29906111 eV

  energy without entropy =     -239.29906111  energy(sigma->0) =     -239.29906111


--------------------------------------------------------------------------------------------------------




----------------------------------------- Iteration    1(   7)  ---------------------------------------


    POTLOK:  cpu time    0.08: real time    0.08
    SETDIJ:  cpu time    0.02: real time    0.02
     EDDAV:  cpu time    9.41: real time    9.41
 BZINTS: Fermi energy:  1.226965; 38.000000 electrons
         Band energy:-454.779364;  BLOECHL correction:  0.000000
       DOS:  cpu time    0.02: real time    0.02
    CHARGE:  cpu time    0.44: real time    0.44
    MIXING:  cpu time    0.00: real time    0.00
    --------------------------------------------
      LOOP:  cpu time    9.96: real time    9.97

 eigenvalue-minimisations  :  5968
 total energy-change (2. order) : 0.1510146E+03  (-0.3483280E+02)
 number of electron      37.9999970 magnetization       0.0000000
 augmentation part        5.2833258 magnetization      -0.0020241

 Broyden mixing:
  rms(total) = 0.16476E+02    rms(broyden)= 0.16475E+02
  rms(prec ) = 0.18595E+02
  weight for this iteration     100.00

 eigenvalues of (default mixing * dielectric matrix)
  average eigenvalue GAMMA=   1.3371
  1.1536  1.5207

 Free energy of the ion-electron system (eV)
  ---------------------------------------------------
  alpha Z        PSCENC =       253.77267845
  Ewald energy   TEWEN  =     -2500.93324040
  -Hartree energ DENC   =      -545.95854403
  -exchange      EXHF   =         0.00000000
  -V(xc)+E(xc)   XCENC  =       142.04894811
  PAW double counting   =    105318.36790888  -105341.32983931
  entropy T*S    EENTRO =         0.00000000
  eigenvalues    EBANDS =      -454.77936417
  atomic energy  EATOM  =      3040.52701931
  ---------------------------------------------------
  free energy    TOTEN  =       -88.28443317 eV

  energy without entropy =      -88.28443317  energy(sigma->0) =      -88.28443317


--------------------------------------------------------------------------------------------------------




----------------------------------------- Iteration    1(   8)  ---------------------------------------


    POTLOK:  cpu time    0.08: real time    0.08
    SETDIJ:  cpu time    0.02: real time    0.02
     EDDAV:  cpu time    9.86: real time    9.86
 BZINTS: Fermi energy:  3.425868; 38.000000 electrons
         Band energy:-364.765940;  BLOECHL correction: -0.057172
       DOS:  cpu time    0.10: real time    0.10
    CHARGE:  cpu time    0.44: real time    0.44
    MIXING:  cpu time    0.00: real time    0.00
    --------------------------------------------
      LOOP:  cpu time   10.50: real time   11.15

 eigenvalue-minimisations  :  6312
 total energy-change (2. order) : 0.2857372E+02  (-0.2302786E+02)
 number of electron      37.9999992 magnetization       0.0015340
 augmentation part        7.5228426 magnetization      -0.0123360

 Broyden mixing:
  rms(total) = 0.79632E+01    rms(broyden)= 0.79622E+01
  rms(prec ) = 0.14703E+02
  weight for this iteration     100.00

 eigenvalues of (default mixing * dielectric matrix)
  average eigenvalue GAMMA=   1.0056
  1.5417  1.1731  0.3018

 Free energy of the ion-electron system (eV)
  ---------------------------------------------------
  alpha Z        PSCENC =       253.77267845
  Ewald energy   TEWEN  =     -2500.93324040
  -Hartree energ DENC   =      -618.81371507
  -exchange      EXHF   =         0.00000000
  -V(xc)+E(xc)   XCENC  =       146.12685909
  PAW double counting   =     22829.85013970   -22845.47451508
  entropy T*S    EENTRO =         0.00000000
  eigenvalues    EBANDS =      -364.76593959
  atomic energy  EATOM  =      3040.52701931
  ---------------------------------------------------
  free energy    TOTEN  =       -59.71071358 eV

  energy without entropy =      -59.71071358  energy(sigma->0) =      -59.71071358


--------------------------------------------------------------------------------------------------------




----------------------------------------- Iteration    1(   9)  ---------------------------------------


    POTLOK:  cpu time    0.11: real time    0.11
    SETDIJ:  cpu time    0.02: real time    0.02
     EDDAV:  cpu time   10.38: real time   10.38
 BZINTS: Fermi energy:  3.709019; 38.000000 electrons
         Band energy:-357.607130;  BLOECHL correction: -0.051101
       DOS:  cpu time    0.09: real time    0.09
    CHARGE:  cpu time    0.44: real time    0.44
    MIXING:  cpu time    0.00: real time    0.00
    --------------------------------------------
      LOOP:  cpu time   11.04: real time   11.14

 eigenvalue-minimisations  :  6336
 total energy-change (2. order) : 0.4925316E+01  (-0.2648830E+01)
 number of electron      37.9999991 magnetization      -0.0433396
 augmentation part        6.6675850 magnetization      -0.0537010

 Broyden mixing:
  rms(total) = 0.77401E+01    rms(broyden)= 0.77401E+01
  rms(prec ) = 0.12746E+02
  weight for this iteration     100.00

 eigenvalues of (default mixing * dielectric matrix)
  average eigenvalue GAMMA=   0.9448
  1.4651  1.4651  0.5268  0.3223

 Free energy of the ion-electron system (eV)
  ---------------------------------------------------
  alpha Z        PSCENC =       253.77267845
  Ewald energy   TEWEN  =     -2500.93324040
  -Hartree energ DENC   =      -621.33613995
  -exchange      EXHF   =         0.00000000
  -V(xc)+E(xc)   XCENC  =       146.14596524
  PAW double counting   =     22218.66807381   -22234.02262382
  entropy T*S    EENTRO =         0.00000000
  eigenvalues    EBANDS =      -357.60712981
  atomic energy  EATOM  =      3040.52701931
  ---------------------------------------------------
  free energy    TOTEN  =       -54.78539718 eV

  energy without entropy =      -54.78539718  energy(sigma->0) =      -54.78539718


--------------------------------------------------------------------------------------------------------




----------------------------------------- Iteration    1(  10)  ---------------------------------------


    POTLOK:  cpu time    0.08: real time    0.08
    SETDIJ:  cpu time    0.02: real time    0.02
     EDDAV:  cpu time    9.74: real time    9.74
 BZINTS: Fermi energy:  0.419065; 38.000000 electrons
         Band energy:-453.890850;  BLOECHL correction: -0.041419
       DOS:  cpu time    0.10: real time    0.10
    CHARGE:  cpu time    0.44: real time    0.44
    MIXING:  cpu time    0.00: real time    0.00
    --------------------------------------------
      LOOP:  cpu time   10.38: real time   10.38

 eigenvalue-minimisations  :  5872
 total energy-change (2. order) :-0.6444667E+01  (-0.4490895E+01)
 number of electron      37.9999989 magnetization      -0.1172939
 augmentation part        8.3482211 magnetization      -0.0617800

 Broyden mixing:
  rms(total) = 0.63317E+01    rms(broyden)= 0.63311E+01
  rms(prec ) = 0.14750E+02
  weight for this iteration     100.00

 eigenvalues of (default mixing * dielectric matrix)
  average eigenvalue GAMMA=   1.0927
  1.9379  1.9379  0.8543  0.4595  0.2739

 Free energy of the ion-electron system (eV)
  ---------------------------------------------------
  alpha Z        PSCENC =       253.77267845
  Ewald energy   TEWEN  =     -2500.93324040
  -Hartree energ DENC   =      -529.94099444
  -exchange      EXHF   =         0.00000000
  -V(xc)+E(xc)   XCENC  =       140.02998908
  PAW double counting   =     16616.43729828   -16627.23196419
  entropy T*S    EENTRO =         0.00000000
  eigenvalues    EBANDS =      -453.89085010
  atomic energy  EATOM  =      3040.52701931
  ---------------------------------------------------
  free energy    TOTEN  =       -61.23006402 eV

  energy without entropy =      -61.23006402  energy(sigma->0) =      -61.23006402


--------------------------------------------------------------------------------------------------------




----------------------------------------- Iteration    1(  11)  ---------------------------------------


    POTLOK:  cpu time    0.08: real time    0.08
    SETDIJ:  cpu time    0.02: real time    0.02
     EDDAV:  cpu time   11.34: real time   11.35
 BZINTS: Fermi energy: -0.465986; 38.000000 electrons
         Band energy:-479.580034;  BLOECHL correction: -0.008383
       DOS:  cpu time    0.09: real time    0.09
    CHARGE:  cpu time    0.44: real time    0.44
    MIXING:  cpu time    0.00: real time    0.00
    --------------------------------------------
      LOOP:  cpu time   11.97: real time   12.47

 eigenvalue-minimisations  :  7104
 total energy-change (2. order) : 0.3506332E+01  (-0.1509113E+02)
 number of electron      37.9999975 magnetization      -0.0929479
 augmentation part        5.9812176 magnetization      -0.0672984

 Broyden mixing:
  rms(total) = 0.37907E+01    rms(broyden)= 0.37895E+01
  rms(prec ) = 0.64803E+01
  weight for this iteration     100.00

 eigenvalues of (default mixing * dielectric matrix)
  average eigenvalue GAMMA=   0.9915
  2.5968  0.9673  0.9467  0.9467  0.2458  0.2458

 Free energy of the ion-electron system (eV)
  ---------------------------------------------------
  alpha Z        PSCENC =       253.77267845
  Ewald energy   TEWEN  =     -2500.93324040
  -Hartree energ DENC   =      -502.19873171
  -exchange      EXHF   =         0.00000000
  -V(xc)+E(xc)   XCENC  =       137.28327010
  PAW double counting   =      9943.87492306    -9950.46961706
  entropy T*S    EENTRO =         0.00000000
  eigenvalues    EBANDS =      -479.58003367
  atomic energy  EATOM  =      3040.52701931
  ---------------------------------------------------
  free energy    TOTEN  =       -57.72373191 eV

  energy without entropy =      -57.72373191  energy(sigma->0) =      -57.72373191


--------------------------------------------------------------------------------------------------------




----------------------------------------- Iteration    1(  12)  ---------------------------------------


    POTLOK:  cpu time    0.08: real time    0.08
    SETDIJ:  cpu time    0.02: real time    0.02
     EDDAV:  cpu time   10.28: real time   10.27
 BZINTS: Fermi energy:  1.042514; 38.000000 electrons
         Band energy:-411.468001;  BLOECHL correction: -0.054539
       DOS:  cpu time    0.10: real time    0.10
    CHARGE:  cpu time    0.44: real time    0.44
    MIXING:  cpu time    0.00: real time    0.00
    --------------------------------------------
      LOOP:  cpu time   10.92: real time   10.91

 eigenvalue-minimisations  :  6648
 total energy-change (2. order) :-0.1068959E+02  (-0.1813818E+02)
 number of electron      37.9999989 magnetization      -0.1571770
 augmentation part        8.3489461 magnetization      -0.1012055

 Broyden mixing:
  rms(total) = 0.62636E+01    rms(broyden)= 0.62633E+01
  rms(prec ) = 0.15169E+02
  weight for this iteration     100.00

 eigenvalues of (default mixing * dielectric matrix)
  average eigenvalue GAMMA=   0.9074
  2.5353  1.0179  1.0179  0.9520  0.3100  0.3100  0.2091

 Free energy of the ion-electron system (eV)
  ---------------------------------------------------
  alpha Z        PSCENC =       253.77267845
  Ewald energy   TEWEN  =     -2500.93324040
  -Hartree energ DENC   =      -587.30426373
  -exchange      EXHF   =         0.00000000
  -V(xc)+E(xc)   XCENC  =       143.45922071
  PAW double counting   =      2890.52300479    -2896.98973826
  entropy T*S    EENTRO =         0.00000000
  eigenvalues    EBANDS =      -411.46800130
  atomic energy  EATOM  =      3040.52701931
  ---------------------------------------------------
  free energy    TOTEN  =       -68.41332043 eV

  energy without entropy =      -68.41332043  energy(sigma->0) =      -68.41332043


--------------------------------------------------------------------------------------------------------




----------------------------------------- Iteration    1(  13)  ---------------------------------------


    POTLOK:  cpu time    0.08: real time    0.08
    SETDIJ:  cpu time    0.02: real time    0.02
     EDDAV:  cpu time   10.22: real time   10.22
 BZINTS: Fermi energy:  1.351088; 38.000000 electrons
         Band energy:-393.279390;  BLOECHL correction:  0.000000
       DOS:  cpu time    0.02: real time    0.02
    CHARGE:  cpu time    0.44: real time    0.44
    MIXING:  cpu time    0.00: real time    0.00
    --------------------------------------------
      LOOP:  cpu time   10.78: real time   10.78

 eigenvalue-minimisations  :  6592
 total energy-change (2. order) : 0.2404681E+02  (-0.4243911E+01)
 number of electron      37.9999978 magnetization      -0.0668749
 augmentation part        5.5202376 magnetization      -0.0805003

 Broyden mixing:
  rms(total) = 0.15330E+01    rms(broyden)= 0.15320E+01
  rms(prec ) = 0.29321E+01
  weight for this iteration     100.00

 eigenvalues of (default mixing * dielectric matrix)
  average eigenvalue GAMMA=   0.8986
  2.3846  1.1023  1.1023  1.0802  0.6131  0.3471  0.3471  0.2119

 Free energy of the ion-electron system (eV)
  ---------------------------------------------------
  alpha Z        PSCENC =       253.77267845
  Ewald energy   TEWEN  =     -2500.93324040
  -Hartree energ DENC   =      -581.42786165
  -exchange      EXHF   =         0.00000000
  -V(xc)+E(xc)   XCENC  =       142.45796976
  PAW double counting   =      3182.85953164    -3188.34321691
  entropy T*S    EENTRO =         0.00000000
  eigenvalues    EBANDS =      -393.27938974
  atomic energy  EATOM  =      3040.52701931
  ---------------------------------------------------
  free energy    TOTEN  =       -44.36650954 eV

  energy without entropy =      -44.36650954  energy(sigma->0) =      -44.36650954


--------------------------------------------------------------------------------------------------------




----------------------------------------- Iteration    1(  14)  ---------------------------------------


    POTLOK:  cpu time    0.08: real time    0.08
    SETDIJ:  cpu time    0.02: real time    0.02
     EDDAV:  cpu time   10.05: real time   10.05
 BZINTS: Fermi energy:  1.586689; 38.000000 electrons
         Band energy:-376.214473;  BLOECHL correction:  0.000000
       DOS:  cpu time    0.02: real time    0.02
    CHARGE:  cpu time    0.44: real time    0.44
    MIXING:  cpu time    0.00: real time    0.00
    --------------------------------------------
      LOOP:  cpu time   10.61: real time   10.61

 eigenvalue-minimisations  :  6448
 total energy-change (2. order) : 0.2066163E+01  (-0.3416282E+00)
 number of electron      37.9999977 magnetization      -0.0420500
 augmentation part        5.2398603 magnetization      -0.0476938

 Broyden mixing:
  rms(total) = 0.12376E+01    rms(broyden)= 0.12375E+01
  rms(prec ) = 0.21765E+01
  weight for this iteration     100.00

 eigenvalues of (default mixing * dielectric matrix)
  average eigenvalue GAMMA=   0.8803
  2.3103  1.2054  1.0561  1.0561  0.6905  0.6905  0.3513  0.3513  0.2115

 Free energy of the ion-electron system (eV)
  ---------------------------------------------------
  alpha Z        PSCENC =       253.77267845
  Ewald energy   TEWEN  =     -2500.93324040
  -Hartree energ DENC   =      -596.61376251
  -exchange      EXHF   =         0.00000000
  -V(xc)+E(xc)   XCENC  =       143.37793844
  PAW double counting   =      3362.31323921    -3368.52974603
  entropy T*S    EENTRO =         0.00000000
  eigenvalues    EBANDS =      -376.21447337
  atomic energy  EATOM  =      3040.52701931
  ---------------------------------------------------
  free energy    TOTEN  =       -42.30034690 eV

  energy without entropy =      -42.30034690  energy(sigma->0) =      -42.30034690


--------------------------------------------------------------------------------------------------------




----------------------------------------- Iteration    1(  15)  ---------------------------------------


    POTLOK:  cpu time    0.08: real time    0.08
    SETDIJ:  cpu time    0.01: real time    0.02
     EDDAV:  cpu time    9.70: real time    9.70
 BZINTS: Fermi energy:  2.258415; 38.000000 electrons
         Band energy:-354.861586;  BLOECHL correction:  0.000000
       DOS:  cpu time    0.01: real time    0.01
    CHARGE:  cpu time    0.44: real time    0.44
    MIXING:  cpu time    0.00: real time    0.00
    --------------------------------------------
      LOOP:  cpu time   10.25: real time   10.25

 eigenvalue-minimisations  :  6176
 total energy-change (2. order) : 0.1740849E+01  (-0.1684885E+00)
 number of electron      37.9999978 magnetization      -0.0247128
 augmentation part        5.0101452 magnetization      -0.0274378

 Broyden mixing:
  rms(total) = 0.73769E+00    rms(broyden)= 0.73766E+00
  rms(prec ) = 0.12516E+01
  weight for this iteration     100.00

 eigenvalues of (default mixing * dielectric matrix)
  average eigenvalue GAMMA=   0.9526
  2.1523  1.3531  1.3531  1.5166  0.9048  0.6628  0.6628  0.3544  0.3544  0.2116

 Free energy of the ion-electron system (eV)
  ---------------------------------------------------
  alpha Z        PSCENC =       253.77267845
  Ewald energy   TEWEN  =     -2500.93324040
  -Hartree energ DENC   =      -616.40572556
  -exchange      EXHF   =         0.00000000
  -V(xc)+E(xc)   XCENC  =       144.68649396
  PAW double counting   =      3594.31370379    -3601.65884172
  entropy T*S    EENTRO =         0.00000000
  eigenvalues    EBANDS =      -354.86158553
  atomic energy  EATOM  =      3040.52701931
  ---------------------------------------------------
  free energy    TOTEN  =       -40.55949771 eV

  energy without entropy =      -40.55949771  energy(sigma->0) =      -40.55949771


--------------------------------------------------------------------------------------------------------




----------------------------------------- Iteration    1(  16)  ---------------------------------------


    POTLOK:  cpu time    0.08: real time    0.08
    SETDIJ:  cpu time    0.02: real time    0.02
     EDDAV:  cpu time   10.46: real time   10.46
 BZINTS: Fermi energy:  2.672524; 38.000000 electrons
         Band energy:-343.726760;  BLOECHL correction:  0.000000
       DOS:  cpu time    0.02: real time    0.02
    CHARGE:  cpu time    0.46: real time    0.46
    MIXING:  cpu time    0.00: real time    0.00
    --------------------------------------------
      LOOP:  cpu time   11.04: real time   11.04

 eigenvalue-minimisations  :  6752
 total energy-change (2. order) : 0.2750478E+00  (-0.5492050E-01)
 number of electron      37.9999978 magnetization      -0.0082735
 augmentation part        4.8447688 magnetization      -0.0093967

 Broyden mixing:
  rms(total) = 0.61712E+00    rms(broyden)= 0.61711E+00
  rms(prec ) = 0.11408E+01
  weight for this iteration     100.00

 eigenvalues of (default mixing * dielectric matrix)
  average eigenvalue GAMMA=   1.0463
  2.2801  1.6885  1.6885  1.3915  1.0090  1.0090  0.9303  0.5961  0.3525  0.3525
  0.2116

 Free energy of the ion-electron system (eV)
  ---------------------------------------------------
  alpha Z        PSCENC =       253.77267845
  Ewald energy   TEWEN  =     -2500.93324040
  -Hartree energ DENC   =      -627.37667621
  -exchange      EXHF   =         0.00000000
  -V(xc)+E(xc)   XCENC  =       145.36875989
  PAW double counting   =      3688.81548477    -3696.73171613
  entropy T*S    EENTRO =         0.00000000
  eigenvalues    EBANDS =      -343.72675956
  atomic energy  EATOM  =      3040.52701931
  ---------------------------------------------------
  free energy    TOTEN  =       -40.28444990 eV

  energy without entropy =      -40.28444990  energy(sigma->0) =      -40.28444990


--------------------------------------------------------------------------------------------------------




----------------------------------------- Iteration    1(  17)  ---------------------------------------


    POTLOK:  cpu time    0.08: real time    0.08
    SETDIJ:  cpu time    0.02: real time    0.02
     EDDAV:  cpu time   10.24: real time   10.23
 BZINTS: Fermi energy:  2.771574; 38.000000 electrons
         Band energy:-337.791419;  BLOECHL correction:  0.000000
       DOS:  cpu time    0.02: real time    0.02
    CHARGE:  cpu time    0.44: real time    0.44
    MIXING:  cpu time    0.00: real time    0.00
    --------------------------------------------
      LOOP:  cpu time   10.79: real time   10.79

 eigenvalue-minimisations  :  6584
 total energy-change (2. order) :-0.2534887E+00  (-0.2458968E-01)
 number of electron      37.9999977 magnetization      -0.0087141
 augmentation part        4.7555913 magnetization      -0.0095295

 Broyden mixing:
  rms(total) = 0.65789E+00    rms(broyden)= 0.65789E+00
  rms(prec ) = 0.14387E+01
  weight for this iteration     100.00

 eigenvalues of (default mixing * dielectric matrix)
  average eigenvalue GAMMA=   1.2317
  2.7385  2.7385  2.4962  1.3334  1.3334  0.9988  0.9335  0.6456  0.6456  0.3529
  0.3529  0.2116

 Free energy of the ion-electron system (eV)
  ---------------------------------------------------
  alpha Z        PSCENC =       253.77267845
  Ewald energy   TEWEN  =     -2500.93324040
  -Hartree energ DENC   =      -633.71554296
  -exchange      EXHF   =         0.00000000
  -V(xc)+E(xc)   XCENC  =       145.73639710
  PAW double counting   =      3603.66872870    -3611.80255978
  entropy T*S    EENTRO =         0.00000000
  eigenvalues    EBANDS =      -337.79141905
  atomic energy  EATOM  =      3040.52701931
  ---------------------------------------------------
  free energy    TOTEN  =       -40.53793863 eV

  energy without entropy =      -40.53793863  energy(sigma->0) =      -40.53793863


--------------------------------------------------------------------------------------------------------




----------------------------------------- Iteration    1(  18)  ---------------------------------------


    POTLOK:  cpu time    0.08: real time    0.08
    SETDIJ:  cpu time    0.02: real time    0.02
     EDDAV:  cpu time    9.72: real time    9.72
 BZINTS: Fermi energy:  3.024104; 38.000000 electrons
         Band energy:-324.064333;  BLOECHL correction:  0.000000
       DOS:  cpu time    0.01: real time    0.01
    CHARGE:  cpu time    0.44: real time    0.44
    MIXING:  cpu time    0.00: real time    0.00
    --------------------------------------------
      LOOP:  cpu time   10.28: real time   10.28

 eigenvalue-minimisations  :  6184
 total energy-change (2. order) : 0.1707180E+00  (-0.6071743E-01)
 number of electron      37.9999978 magnetization       0.0025135
 augmentation part        4.6534359 magnetization       0.0019589

 Broyden mixing:
  rms(total) = 0.44736E+00    rms(broyden)= 0.44733E+00
  rms(prec ) = 0.11636E+01
  weight for this iteration     100.00

 eigenvalues of (default mixing * dielectric matrix)
  average eigenvalue GAMMA=   1.2623
  3.1349  3.1349  2.3331  1.4383  1.4383  1.0302  0.2116  0.3528  0.3528  0.8774
  0.7476  0.7476  0.6108

 Free energy of the ion-electron system (eV)
  ---------------------------------------------------
  alpha Z        PSCENC =       253.77267845
  Ewald energy   TEWEN  =     -2500.93324040
  -Hartree energ DENC   =      -647.45369042
  -exchange      EXHF   =         0.00000000
  -V(xc)+E(xc)   XCENC  =       146.69327196
  PAW double counting   =      3673.15869396    -3682.06761998
  entropy T*S    EENTRO =         0.00000000
  eigenvalues    EBANDS =      -324.06433349
  atomic energy  EATOM  =      3040.52701931
  ---------------------------------------------------
  free energy    TOTEN  =       -40.36722063 eV

  energy without entropy =      -40.36722063  energy(sigma->0) =      -40.36722063


--------------------------------------------------------------------------------------------------------




----------------------------------------- Iteration    1(  19)  ---------------------------------------


    POTLOK:  cpu time    0.08: real time    0.08
    SETDIJ:  cpu time    0.02: real time    0.02
     EDDAV:  cpu time    9.84: real time    9.84
 BZINTS: Fermi energy:  3.489877; 38.000000 electrons
         Band energy:-312.961144;  BLOECHL correction:  0.000000
       DOS:  cpu time    0.02: real time    0.02
    CHARGE:  cpu time    0.44: real time    0.44
    MIXING:  cpu time    0.00: real time    0.00
    --------------------------------------------
      LOOP:  cpu time   10.40: real time   10.40

 eigenvalue-minimisations  :  6288
 total energy-change (2. order) :-0.2760207E+00  (-0.4467815E-01)
 number of electron      37.9999978 magnetization      -0.0006716
 augmentation part        4.5562759 magnetization      -0.0004995

 Broyden mixing:
  rms(total) = 0.61156E+00    rms(broyden)= 0.61154E+00
  rms(prec ) = 0.13189E+01
  weight for this iteration     100.00

 eigenvalues of (default mixing * dielectric matrix)
  average eigenvalue GAMMA=   1.1993
  3.2115  2.0177  2.0177  1.7276  1.7276  0.9574  0.9574  0.9734  0.9734  0.3528
  0.3528  0.2116  0.6637  0.6454

 Free energy of the ion-electron system (eV)
  ---------------------------------------------------
  alpha Z        PSCENC =       253.77267845
  Ewald energy   TEWEN  =     -2500.93324040
  -Hartree energ DENC   =      -658.85763198
  -exchange      EXHF   =         0.00000000
  -V(xc)+E(xc)   XCENC  =       147.50204734
  PAW double counting   =      3810.74893351    -3820.44190344
  entropy T*S    EENTRO =         0.00000000
  eigenvalues    EBANDS =      -312.96114414
  atomic energy  EATOM  =      3040.52701931
  ---------------------------------------------------
  free energy    TOTEN  =       -40.64324134 eV

  energy without entropy =      -40.64324134  energy(sigma->0) =      -40.64324134


--------------------------------------------------------------------------------------------------------




----------------------------------------- Iteration    1(  20)  ---------------------------------------


    POTLOK:  cpu time    0.08: real time    0.08
    SETDIJ:  cpu time    0.01: real time    0.02
     EDDAV:  cpu time    9.61: real time    9.61
 BZINTS: Fermi energy:  3.337968; 38.000000 electrons
         Band energy:-316.702668;  BLOECHL correction:  0.000000
       DOS:  cpu time    0.02: real time    0.02
    CHARGE:  cpu time    0.44: real time    0.44
    MIXING:  cpu time    0.00: real time    0.00
    --------------------------------------------
      LOOP:  cpu time   10.17: real time   14.74

 eigenvalue-minimisations  :  6112
 total energy-change (2. order) : 0.2106884E+00  (-0.6773863E-02)
 number of electron      37.9999978 magnetization      -0.0037951
 augmentation part        4.5959367 magnetization      -0.0036974

 Broyden mixing:
  rms(total) = 0.52207E+00    rms(broyden)= 0.52207E+00
  rms(prec ) = 0.11493E+01
  weight for this iteration     100.00

 eigenvalues of (default mixing * dielectric matrix)
  average eigenvalue GAMMA=   1.1934
  3.2294  2.2187  2.2187  1.5636  1.5636  1.1540  1.1540  0.9508  0.9508  0.2116
  0.3528  0.3528  0.6898  0.6898  0.6011

 Free energy of the ion-electron system (eV)
  ---------------------------------------------------
  alpha Z        PSCENC =       253.77267845
  Ewald energy   TEWEN  =     -2500.93324040
  -Hartree energ DENC   =      -654.81697988
  -exchange      EXHF   =         0.00000000
  -V(xc)+E(xc)   XCENC  =       147.27717167
  PAW double counting   =      3749.81493316    -3759.37146771
  entropy T*S    EENTRO =         0.00000000
  eigenvalues    EBANDS =      -316.70266753
[...]
      3     -30.0181      1.00000
      4     -21.7433      1.00000
      5     -13.4063      1.00000
      6     -13.0955      1.00000
      7     -13.0740      1.00000
      8      -7.3191      1.00000
      9      -7.2958      1.00000
     10      -7.0506      1.00000
     11      -1.1752      1.00000
     12      -0.7023      1.00000
     13      -0.4145      1.00000
     14       0.3128      1.00000
     15       0.4898      1.00000
     16       0.6344      1.00000
     17       2.2065      1.00000
     18       2.2837      1.00000
     19       2.8318      1.00000
     20       6.3892      0.00000
     21       6.4628      0.00000
     22       6.6996      0.00000
     23       8.4381      0.00000
     24      10.1142      0.00000
     25      10.4364      0.00000
     26      11.1949      0.00000
     27      11.4201      0.00000
     28      11.5527      0.00000
     29      13.1098      0.00000
     30      15.5845      0.00000
     31      16.8972      0.00000
     32      17.0377      0.00000

 k-point    38 :       0.3125    0.3125    0.4375
  band No.  band energies     occupation 
      1     -30.0502      1.00000
      2     -30.0360      1.00000
      3     -30.0358      1.00000
      4     -21.7375      1.00000
      5     -13.3629      1.00000
      6     -13.0489      1.00000
      7     -13.0414      1.00000
      8      -7.5074      1.00000
      9      -7.3881      1.00000
     10      -7.1464      1.00000
     11      -1.0352      1.00000
     12      -0.4535      1.00000
     13      -0.3507      1.00000
     14      -0.0280      1.00000
     15       0.5578      1.00000
     16       0.5769      1.00000
     17       2.3818      1.00000
     18       2.5031      1.00000
     19       2.7036      1.00000
     20       6.4568      0.00000
     21       6.5840      0.00000
     22       6.5879      0.00000
     23       9.2309      0.00000
     24       9.6839      0.00000
     25      10.5839      0.00000
     26      10.6203      0.00000
     27      10.7186      0.00000
     28      11.7274      0.00000
     29      12.5740      0.00000
     30      15.3191      0.00000
     31      17.0007      0.00000
     32      17.5089      0.00000

 k-point    39 :       0.4375    0.3125    0.4375
  band No.  band energies     occupation 
      1     -30.0496      1.00000
      2     -30.0481      1.00000
      3     -30.0353      1.00000
      4     -21.7198      1.00000
      5     -13.2050      1.00000
      6     -13.0352      1.00000
      7     -13.0230      1.00000
      8      -7.5648      1.00000
      9      -7.5232      1.00000
     10      -7.3735      1.00000
     11      -1.2095      1.00000
     12      -0.6982      1.00000
     13      -0.3694      1.00000
     14       0.1007      1.00000
     15       0.5001      1.00000
     16       0.5713      1.00000
     17       2.5594      1.00000
     18       2.6203      1.00000
     19       2.8627      1.00000
     20       6.6439      0.00000
     21       6.7029      0.00000
     22       6.7881      0.00000
     23       9.3466      0.00000
     24      10.0306      0.00000
     25      10.1974      0.00000
     26      10.4041      0.00000
     27      10.5365      0.00000
     28      12.0738      0.00000
     29      12.9468      0.00000
     30      15.3972      0.00000
     31      17.3854      0.00000
     32      17.5043      0.00000

 k-point    40 :       0.4375    0.4375    0.4375
  band No.  band energies     occupation 
      1     -30.0490      1.00000
      2     -30.0475      1.00000
      3     -30.0475      1.00000
      4     -21.7031      1.00000
      5     -13.0506      1.00000
      6     -12.9912      1.00000
      7     -12.9907      1.00000
      8      -7.7031      1.00000
      9      -7.6798      1.00000
     10      -7.6070      1.00000
     11      -1.3458      1.00000
     12      -0.7545      1.00000
     13      -0.6747      1.00000
     14       0.3995      1.00000
     15       0.5294      1.00000
     16       0.5701      1.00000
     17       2.8320      1.00000
     18       2.8612      1.00000
     19       2.9251      1.00000
     20       6.8497      0.00000
     21       6.8520      0.00000
     22       6.9002      0.00000
     23       9.6481      0.00000
     24       9.7070      0.00000
     25       9.8008      0.00000
     26      10.2313      0.00000
     27      10.3116      0.00000
     28      12.7948      0.00000
     29      12.8903      0.00000
     30      15.2625      0.00000
     31      17.8335      0.00000
     32      17.9346      0.00000


--------------------------------------------------------------------------------------------------------


 soft charge-density along one line, spin component           1
         0         1         2         3         4         5         6         7         8         9
 total charge-density along one line
 
 soft charge-density along one line, spin component           2
         0         1         2         3         4         5         6         7         8         9
 total charge-density along one line
 
 pseudopotential strength for first ion, spin component:           1
  1.175  -5.001   0.000  -0.002  -0.000   0.000   0.000  -0.000
 -5.001   0.660  -0.000   0.001   0.000   0.000  -0.000  -0.000
  0.000  -0.000  -7.689  -0.000   0.000   4.450  -0.000   0.000
 -0.002   0.001  -0.000  -7.689  -0.000  -0.000   4.449  -0.000
 -0.000   0.000   0.000  -0.000  -7.689   0.000  -0.000   4.450
  0.000   0.000   4.450  -0.000   0.000   6.778   0.000  -0.000
  0.000  -0.000  -0.000   4.449  -0.000   0.000   6.778   0.000
 -0.000  -0.000   0.000  -0.000   4.450  -0.000   0.000   6.778
  0.000  -0.000  -0.000  -0.000   0.000  -0.000  -0.000   0.000
 -0.000   0.000  -0.001   0.000  -0.000  -0.000   0.000  -0.000
 -0.000   0.000  -0.000  -0.001   0.000  -0.000  -0.000   0.000
 -0.000   0.000  -0.000  -0.000  -0.001  -0.000  -0.000  -0.000
 -0.000  -0.000  -0.000  -0.000   0.000  -0.000  -0.000   0.000
  0.000  -0.000  -0.000  -0.000   0.000  -0.000  -0.000   0.000
 -0.000   0.000  -0.001   0.000  -0.000  -0.000   0.000  -0.000
 -0.000   0.000  -0.000  -0.001   0.000  -0.000  -0.000   0.000
 -0.000   0.000  -0.000  -0.000  -0.001  -0.000  -0.000  -0.000
 -0.000  -0.000  -0.000  -0.000   0.000  -0.000  -0.000   0.000
 pseudopotential strength for first ion, spin component:           2
  1.174  -5.001   0.000  -0.002  -0.000   0.000   0.000  -0.000
 -5.001   0.660  -0.000   0.001   0.000   0.000  -0.000  -0.000
  0.000  -0.000  -7.689  -0.000   0.000   4.450  -0.000   0.000
 -0.002   0.001  -0.000  -7.689  -0.000  -0.000   4.449  -0.000
 -0.000   0.000   0.000  -0.000  -7.689   0.000  -0.000   4.450
  0.000   0.000   4.450  -0.000   0.000   6.778   0.000  -0.000
  0.000  -0.000  -0.000   4.449  -0.000   0.000   6.778   0.000
 -0.000  -0.000   0.000  -0.000   4.450  -0.000   0.000   6.778
  0.000  -0.000  -0.000  -0.000   0.000  -0.000  -0.000   0.000
 -0.000   0.000  -0.001   0.000  -0.000  -0.000   0.000  -0.000
 -0.000   0.000  -0.000  -0.001   0.000  -0.000  -0.000   0.000
 -0.000   0.000  -0.000  -0.000  -0.001  -0.000  -0.000  -0.000
 -0.000   0.000  -0.000  -0.000   0.000  -0.000  -0.000   0.000
  0.000  -0.000  -0.000  -0.000   0.000  -0.000  -0.000   0.000
 -0.000   0.000  -0.001   0.000  -0.000  -0.000   0.000  -0.000
 -0.000   0.000  -0.000  -0.001   0.000  -0.000  -0.000   0.000
 -0.000   0.000  -0.000  -0.000  -0.001  -0.000  -0.000  -0.000
 -0.000   0.000  -0.000  -0.000   0.000  -0.000  -0.000   0.000
 total augmentation occupancy for first ion, spin component:           1
  2.004  -0.003   0.000  -0.000   0.000   0.000  -0.000   0.000   0.000  -0.000   0.000   0.000   0.000   0.000   0.000  -0.000
 -0.003   0.396   0.000  -0.006   0.000   0.000   0.001   0.000   0.000   0.000  -0.012   0.000   0.000   0.000   0.000   0.006
 -0.000   0.000   2.021   0.000   0.000  -0.009  -0.000   0.000   0.000  -0.009   0.000   0.000  -0.000   0.000   0.004  -0.000
 -0.000  -0.006   0.000   2.021   0.000   0.000  -0.009   0.000   0.000   0.000  -0.005   0.000   0.000   0.000   0.000   0.002
  0.000   0.000   0.000   0.000   2.021   0.000   0.000  -0.009   0.000   0.000   0.000  -0.009   0.000  -0.000   0.000   0.000
  0.000   0.000  -0.009   0.000   0.000   0.010   0.000   0.000   0.000   0.004  -0.000   0.000   0.000   0.000  -0.002   0.000
 -0.000   0.001   0.000  -0.009   0.000   0.000   0.010   0.000   0.000   0.000   0.002   0.000   0.000   0.000   0.000  -0.001
  0.000   0.000   0.000   0.000  -0.009   0.000   0.000   0.010  -0.000  -0.000   0.000   0.004   0.000   0.000   0.000   0.000
  0.000   0.000   0.000   0.000  -0.000   0.000   0.000   0.000   2.902   0.000   0.000   0.000   0.000  -1.541   0.000   0.000
  0.000  -0.000  -0.009   0.000   0.000   0.004  -0.000   0.000   0.000   2.792   0.000   0.000   0.000   0.000  -1.482   0.000
  0.000  -0.012   0.000  -0.005   0.000   0.000   0.002   0.000   0.000   0.000   1.818   0.000   0.000   0.000   0.000  -0.958
  0.000   0.000   0.000   0.000  -0.009  -0.000   0.000   0.004   0.000   0.000   0.000   2.792   0.000   0.000   0.000   0.000
  0.000   0.000   0.000   0.000   0.000   0.000   0.000   0.000   0.000   0.000   0.000   0.000   1.753   0.000   0.000   0.000
  0.000   0.000   0.000   0.000   0.000   0.000   0.000   0.000  -1.541   0.000   0.000   0.000   0.000   0.820  -0.000   0.000
  0.000   0.000   0.004   0.000   0.000  -0.002   0.000   0.000   0.000  -1.482   0.000   0.000  -0.000  -0.000   0.789   0.000
 -0.000   0.006   0.000   0.002   0.000   0.000  -0.001   0.000   0.000  -0.000  -0.958   0.000   0.000   0.000   0.000   0.506
  0.000   0.000   0.000   0.000   0.004   0.000   0.000  -0.002   0.000   0.000   0.000  -1.482   0.000   0.000   0.000   0.000
  0.000   0.000  -0.000   0.000   0.000  -0.000   0.000   0.000   0.000  -0.000   0.000   0.000  -0.924  -0.000   0.000   0.000
 total augmentation occupancy for first ion, spin component:           2
 -0.000  -0.000   0.000  -0.000   0.000   0.000  -0.000   0.000   0.000   0.000  -0.000   0.000   0.000   0.000   0.000  -0.000
 -0.000   0.000   0.000  -0.000   0.000   0.000   0.000   0.000   0.000  -0.000   0.000   0.000   0.000   0.000   0.000  -0.000
  0.000   0.000  -0.000   0.000   0.000  -0.000   0.000   0.000   0.000   0.000   0.000   0.000  -0.000   0.000  -0.000   0.000
 -0.000  -0.000   0.000  -0.000   0.000   0.000  -0.000   0.000   0.000   0.000   0.000   0.000   0.000   0.000   0.000  -0.000
  0.000   0.000   0.000   0.000  -0.000   0.000   0.000  -0.000  -0.000   0.000   0.000   0.000   0.000   0.000   0.000   0.000
  0.000   0.000  -0.000   0.000   0.000   0.000   0.000   0.000   0.000   0.000   0.000   0.000   0.000   0.000  -0.000   0.000
 -0.000   0.000   0.000  -0.000   0.000   0.000   0.000   0.000   0.000   0.000  -0.000   0.000   0.000   0.000   0.000   0.000
  0.000   0.000   0.000   0.000  -0.000   0.000   0.000   0.000   0.000   0.000   0.000   0.000   0.000  -0.000  -0.000   0.000
  0.000   0.000   0.000   0.000  -0.000   0.000   0.000   0.000   0.000   0.000   0.000   0.000   0.000  -0.000   0.000   0.000
  0.000  -0.000   0.000   0.000   0.000   0.000   0.000   0.000   0.000   0.000   0.000   0.000   0.000   0.000  -0.000   0.000
 -0.000   0.000   0.000   0.000   0.000   0.000  -0.000   0.000   0.000   0.000   0.000   0.000   0.000   0.000  -0.000  -0.000
  0.000   0.000   0.000   0.000   0.000   0.000   0.000   0.000   0.000   0.000   0.000   0.000   0.000   0.000   0.000   0.000
  0.000   0.000  -0.000   0.000   0.000   0.000   0.000   0.000   0.000   0.000   0.000   0.000  -0.000   0.000   0.000   0.000
  0.000   0.000   0.000   0.000   0.000   0.000   0.000  -0.000  -0.000   0.000   0.000   0.000   0.000   0.000   0.000   0.000
  0.000   0.000  -0.000   0.000   0.000  -0.000   0.000  -0.000   0.000  -0.000  -0.000   0.000   0.000   0.000   0.000  -0.000
 -0.000  -0.000   0.000  -0.000   0.000   0.000   0.000   0.000   0.000   0.000  -0.000   0.000   0.000   0.000  -0.000   0.000
  0.000   0.000  -0.000   0.000  -0.000   0.000   0.000  -0.000  -0.000   0.000   0.000  -0.000   0.000   0.000   0.000   0.000
  0.000   0.000   0.000   0.000   0.000   0.000   0.000   0.000  -0.000   0.000   0.000   0.000   0.000   0.000   0.000   0.000


------------------------ aborting loop because EDIFF is reached ----------------------------------------


 


 total charge     
 
# of ion     s       p       d       tot
----------------------------------------
  1        2.006   5.648   0.311   7.965
  2        0.294   6.409   1.863   8.565
  3        1.575   3.309   0.000   4.884
  4        1.552   3.599   0.000   5.151
  5        1.563   3.451   0.000   5.014
------------------------------------------------
tot        6.989  22.417   2.174  31.580
 


 magnetization (x)
 
# of ion     s       p       d       tot
----------------------------------------
  1       -0.000   0.000  -0.000  -0.000
  2       -0.000  -0.000  -0.000  -0.000
  3       -0.000   0.000   0.000   0.000
  4        0.000   0.000   0.000   0.000
  5        0.000   0.000   0.000   0.000
------------------------------------------------
tot        0.000   0.000  -0.000   0.000
 
    CHARGE:  cpu time    0.44: real time    0.44
    FORLOC:  cpu time    0.00: real time    0.00
    FORNL :  cpu time    2.46: real time    2.46
    STRESS:  cpu time    7.42: real time    7.42
    FORCOR:  cpu time    0.08: real time    0.08
    FORHAR:  cpu time    0.01: real time    0.01
    MIXING:  cpu time    0.00: real time    0.00
    OFIELD:  cpu time    0.00: real time    0.00

  FORCE on cell =-STRESS in cart. coord.  units (eV):
  Direction    XX          YY          ZZ          XY          YZ          ZX
  --------------------------------------------------------------------------------------
  Alpha Z   253.77268   253.77268   253.77268
  Ewald    -828.50934  -828.50934  -843.91668     0.00000    -0.00000    -0.00000
  Hartree   216.35516   216.35516   207.79088    -0.00000    -0.00000    -0.00000
  E(xc)    -171.26270  -171.26270  -171.29072    -0.00000     0.00000     0.00000
  Local     -33.13472   -33.13472    -9.10585    -0.00000     0.00000    -0.00000
  n-local  -129.33215  -126.46286  -128.05887    -0.35264    -0.34472    -0.30635
  augment    63.29474    63.29474    63.18193    -0.00000     0.00000    -0.00000
  Kinetic   621.39612   633.12502   626.81414    -3.14328    -3.34175    -2.80676
  Fock        0.00000     0.00000     0.00000     0.00000     0.00000     0.00000
  -------------------------------------------------------------------------------------
  Total      -0.12113    -0.12113    -0.81249     0.00000     0.00000     0.00000
  in kB      -2.93930    -2.93930   -19.71499     0.00000     0.00000     0.00000
  external pressure =       -8.53 kB  Pullay stress =        0.00 kB


 VOLUME and BASIS-vectors are now :
 -----------------------------------------------------------------------------
  energy-cutoff  :      520.00
  volume of cell :       66.03
      direct lattice vectors                 reciprocal lattice vectors
     4.026005000  0.000000000  0.000000000     0.248385186  0.000000000  0.000000000
     0.000000000  4.026005000  0.000000000     0.000000000  0.248385186  0.000000000
     0.000000000  0.000000000  4.073644000     0.000000000  0.000000000  0.245480459

  length of vectors
     4.026005000  4.026005000  4.073644000     0.248385186  0.248385186  0.245480459


 FORCES acting on ions
    electron-ion (+dipol)            ewald-force                    non-local-force                 convergence-correction
 -----------------------------------------------------------------------------------------------
   -.660E-14 -.330E-14 0.165E+01   -.210E-13 -.425E-14 -.149E+01   0.000E+00 0.000E+00 -.195E+00   0.163E-13 0.281E-13 0.665E-03
   0.160E-12 0.211E-11 0.168E+02   0.333E-13 0.253E-13 -.163E+02   0.000E+00 0.000E+00 -.171E+00   -.853E-13 -.339E-13 -.128E-01
   -.512E-14 0.170E-12 0.441E+01   -.179E-13 -.390E-14 -.457E+01   0.000E+00 0.000E+00 0.126E+00   0.360E-13 -.261E-13 0.178E-02
   0.132E-12 -.302E-13 0.441E+01   -.311E-14 -.175E-13 -.457E+01   0.000E+00 0.542E-19 0.126E+00   -.493E-13 0.383E-13 0.178E-02
   0.128E-12 0.131E-11 -.246E+02   0.822E-14 0.906E-15 0.270E+02   0.000E+00 0.000E+00 -.247E+01   -.371E-13 -.487E-13 -.121E-01
 -----------------------------------------------------------------------------------------------
   0.409E-12 0.356E-11 0.261E+01   -.449E-15 0.526E-15 0.000E+00   0.000E+00 0.542E-19 -.258E+01   -.119E-12 -.423E-13 -.207E-01
 
 
 POSITION                                       TOTAL-FORCE (eV/Angst)
 -----------------------------------------------------------------------------------
      0.00000      0.00000      0.02722         0.000000     -0.000000     -0.031073
      2.01300      2.01300      2.08087         0.000000      0.000000      0.276795
      0.00000      2.01300      2.03847         0.000000     -0.000000     -0.033048
      2.01300      0.00000      2.03847         0.000000     -0.000000     -0.033048
      2.01300      2.01300      4.05611         0.000000     -0.000000     -0.179625
 -----------------------------------------------------------------------------------
    total drift:                                0.000000      0.000000      0.007131


--------------------------------------------------------------------------------------------------------



  FREE ENERGIE OF THE ION-ELECTRON SYSTEM (eV)
  ---------------------------------------------------
  free  energy   TOTEN  =       -39.89125053 eV

  energy  without entropy=      -39.89125053  energy(sigma->0) =      -39.89125053
 


--------------------------------------------------------------------------------------------------------


    POTLOK:  cpu time    0.10: real time    0.10


--------------------------------------------------------------------------------------------------------


 writing wavefunctions
     LOOP+:  cpu time  326.78: real time  341.84
    4ORBIT:  cpu time    0.00: real time    0.00
 


 total charge     
 
# of ion     s       p       d       tot
----------------------------------------
  1        2.006   5.648   0.311   7.965
  2        0.294   6.409   1.863   8.565
  3        1.575   3.309   0.000   4.884
  4        1.552   3.599   0.000   5.151
  5        1.563   3.451   0.000   5.014
------------------------------------------------
tot        6.989  22.417   2.174  31.580
 


 magnetization (x)
 
# of ion     s       p       d       tot
----------------------------------------
  1       -0.000   0.000  -0.000  -0.000
  2       -0.000  -0.000  -0.000  -0.000
  3       -0.000   0.000   0.000   0.000
  4        0.000   0.000   0.000   0.000
  5        0.000   0.000   0.000   0.000
------------------------------------------------
tot        0.000   0.000  -0.000   0.000
 
 BZINTS: Fermi energy:  2.961989; 38.000000 electrons
         Band energy:-329.680997;  BLOECHL correction:  0.000000

 total amount of memory used by VASP on root node    48908. kBytes
========================================================================

   base      :      30000. kBytes
   nonlr-proj:       3322. kBytes
   fftplans  :       1096. kBytes
   grid      :       4792. kBytes
   one-center:        155. kBytes
   wavefun   :       9543. kBytes
 
  
  
 General timing and accounting informations for this job:
 ========================================================
  
                  Total CPU time used (sec):      335.815
                            User time (sec):      323.103
                          System time (sec):       12.712
                         Elapsed time (sec):      353.010
  
                   Maximum memory used (kb):       65004.
                   Average memory used (kb):           0.
  
                          Minor page faults:      3380644
                          Major page faults:           19
                 Voluntary context switches:         1421
