ITEM: TIMESTEP
0
ITEM: NUMBER OF ATOMS
144
ITEM: BOX BOUNDS pp pp pp
0.0000000000000000e+00 2.2000000000000000e+01
0.0000000000000000e+00 2.6000000000000000e+01
0.0000000000000000e+00 2.8000000000000000e+01
ITEM: ATOMS id type x y z ix iy iz mol 
106 2 9.3339 7.05339 13.8357 0 0 0 2 
108 1 8.73505 7.42854 12.9873 0 0 0 2 
133 3 10.6589 7.01288 9.19788 0 0 0 2 
134 2 10.7749 8.33323 8.71259 0 0 0 2 
136 1 10.5066 9.05137 9.50713 0 0 0 2 
1 2 16.6601 9.37462 3.14461 0 0 0 1 
2 1 17.3444 8.742 3.73675 0 0 0 1 
3 1 15.8717 9.77262 3.8072 0 0 0 1 
4 1 16.2012 8.7632 2.348 0 0 0 1 
5 3 17.435 10.5124 2.5325 0 0 0 1 
6 2 16.5338 11.2999 1.78424 0 0 0 1 
7 1 15.7444 11.6991 2.44492 0 0 0 1 
8 1 16.0736 10.6905 0.98681 0 0 0 1 
9 2 16.2585 12.1431 3.00317 0 0 0 1 
10 1 15.6842 11.306 3.43714 0 0 0 1 
11 1 15.5866 12.7765 2.39787 0 0 0 1 
12 3 16.8725 12.9647 4.10797 0 0 0 1 
14 1 15.2527 12.6277 5.34776 0 0 0 1 
122 1 12.8908 3.8773 13.2691 0 0 0 2 
123 2 12.9609 4.44299 13.0649 0 0 0 2 
124 1 13.9964 4.63198 12.7316 0 0 0 2 
125 1 12.6926 5.16112 13.8594 0 0 0 2 
126 3 12.0162 4.59734 11.9003 0 0 0 2 
127 2 12.1323 5.91769 11.415 0 0 0 2 
128 1 13.1678 6.1067 11.0817 0 0 0 2 
129 1 11.864 6.63584 12.2096 0 0 0 2 
130 2 11.6036 6.85852 10.3624 0 0 0 2 
131 1 12.6391 7.04752 10.0292 0 0 0 2 
132 1 11.3353 7.57666 11.157 0 0 0 2 
135 1 11.8104 8.52224 8.37931 0 0 0 2 
137 2 11.8649 7.89088 7.76976 0 0 0 2 
138 1 12.5086 8.70165 8.15354 0 0 0 2 
139 1 11.266 8.26602 6.92142 0 0 0 2 
140 3 12.7197 6.73488 7.31641 0 0 0 2 
141 2 13.5733 7.19753 6.29193 0 0 0 2 
142 1 14.2171 8.0083 6.6757 0 0 0 2 
143 1 12.9745 7.57268 5.44359 0 0 0 2 
144 1 14.024 6.19458 6.19199 0 0 0 2 
71 1 8.37542 0.240532 18.3116 0 1 0 1 
72 1 9.77462 0.118341 19.5718 0 1 0 1 
74 1 0.351322 11.7847 25.9858 0 0 0 2 
75 1 0.461089 12.495 24.3367 0 0 0 2 
84 3 0.0851091 9.99783 22.1221 0 0 0 2 
85 2 0.938753 10.4605 21.0976 0 0 0 2 
86 1 1.5825 11.2713 21.4814 0 0 0 2 
87 1 0.33991 10.8356 20.2493 0 0 0 2 
88 2 2.0287 10.0181 20.1548 0 0 0 2 
89 1 2.67244 10.8289 20.5386 0 0 0 2 
90 1 1.42984 10.3933 19.3065 0 0 0 2 
91 3 2.88349 8.86213 19.7015 0 0 0 2 
92 2 3.73714 9.32478 18.677 0 0 0 2 
93 1 4.38088 10.1356 19.0607 0 0 0 2 
94 1 3.13829 9.69993 17.8286 0 0 0 2 
95 2 4.82708 8.88244 17.7342 0 0 0 2 
96 1 5.47082 9.69321 18.1179 0 0 0 2 
97 1 4.22822 9.25758 16.8858 0 0 0 2 
98 3 5.68187 7.72643 17.2808 0 0 0 2 
99 2 6.53552 8.18909 16.2563 0 0 0 2 
100 1 7.17926 8.99986 16.6401 0 0 0 2 
101 1 5.93667 8.56423 15.408 0 0 0 2 
102 2 7.62546 7.74674 15.3135 0 0 0 2 
103 1 8.2692 8.55751 15.6973 0 0 0 2 
104 1 7.0266 8.12188 14.4652 0 0 0 2 
105 3 8.48025 6.59073 14.8601 0 0 0 2 
107 1 9.97765 7.86416 14.2194 0 0 0 2 
109 2 9.86257 6.11256 14.8882 0 0 0 2 
110 1 10.1309 5.39442 14.0937 0 0 0 2 
111 1 8.82707 5.92357 15.2215 0 0 0 2 
112 3 10.8073 5.95821 16.0528 0 0 0 2 
113 2 10.6912 4.63785 16.5381 0 0 0 2 
114 1 10.9596 3.91971 15.7436 0 0 0 2 
115 1 9.65574 4.44885 16.8714 0 0 0 2 
73 2 21.7672 12.1678 25.1307 -1 0 0 2 
77 3 20.8713 11.0753 24.6077 -1 0 0 2 
78 2 20.1404 11.5962 23.5183 -1 0 0 2 
79 1 20.8324 11.9239 22.7228 -1 0 0 2 
80 1 19.5285 12.4531 23.8506 -1 0 0 2 
81 2 21.2303 11.1538 22.5755 -1 0 0 2 
82 1 21.8741 11.9646 22.9592 -1 0 0 2 
83 1 20.6315 11.529 21.7271 -1 0 0 2 
116 2 11.7812 4.19551 15.5953 0 0 0 2 
117 1 12.4249 5.00628 15.9791 0 0 0 2 
118 1 11.1823 4.57065 14.7469 0 0 0 2 
119 3 12.636 3.0395 15.1419 0 0 0 2 
120 2 13.4896 3.50216 14.1175 0 0 0 2 
121 1 14.1334 4.31293 14.5012 0 0 0 2 
13 2 15.8271 13.4648 4.91379 0 0 0 1 
15 1 15.1551 14.0982 4.3085 0 0 0 1 
16 2 15.5518 14.308 6.13272 0 0 0 1 
17 1 14.9775 13.4709 6.56669 0 0 0 1 
18 1 14.8799 14.9414 5.52743 0 0 0 1 
19 3 16.1658 15.1296 7.23753 0 0 0 1 
20 2 15.1204 15.6297 8.04334 0 0 0 1 
21 1 14.5461 14.7926 8.47732 0 0 0 1 
22 1 14.4484 16.2631 7.43806 0 0 0 1 
23 2 14.8452 16.4729 9.26228 0 0 0 1 
24 1 14.2708 15.6358 9.69625 0 0 0 1 
25 1 14.1732 17.1063 8.65698 0 0 0 1 
26 3 15.4591 17.2945 10.3671 0 0 0 1 
27 2 14.4137 17.7946 11.1729 0 0 0 1 
28 1 13.8394 16.9575 11.6069 0 0 0 1 
29 1 13.7418 18.428 10.5676 0 0 0 1 
30 2 14.1385 18.6378 12.3918 0 0 0 1 
31 1 13.5641 17.8007 12.8258 0 0 0 1 
32 1 13.4665 19.2712 11.7865 0 0 0 1 
33 3 14.7525 19.4594 13.4966 0 0 0 1 
36 1 13.0351 20.5929 13.6972 0 0 0 1 
39 1 15.4525 19.4277 13.9494 0 0 0 1 
62 2 9.75407 23.4423 15.7873 0 0 0 1 
63 1 9.27308 23.4609 16.781 0 0 0 1 
64 1 9.60233 22.4522 15.3229 0 0 0 1 
65 2 9.47883 24.2855 17.0063 0 0 0 1 
66 1 8.90447 23.4484 17.4402 0 0 0 1 
67 1 8.80686 24.9188 16.401 0 0 0 1 
68 3 10.0928 25.1071 18.1111 0 0 0 1 
69 2 9.0474 25.6072 18.9169 0 0 0 1 
70 1 8.47303 24.7701 19.3508 0 0 0 1 
34 2 13.7071 19.9595 14.3025 0 0 0 1 
35 1 13.1327 19.1224 14.7364 0 0 0 1 
37 2 14.9715 19.4462 14.943 0 0 0 1 
38 1 15.1232 20.4363 15.4075 0 0 0 1 
40 3 15.5729 18.3767 15.8187 0 0 0 1 
41 2 16.9534 18.6417 15.9471 0 0 0 1 
42 1 17.1051 19.6318 16.4116 0 0 0 1 
43 1 17.4344 18.6231 14.9535 0 0 0 1 
44 2 16.6781 19.4849 17.1661 0 0 0 1 
45 1 16.1038 18.6477 17.6001 0 0 0 1 
46 1 16.0062 20.1182 16.5608 0 0 0 1 
47 3 17.2921 20.3065 18.2709 0 0 0 1 
48 2 16.2467 20.8066 19.0767 0 0 0 1 
49 1 15.6723 19.9694 19.5107 0 0 0 1 
50 1 15.5747 21.4399 18.4714 0 0 0 1 
51 2 14.9823 21.3199 18.4361 0 0 0 1 
52 1 14.5013 21.3384 19.4298 0 0 0 1 
53 1 14.8306 20.3298 17.9716 0 0 0 1 
54 3 14.3808 22.3894 17.5604 0 0 0 1 
55 2 13.0004 22.1244 17.432 0 0 0 1 
56 1 12.5194 22.143 18.4257 0 0 0 1 
57 1 12.8486 21.1343 16.9675 0 0 0 1 
58 2 11.736 22.6377 16.7914 0 0 0 1 
59 1 11.255 22.6563 17.7851 0 0 0 1 
60 1 11.5842 21.6476 16.327 0 0 0 1 
61 3 11.1345 23.7073 15.9157 0 0 0 1 
76 1 21.1563 13.0245 25.4654 -1 0 0 2 
ITEM: TIMESTEP
1000
ITEM: NUMBER OF ATOMS
144
ITEM: BOX BOUNDS pp pp pp
5.9470697524060334e-01 2.1405293024759409e+01
7.0283551619345452e-01 2.5297164483806615e+01
7.5689978666985880e-01 2.7243100213330159e+01
ITEM: ATOMS id type x y z ix iy iz mol 
143 1 10.7947 7.48991 8.17337 0 0 0 2 
121 1 9.42085 4.60025 12.6381 0 0 0 2 
133 3 13.3097 7.3632 10.0697 0 0 0 2 
134 2 13.7722 8.4735 9.31406 0 0 0 2 
136 1 13.562 9.38893 9.89435 0 0 0 2 
1 2 17.7624 12.686 3.30941 0 0 0 1 
2 1 16.9051 13.2002 2.84077 0 0 0 1 
12 3 14.9316 12.3742 5.74066 0 0 0 1 
4 1 18.3846 12.1842 2.54783 0 0 0 1 
5 3 17.1552 11.7612 4.18261 0 0 0 1 
6 2 15.8274 11.6544 3.81046 0 0 0 1 
7 1 15.7323 10.7999 3.11779 0 0 0 1 
11 1 14.5412 10.3761 5.04123 0 0 0 1 
141 2 11.4108 6.77095 7.6056 0 0 0 2 
10 1 16.1205 10.7144 5.77897 0 0 0 1 
144 1 11.5457 5.78773 8.08936 0 0 0 2 
142 1 11.0025 6.54576 6.60486 0 0 0 2 
120 2 10.4083 5.09298 12.6714 0 0 0 2 
15 1 14.0142 12.5804 7.49411 0 0 0 1 
123 2 11.2394 4.67172 11.4694 0 0 0 2 
124 1 10.6996 4.91567 10.5377 0 0 0 2 
125 1 11.432 3.59608 11.627 0 0 0 2 
126 3 12.5184 5.28802 11.6109 0 0 0 2 
127 2 13.2987 5.08164 10.4191 0 0 0 2 
128 1 12.6543 4.99568 9.52674 0 0 0 2 
129 1 13.9618 4.20888 10.5517 0 0 0 2 
130 2 14.2039 6.29098 10.2267 0 0 0 2 
131 1 14.6181 6.04105 9.23429 0 0 0 2 
132 1 14.9473 6.52233 11.0096 0 0 0 2 
135 1 14.8036 8.30896 8.95614 0 0 0 2 
137 2 12.9121 8.65642 8.15661 0 0 0 2 
138 1 13.2727 9.47634 7.51113 0 0 0 2 
139 1 11.9793 9.05007 8.59681 0 0 0 2 
140 3 12.7108 7.38653 7.44853 0 0 0 2 
9 2 15.3224 11.1484 5.15158 0 0 0 1 
14 1 15.4784 11.461 7.52908 0 0 0 1 
8 1 15.2223 12.5408 3.55177 0 0 0 1 
13 2 15.048 12.404 7.14897 0 0 0 1 
122 1 10.211 6.1783 12.7171 0 0 0 2 
119 3 11.1353 4.68001 13.8432 0 0 0 2 
106 2 8.24502 6.81693 17.16 0 0 0 2 
72 1 9.58025 1.36129 16.2163 0 1 0 1 
74 1 18.9749 11.2362 22.7021 -1 0 0 2 
75 1 19.0787 9.78138 21.6735 -1 0 0 2 
84 3 2.05698 10.4314 21.4405 0 0 0 2 
85 2 3.30123 10.858 20.8566 0 0 0 2 
86 1 4.09268 10.8065 21.6247 0 0 0 2 
87 1 3.10328 11.8613 20.4405 0 0 0 2 
88 2 3.76886 9.93351 19.7312 0 0 0 2 
89 1 4.06111 8.91685 20.0473 0 0 0 2 
90 1 4.70582 10.3653 19.338 0 0 0 2 
91 3 2.82902 9.84542 18.6397 0 0 0 2 
92 2 2.99781 8.62937 17.9719 0 0 0 2 
93 1 2.04247 8.14863 17.6978 0 0 0 2 
94 1 3.49777 7.92214 18.6566 0 0 0 2 
95 2 3.87716 8.7986 16.729 0 0 0 2 
96 1 3.4144 9.54252 16.0571 0 0 0 2 
97 1 4.01719 7.8265 16.2246 0 0 0 2 
98 3 5.12883 9.33264 17.0612 0 0 0 2 
99 2 6.10002 8.3188 17.2753 0 0 0 2 
100 1 5.94107 7.43975 16.6265 0 0 0 2 
101 1 5.98349 8.06621 18.3438 0 0 0 2 
102 2 7.45939 8.96508 17.1462 0 0 0 2 
103 1 7.74959 9.48083 18.0782 0 0 0 2 
104 1 7.39543 9.77439 16.3979 0 0 0 2 
105 3 8.52689 8.13735 16.7359 0 0 0 2 
107 1 7.77601 6.24234 16.3422 0 0 0 2 
109 2 9.6078 6.13396 17.2447 0 0 0 2 
76 1 18.694 9.59737 23.4428 -1 0 0 2 
111 1 10.2439 6.57209 18.0336 0 0 0 2 
112 3 10.1969 6.32643 15.9439 0 0 0 2 
113 2 11.4719 5.81184 15.8901 0 0 0 2 
114 1 11.5626 4.75135 16.1834 0 0 0 2 
115 1 12.2135 6.42026 16.4367 0 0 0 2 
73 2 19.2632 10.1705 22.6901 -1 0 0 2 
77 3 20.6837 10.0498 23.0086 -1 0 0 2 
78 2 21.4492 11.2032 23.1763 -1 0 0 2 
79 1 1.44151 10.9475 23.8897 0 0 0 2 
80 1 20.879 12.0917 23.4992 -1 0 0 2 
81 2 1.2483 11.5361 21.8247 0 0 0 2 
82 1 1.86394 12.4524 21.8074 0 0 0 2 
83 1 0.440884 11.4644 21.0751 0 0 0 2 
116 2 11.9039 5.70366 14.418 0 0 0 2 
117 1 12.9519 5.35645 14.4064 0 0 0 2 
108 1 7.7048 6.76602 18.1215 0 0 0 2 
118 1 11.6953 6.67799 13.9425 0 0 0 2 
110 1 9.41692 5.05339 17.3667 0 0 0 2 
71 1 8.24873 1.79534 17.4428 0 1 0 1 
70 1 9.98394 1.70603 17.9205 0 1 0 1 
69 2 9.21024 1.28671 17.2538 0 1 0 1 
38 1 15.2631 18.8496 12.8919 0 0 0 1 
35 1 15.815 16.0559 12.9433 0 0 0 1 
16 2 15.9515 13.5746 7.47849 0 0 0 1 
17 1 16.6918 13.8792 6.71811 0 0 0 1 
18 1 16.5522 13.3822 8.38459 0 0 0 1 
19 3 15.0811 14.7094 7.71035 0 0 0 1 
20 2 15.7398 15.8938 7.36302 0 0 0 1 
21 1 15.5296 16.1913 6.32081 0 0 0 1 
22 1 16.8322 15.7802 7.47629 0 0 0 1 
23 2 15.1606 16.9309 8.32002 0 0 0 1 
24 1 14.1206 17.1276 8.00589 0 0 0 1 
25 1 15.6828 17.9014 8.25375 0 0 0 1 
26 3 15.1989 16.4562 9.66276 0 0 0 1 
27 2 13.8893 16.0893 10.0713 0 0 0 1 
28 1 13.5148 15.2932 9.40414 0 0 0 1 
29 1 13.1635 16.9202 10.0309 0 0 0 1 
30 2 13.9361 15.6809 11.4884 0 0 0 1 
31 1 14.6795 14.8874 11.6804 0 0 0 1 
32 1 12.9803 15.1802 11.7224 0 0 0 1 
33 3 14.0218 16.8023 12.3397 0 0 0 1 
34 2 15.0646 16.794 13.2767 0 0 0 1 
3 1 18.3054 13.438 3.90829 0 0 0 1 
39 1 16.8106 18.0426 13.3703 0 0 0 1 
37 2 15.7211 18.0855 13.544 0 0 0 1 
62 2 10.6248 22.6532 17.603 0 0 0 1 
63 1 9.74429 22.0244 17.8228 0 0 0 1 
64 1 11.3846 22.1622 16.9702 0 0 0 1 
65 2 10.1545 23.8648 16.7954 0 0 0 1 
58 2 11.8076 21.9804 19.4525 0 0 0 1 
67 1 10.9854 24.5434 16.5344 0 0 0 1 
66 1 9.66676 23.5559 15.8544 0 0 0 1 
57 1 13.7185 21.3182 20.2991 0 0 0 1 
56 1 13.3282 23.1328 20.0444 0 0 0 1 
61 3 11.2978 23.0657 18.7414 0 0 0 1 
60 1 11.5709 21.0581 18.8937 0 0 0 1 
59 1 11.265 21.8538 20.4057 0 0 0 1 
55 2 13.2577 22.0976 19.6673 0 0 0 1 
40 3 15.4586 18.4198 14.9186 0 0 0 1 
41 2 14.347 19.3695 14.9678 0 0 0 1 
42 1 13.6461 19.1677 15.7967 0 0 0 1 
43 1 13.7546 19.3544 14.0363 0 0 0 1 
44 2 14.7807 20.7941 15.1952 0 0 0 1 
45 1 13.8327 21.3596 15.2154 0 0 0 1 
46 1 15.5984 21.0444 14.4969 0 0 0 1 
47 3 15.3511 20.7856 16.4499 0 0 0 1 
48 2 15.6861 22.1176 16.8295 0 0 0 1 
49 1 16.7858 22.0665 16.9139 0 0 0 1 
50 1 15.396 22.9025 16.1093 0 0 0 1 
51 2 15.1958 22.2783 18.2386 0 0 0 1 
52 1 15.5384 23.289 18.5214 0 0 0 1 
53 1 15.6268 21.4754 18.8619 0 0 0 1 
54 3 13.7727 22.1693 18.31 0 0 0 1 
68 3 9.14543 24.5115 17.5844 0 0 0 1 
36 1 14.5588 16.486 14.2085 0 0 0 1 
