       N       E                     dE             d eps       ncg     rms          rms(c)
DAV:   1    -0.128090971435E+01   -0.12809E+01   -0.30911E+03  1872   0.360E+02
DAV:   2    -0.107673792968E+02   -0.94865E+01   -0.93856E+01  2720   0.382E+01
DAV:   3    -0.108353926605E+02   -0.68013E-01   -0.68013E-01  2064   0.383E+00
DAV:   4    -0.108356021669E+02   -0.20951E-03   -0.20951E-03  3488   0.235E-01
DAV:   5    -0.108356021738E+02   -0.68252E-08   -0.68253E-08  2032   0.123E-03    0.373E+00
RMM:   6    -0.108853315837E+02   -0.49729E-01   -0.45106E-02  1856   0.881E-01    0.190E+00
RMM:   7    -0.108244984905E+02    0.60833E-01   -0.43001E-02  1856   0.869E-01    0.103E+00
RMM:   8    -0.108422737780E+02   -0.17775E-01   -0.99403E-03  1856   0.472E-01    0.175E-01
RMM:   9    -0.108418799998E+02    0.39378E-03   -0.38871E-04  1838   0.882E-02    0.971E-02
RMM:  10    -0.108418321388E+02    0.47861E-04   -0.32359E-04  1841   0.772E-02
   1 F= -.10841832E+02 E0= -.10841832E+02  d E =-.108418E+02  mag=     0.0007
       N       E                     dE             d eps       ncg     rms          rms(c)
DAV:   1    -0.108513932777E+02   -0.95133E-02   -0.26639E-01  1984   0.146E+00    0.329E-01
RMM:   2    -0.108467706247E+02    0.46227E-02   -0.15745E-03  1856   0.208E-01    0.188E-01
RMM:   3    -0.108443991736E+02    0.23715E-02   -0.19258E-03  1856   0.144E-01    0.273E-02
RMM:   4    -0.108444141850E+02   -0.15011E-04   -0.37727E-05  1268   0.300E-02
   2 F= -.10844414E+02 E0= -.10844414E+02  d E =-.258205E-02  mag=    -0.0001
       N       E                     dE             d eps       ncg     rms          rms(c)
DAV:   1    -0.108478034405E+02   -0.34043E-02   -0.43085E-02  2464   0.594E-01    0.132E-01
RMM:   2    -0.108470730437E+02    0.73040E-03   -0.22916E-04  1849   0.781E-02    0.755E-02
RMM:   3    -0.108467083912E+02    0.36465E-03   -0.29840E-04  1842   0.566E-02    0.102E-02
RMM:   4    -0.108467149452E+02   -0.65540E-05   -0.48086E-06   969   0.111E-02
   3 F= -.10846715E+02 E0= -.10846715E+02  d E =-.488281E-02  mag=     0.0000
