 vasp.5.4.1 24Jun15 (build Feb 01 2016 23:38:11) complex                        
  
 executed on           IFC91_impi date 2016.08.25  07:31:08
 running on   16 total cores
 distrk:  each k-point on   16 cores,    1 groups
 distr:  one band on NCORES_PER_BAND=   1 cores,   16 groups


--------------------------------------------------------------------------------------------------------


 INCAR:
 POTCAR:   PAW_PBE Si 05Jan2001                   

 ----------------------------------------------------------------------------- 
|                                                                             |
|           W    W    AA    RRRRR   N    N  II  N    N   GGGG   !!!           |
|           W    W   A  A   R    R  NN   N  II  NN   N  G    G  !!!           |
|           W    W  A    A  R    R  N N  N  II  N N  N  G       !!!           |
|           W WW W  AAAAAA  RRRRR   N  N N  II  N  N N  G  GGG   !            |
|           WW  WW  A    A  R   R   N   NN  II  N   NN  G    G                |
|           W    W  A    A  R    R  N    N  II  N    N   GGGG   !!!           |
|                                                                             |
|      For optimal performance we recommend to set                            |
|        NCORE= 4 - approx SQRT( number of cores)                             |
|      NCORE specifies how many cores store one orbital (NPAR=cpu/NCORE).     |
|      This setting can  greatly improve the performance of VASP for DFT.     |
|      The default, NPAR=number of cores might be grossly inefficient         |
|      on modern multi-core architectures or massively parallel machines.     |
|      Do your own testing !!!!                                               |
|      Unfortunately you need to use the default for GW and RPA calculations. |
|      (for HF NCORE is supported but not extensively tested yet)             |
|                                                                             |
 ----------------------------------------------------------------------------- 

 POTCAR:   PAW_PBE Si 05Jan2001                   
   VRHFIN =Si: s2p2                                                             
   LEXCH  = PE                                                                  
   EATOM  =   103.0669 eV,    7.5752 Ry                                         
                                                                                
   TITEL  = PAW_PBE Si 05Jan2001                                                
   LULTRA =        F    use ultrasoft PP ?                                      
   IUNSCR =        1    unscreen: 0-lin 1-nonlin 2-no                           
   RPACOR =    1.500    partial core radius                                     
   POMASS =   28.085; ZVAL   =    4.000    mass and valenz                      
   RCORE  =    1.900    outmost cutoff radius                                   
   RWIGS  =    2.480; RWIGS  =    1.312    wigner-seitz radius (au A)           
   ENMAX  =  245.345; ENMIN  =  184.009 eV                                      
   ICORE  =        2    local potential                                         
   LCOR   =        T    correct aug charges                                     
   LPAW   =        T    paw PP                                                  
   EAUG   =  322.069                                                            
   DEXC   =    -.007                                                            
   RMAX   =    2.944    core radius for proj-oper                               
   RAUG   =    1.300    factor for augmentation sphere                          
   RDEP   =    1.993    radius for radial grids                                 
   QCUT   =   -4.246; QGAM   =    8.493    optimization parameters              
                                                                                
   Description                                                                  
     l     E      TYP  RCUT    TYP  RCUT                                        
     0   .000     23  1.900                                                     
     0   .000     23  1.900                                                     
     1   .000     23  1.900                                                     
     1   .000     23  1.900                                                     
     2   .000      7  1.900                                                     
  local pseudopotential read in
  partial core-charges read in
  atomic valenz-charges read in
  non local Contribution for L=           0  read in
    real space projection operators read in
  non local Contribution for L=           0  read in
    real space projection operators read in
  non local Contribution for L=           1  read in
    real space projection operators read in
  non local Contribution for L=           1  read in
    real space projection operators read in
    PAW grid and wavefunctions read in
 
   number of l-projection  operators is LMAX  =           4
   number of lm-projection operators is LMMAX =           8
 

 ----------------------------------------------------------------------------- 
|                                                                             |
|  ADVICE TO THIS USER RUNNING 'VASP/VAMP'   (HEAR YOUR MASTER'S VOICE ...):  |
|                                                                             |
|      You have a (more or less) 'small supercell' and for smaller cells      |
|      it is recommended  to use the reciprocal-space projection scheme!      |
|      The real space optimization is not  efficient for small cells and it   |
|      is also less accurate ...                                              |
|      Therefore set LREAL=.FALSE. in the  INCAR file                         |
|                                                                             |
 ----------------------------------------------------------------------------- 

 Optimization of the real space projectors (new method)

 maximal supplied QI-value         = 19.84
 optimisation between [QCUT,QGAM] = [ 11.51, 23.22] = [ 37.09,150.92] Ry 
 Optimized for a Real-space Cutoff    1.21 Angstroem

   l    n(q)    QCUT    max X(q) W(low)/X(q) W(high)/X(q)  e(spline) 
   0      8    11.508     8.708    0.18E-04    0.44E-05    0.47E-08
   0      8    11.508   106.241    0.70E-04    0.15E-03    0.51E-07
   1      8    11.508     5.901    0.63E-05    0.23E-04    0.21E-07
   1      8    11.508    73.241    0.15E-03    0.36E-04    0.79E-07
 PAW_PBE Si 05Jan2001                   :
 energy of atom  1       EATOM= -103.0669
 kinetic energy error for atom=    0.0005 (will be added to EATOM!!)
 
 
 POSCAR: Si2                                     
  positions in direct lattice
  No initial velocities read in
 exchange correlation table for  LEXCH =        8
   RHO(1)=    0.500       N(1)  =     2000
   RHO(2)=  100.500       N(2)  =     4000
 


--------------------------------------------------------------------------------------------------------


 ion  position               nearest neighbor table
   1  0.000  0.000  0.000-   2 2.35   2 2.35   2 2.35   2 2.35
   2  0.750  0.500  0.750-   1 2.35   1 2.35   1 2.35   1 2.35
 
  LATTYP: Found a face centered cubic cell.
 ALAT       =     5.4308612897
  
  Lattice vectors:
  
 A1 = (   1.9200990000,   3.3257100000,   0.0000000000)
 A2 = (   0.0000000000,   2.2171380000,  -3.1355090000)
 A3 = (  -1.9200990000,   3.3257100000,   0.0000000000)


Analysis of symmetry for initial positions (statically):
=====================================================================
 Subroutine PRICEL returns:
 Original cell was already a primitive cell.
 

 Routine SETGRP: Setting up the symmetry group for a 
 face centered cubic supercell.


 Subroutine GETGRP returns: Found 48 space group operations
 (whereof 24 operations were pure point group operations)
 out of a pool of 48 trial point group operations.


The static configuration has the point symmetry T_d .
 The point group associated with its full space group is O_h .


Analysis of symmetry for dynamics (positions and initial velocities):
=====================================================================
 Subroutine PRICEL returns:
 Original cell was already a primitive cell.
 

 Routine SETGRP: Setting up the symmetry group for a 
 face centered cubic supercell.


 Subroutine GETGRP returns: Found 48 space group operations
 (whereof 24 operations were pure point group operations)
 out of a pool of 48 trial point group operations.


The dynamic configuration has the point symmetry T_d .
 The point group associated with its full space group is O_h .


Analysis of structural, dynamic, and magnetic symmetry:
=====================================================================
 Subroutine PRICEL returns:
 Original cell was already a primitive cell.
 

 Routine SETGRP: Setting up the symmetry group for a 
 face centered cubic supercell.


 Subroutine GETGRP returns: Found 48 space group operations
 (whereof 24 operations were pure point group operations)
 out of a pool of 48 trial point group operations.


The magnetic configuration has the point symmetry T_d .
 The point group associated with its full space group is O_h .


 Subroutine INISYM returns: Found 48 space group operations
 (whereof 24 operations are pure point group operations),
 and found     1 'primitive' translations

 
 
 KPOINTS: pymatgen generated KPOINTS with grid den

Automatic generation of k-mesh.
Space group operators:
 irot       det(A)        alpha          n_x          n_y          n_z        tau_x        tau_y        tau_z
    1     1.000000     0.000000     1.000000     0.000000     0.000000     0.000000     0.000000     0.000000
    2     1.000000   120.000000    -0.000001    -0.942809     0.333334     0.000000     0.000000     0.000000
    3     1.000000   120.000000    -0.000001     0.942809    -0.333334     0.000000     0.000000     0.000000
    4    -1.000000    90.000000    -0.707107    -0.408248     0.577350     0.000000     0.000000     0.000000
    5    -1.000000   180.000000     0.500000     0.866025    -0.000001     0.000000     0.000000     0.000000
    6    -1.000000    90.000000    -0.000000     0.816497     0.577350     0.000000     0.000000     0.000000
    7     1.000000   180.000000     0.707107     0.408248    -0.577350     0.000000     0.000000     0.000000
    8     1.000000   120.000000     0.816497     0.471405     0.333333     0.000000     0.000000     0.000000
    9     1.000000   120.000000     0.000001     0.000000     1.000000     0.000000     0.000000     0.000000
   10    -1.000000    90.000000     0.707107     0.408248    -0.577350     0.000000     0.000000     0.000000
   11    -1.000000    90.000000     0.707107    -0.408248     0.577350     0.000000     0.000000     0.000000
   12    -1.000000   180.000000     0.000000    -0.577350     0.816497     0.000000     0.000000     0.000000
   13     1.000000   120.000000     0.000001    -0.000000    -1.000000     0.000000     0.000000     0.000000
   14     1.000000   120.000000     0.816497    -0.471405    -0.333333     0.000000     0.000000     0.000000
   15     1.000000   180.000000     0.707107    -0.408248     0.577350     0.000000     0.000000     0.000000
   16    -1.000000    90.000000    -0.000000    -0.816497    -0.577350     0.000000     0.000000     0.000000
   17    -1.000000   180.000000    -0.500000     0.866025    -0.000001     0.000000     0.000000     0.000000
   18    -1.000000    90.000000    -0.707107     0.408248    -0.577350     0.000000     0.000000     0.000000
   19     1.000000   120.000000    -0.816497    -0.471404    -0.333334     0.000000     0.000000     0.000000
   20     1.000000   180.000000     0.000000    -0.816497    -0.577350     0.000000     0.000000     0.000000
   21     1.000000   120.000000    -0.816497     0.471404     0.333334     0.000000     0.000000     0.000000
   22    -1.000000   179.999999    -0.500000     0.288675     0.816496     0.000000     0.000000     0.000000
   23    -1.000000   179.999999     0.500000     0.288675     0.816496     0.000000     0.000000     0.000000
   24    -1.000000   180.000000     1.000000     0.000000     0.000000     0.000000     0.000000     0.000000
   25    -1.000000     0.000000     1.000000     0.000000     0.000000    -0.250000     0.500000    -0.250000
   26    -1.000000   120.000000    -0.000001    -0.942809     0.333334    -0.250000     0.500000    -0.250000
   27    -1.000000   120.000000    -0.000001     0.942809    -0.333334    -0.250000     0.500000    -0.250000
   28     1.000000    90.000000    -0.707107    -0.408248     0.577350    -0.250000     0.500000    -0.250000
   29     1.000000   180.000000     0.500000     0.866025    -0.000001    -0.250000     0.500000    -0.250000
   30     1.000000    90.000000    -0.000000     0.816497     0.577350    -0.250000     0.500000    -0.250000
   31    -1.000000   180.000000     0.707107     0.408248    -0.577350    -0.250000     0.500000    -0.250000
   32    -1.000000   120.000000     0.816497     0.471405     0.333333    -0.250000     0.500000    -0.250000
   33    -1.000000   120.000000     0.000001     0.000000     1.000000    -0.250000     0.500000    -0.250000
   34     1.000000    90.000000     0.707107     0.408248    -0.577350    -0.250000     0.500000    -0.250000
   35     1.000000    90.000000     0.707107    -0.408248     0.577350    -0.250000     0.500000    -0.250000
   36     1.000000   180.000000     0.000000    -0.577350     0.816497    -0.250000     0.500000    -0.250000
   37    -1.000000   120.000000     0.000001    -0.000000    -1.000000    -0.250000     0.500000    -0.250000
   38    -1.000000   120.000000     0.816497    -0.471405    -0.333333    -0.250000     0.500000    -0.250000
   39    -1.000000   180.000000     0.707107    -0.408248     0.577350    -0.250000     0.500000    -0.250000
   40     1.000000    90.000000    -0.000000    -0.816497    -0.577350    -0.250000     0.500000    -0.250000
   41     1.000000   180.000000    -0.500000     0.866025    -0.000001    -0.250000     0.500000    -0.250000
   42     1.000000    90.000000    -0.707107     0.408248    -0.577350    -0.250000     0.500000    -0.250000
   43    -1.000000   120.000000    -0.816497    -0.471404    -0.333334    -0.250000     0.500000    -0.250000
   44    -1.000000   180.000000     0.000000    -0.816497    -0.577350    -0.250000     0.500000    -0.250000
   45    -1.000000   120.000000    -0.816497     0.471404     0.333334    -0.250000     0.500000    -0.250000
   46     1.000000   179.999999    -0.500000     0.288675     0.816496    -0.250000     0.500000    -0.250000
   47     1.000000   179.999999     0.500000     0.288675     0.816496    -0.250000     0.500000    -0.250000
   48     1.000000   180.000000     1.000000     0.000000     0.000000    -0.250000     0.500000    -0.250000
 
 Subroutine IBZKPT returns following result:
 ===========================================
 
 Found     29 irreducible k-points:
 
 Following reciprocal coordinates:
            Coordinates               Weight
  0.000000  0.000000  0.000000      1.000000
  0.125000  0.000000 -0.000000      8.000000
  0.250000  0.000000 -0.000000      8.000000
  0.375000  0.000000  0.000000      8.000000
  0.500000  0.000000 -0.000000      4.000000
  0.000000  0.125000  0.000000      6.000000
  0.250000  0.125000  0.000000     12.000000
  0.375000  0.125000  0.000000     24.000000
  0.500000  0.125000 -0.000000     24.000000
 -0.375000  0.125000 -0.000000     24.000000
 -0.250000  0.125000  0.000000     24.000000
 -0.125000  0.125000 -0.000000     24.000000
  0.000000  0.250000  0.000000      6.000000
  0.500000  0.250000  0.000000     12.000000
 -0.375000  0.250000  0.000000     24.000000
 -0.250000  0.250000 -0.000000     24.000000
 -0.125000  0.250000  0.000000     24.000000
  0.000000  0.375000 -0.000000      6.000000
 -0.250000  0.375000  0.000000     12.000000
 -0.125000  0.375000  0.000000     24.000000
  0.000000  0.500000  0.000000      3.000000
  0.375000  0.125000  0.125000     24.000000
  0.500000  0.125000  0.125000     48.000000
 -0.375000  0.125000  0.125000     24.000000
 -0.375000  0.250000  0.125000     24.000000
 -0.250000  0.250000  0.125000     48.000000
 -0.125000  0.250000  0.125000     24.000000
 -0.125000  0.375000  0.125000     12.000000
 -0.250000  0.250000  0.250000      6.000000
 
 Following cartesian coordinates:
            Coordinates               Weight
  0.000000  0.000000  0.000000      1.000000
  0.032550 -0.018793 -0.013289      8.000000
  0.065101 -0.037586 -0.026577      8.000000
  0.097651 -0.056379 -0.039866      8.000000
  0.130202 -0.075172 -0.053155      4.000000
  0.000000  0.037586  0.026577      6.000000
  0.065101  0.000000  0.000000     12.000000
  0.097651 -0.018793 -0.013289     24.000000
  0.130202 -0.037586 -0.026577     24.000000
 -0.097651  0.093965  0.066443     24.000000
 -0.065101  0.075172  0.053155     24.000000
 -0.032550  0.056379  0.039866     24.000000
  0.000000  0.075172  0.053155      6.000000
  0.130202  0.000000  0.000000     12.000000
 -0.097651  0.131551  0.093020     24.000000
 -0.065101  0.112758  0.079732     24.000000
 -0.032550  0.093965  0.066443     24.000000
  0.000000  0.112758  0.079732      6.000000
 -0.065101  0.150344  0.106309     12.000000
 -0.032550  0.131551  0.093020     24.000000
  0.000000  0.150344  0.106309      3.000000
  0.097651 -0.018793  0.026577     24.000000
  0.130202 -0.037586  0.013289     48.000000
 -0.097651  0.093965  0.106309     24.000000
 -0.097651  0.131551  0.132886     24.000000
 -0.065101  0.112758  0.119598     48.000000
 -0.032550  0.093965  0.106309     24.000000
 -0.032550  0.131551  0.132886     12.000000
 -0.065101  0.112758  0.159464      6.000000
 
 TETIRR: Found    336 inequivalent tetrahedra from     3072


--------------------------------------------------------------------------------------------------------




 Dimension of arrays:
   k-points           NKPTS =     29   k-points in BZ     NKDIM =     29   number of bands    NBANDS=     16
   number of dos      NEDOS =    301   number of ions     NIONS =      2
   non local maximal  LDIM  =      4   non local SUM 2l+1 LMDIM =      8
   total plane-waves  NPLWV =  27000
   max r-space proj   IRMAX =   5063   max aug-charges    IRDMAX=  22740
   dimension x,y,z NGX =    30 NGY =   30 NGZ =   30
   dimension x,y,z NGXF=    60 NGYF=   60 NGZF=   60
   support grid    NGXF=    60 NGYF=   60 NGZF=   60
   ions per type =               2
 NGX,Y,Z   is equivalent  to a cutoff of  12.99, 12.99, 12.99 a.u.
 NGXF,Y,Z  is equivalent  to a cutoff of  25.97, 25.97, 25.97 a.u.


 I would recommend the setting:
   dimension x,y,z NGX =    29 NGY =   29 NGZ =   29
 SYSTEM =  unknown system                          
 POSCAR =  Si2                                     

 Startparameter for this run:
   NWRITE =      2    write-flag & timer
   PREC   = accura    normal or accurate (medium, high low for compatibility)
   ISTART =      0    job   : 0-new  1-cont  2-samecut
   ICHARG =      1    charge: 1-file 2-atom 10-const
   ISPIN  =      2    spin polarized calculation?
   LNONCOLLINEAR =      F non collinear calculations
   LSORBIT =      F    spin-orbit coupling
   INIWAV =      1    electr: 0-lowe 1-rand  2-diag
   LASPH  =      F    aspherical Exc in radial PAW
   METAGGA=      F    non-selfconsistent MetaGGA calc.

 Electronic Relaxation 1
   ENCUT  =  520.0 eV  38.22 Ry    6.18 a.u.   7.14  7.14  7.14*2*pi/ulx,y,z
   ENINI  =  520.0     initial cutoff
   ENAUG  =  322.1 eV  augmentation charge cutoff
   NELM   =    100;   NELMIN=  2; NELMDL= -5     # of ELM steps 
   EDIFF  = 0.1E-03   stopping-criterion for ELM
   LREAL  =      T    real-space projection
   NLSPLINE    = F    spline interpolate recip. space projectors
   LCOMPAT=      F    compatible to vasp.4.4
   GGA_COMPAT  = T    GGA compatible to vasp.4.4-vasp.4.6
   LMAXPAW     = -100 max onsite density
   LMAXMIX     =    2 max onsite mixed and CHGCAR
   VOSKOWN=      0    Vosko Wilk Nusair interpolation
   ROPT   =   -0.00025
 Ionic relaxation
   EDIFFG = 0.1E-02   stopping-criterion for IOM
   NSW    =     99    number of steps for IOM
   NBLOCK =      1;   KBLOCK =     99    inner block; outer block 
   IBRION =      2    ionic relax: 0-MD 1-quasi-New 2-CG
   NFREE  =      1    steps in history (QN), initial steepest desc. (CG)
   ISIF   =      3    stress and relaxation
   IWAVPR =     11    prediction:  0-non 1-charg 2-wave 3-comb
   ISYM   =      2    0-nonsym 1-usesym 2-fastsym
   LCORR  =      T    Harris-Foulkes like correction to forces

   POTIM  = 0.5000    time-step for ionic-motion
   TEIN   =    0.0    initial temperature
   TEBEG  =    0.0;   TEEND  =   0.0 temperature during run
   SMASS  =  -3.00    Nose mass-parameter (am)
   estimated Nose-frequenzy (Omega)   =  0.10E-29 period in steps =****** mass=  -0.337E-27a.u.
   SCALEE = 1.0000    scale energy and forces
   NPACO  =    256;   APACO  = 16.0  distance and # of slots for P.C.
   PSTRESS=    0.0 pullay stress

  Mass of Ions in am
   POMASS =  28.09
  Ionic Valenz
   ZVAL   =   4.00
  Atomic Wigner-Seitz radii
   RWIGS  =  -1.00
  virtual crystal weights 
   VCA    =   1.00
   NELECT =       8.0000    total number of electrons
   NUPDOWN=      -1.0000    fix difference up-down

 DOS related values:
   EMIN   =  10.00;   EMAX   =-10.00  energy-range for DOS
   EFERMI =   0.00
   ISMEAR =    -5;   SIGMA  =   0.05  broadening in eV -4-tet -1-fermi 0-gaus

 Electronic relaxation 2 (details)
   IALGO  =     68    algorithm
   LDIAG  =      T    sub-space diagonalisation (order eigenvalues)
   LSUBROT=      F    optimize rotation matrix (better conditioning)
   TURBO    =      0    0=normal 1=particle mesh
   IRESTART =      0    0=no restart 2=restart with 2 vectors
   NREBOOT  =      0    no. of reboots
   NMIN     =      0    reboot dimension
   EREF     =   0.00    reference energy to select bands
   IMIX   =      4    mixing-type and parameters
     AMIX     =   0.40;   BMIX     =  1.00
     AMIX_MAG =   1.60;   BMIX_MAG =  1.00
     AMIN     =   0.10
     WC   =   100.;   INIMIX=   1;  MIXPRE=   1;  MAXMIX= -45

 Intra band minimization:
   WEIMIN = 0.0010     energy-eigenvalue tresh-hold
   EBREAK =  0.16E-05  absolut break condition
   DEPER  =   0.30     relativ break condition  

   TIME   =   0.40     timestep for ELM

  volume/ion in A,a.u.               =      20.02       135.12
  Fermi-wavevector in a.u.,A,eV,Ry     =   0.957024  1.808513 12.461506  0.915895
  Thomas-Fermi vector in A             =   2.086005
 
 Write flags
   LWAVE  =      F    write WAVECAR
   LCHARG =      T    write CHGCAR
   LVTOT  =      F    write LOCPOT, total local potential
   LVHAR  =      F    write LOCPOT, Hartree potential only
   LELF   =      F    write electronic localiz. function (ELF)
   LORBIT =     11    0 simple, 1 ext, 2 COOP (PROOUT)


 Dipole corrections
   LMONO  =      F    monopole corrections only (constant potential shift)
   LDIPOL =      F    correct potential (dipole corrections)
   IDIPOL =      0    1-x, 2-y, 3-z, 4-all directions 
   EPSILON=  1.0000000 bulk dielectric constant

 Exchange correlation treatment:
   GGA     =    --    GGA type
   LEXCH   =     8    internal setting for exchange type
   VOSKOWN=      0    Vosko Wilk Nusair interpolation
   LHFCALC =     F    Hartree Fock is set to
   LHFONE  =     F    Hartree Fock one center treatment
   AEXX    =    0.0000 exact exchange contribution

 Linear response parameters
   LEPSILON=     F    determine dielectric tensor
   LRPA    =     F    only Hartree local field effects (RPA)
   LNABLA  =     F    use nabla operator in PAW spheres
   LVEL    =     F    velocity operator in full k-point grid
   LINTERFAST=   F  fast interpolation
   KINTER  =     0    interpolate to denser k-point grid
   CSHIFT  =0.1000    complex shift for real part using Kramers Kronig
   OMEGAMAX=  -1.0    maximum frequency
   DEG_THRESHOLD= 0.2000000E-02 threshold for treating states as degnerate
   RTIME   =    0.100 relaxation time in fs

 Orbital magnetization related:
   ORBITALMAG=     F  switch on orbital magnetization
   LCHIMAG   =     F  perturbation theory with respect to B field
   DQ        =  0.001000  dq finite difference perturbation B field



--------------------------------------------------------------------------------------------------------


 conjugate gradient relaxation of ions
 charge density and potential will be updated during run
 spin polarized calculation
 RMM-DIIS sequential band-by-band and
  variant of blocked Davidson during initial phase
 perform sub-space diagonalisation
    before iterative eigenvector-optimisation
 modified Broyden-mixing scheme, WC =      100.0
 initial mixing is a Kerker type mixing with AMIX =  0.4000 and BMIX =      1.0000
 Hartree-type preconditioning will be used
 using additional bands           12
 real space projection scheme for non local part
 use partial core corrections
 calculate Harris-corrections to forces 
   (improved forces if not selfconsistent)
 use gradient corrections 
 use of overlap-Matrix (Vanderbilt PP)
 Fermi weights with tetrahedron method with Bloechl corrections


--------------------------------------------------------------------------------------------------------


  energy-cutoff  :      520.00
  volume of cell :       40.04
      direct lattice vectors                 reciprocal lattice vectors
     3.840198000  0.000000000  0.000000000     0.260403240 -0.150343836 -0.106309066
     1.920099000  3.325710000  0.000000000     0.000000000  0.300687673  0.212618132
     0.000000000 -2.217138000  3.135509000     0.000000000  0.000000000  0.318927485

  length of vectors
     3.840198000  3.840198846  3.840197599     0.318927474  0.368265592  0.318927485


 
 k-points in units of 2pi/SCALE and weight: pymatgen generated KPOINTS with grid den
   0.00000000  0.00000000  0.00000000       0.002
   0.03255040 -0.01879298 -0.01328863       0.016
   0.06510081 -0.03758596 -0.02657727       0.016
   0.09765121 -0.05637894 -0.03986590       0.016
   0.13020162 -0.07517192 -0.05315453       0.008
   0.00000000  0.03758596  0.02657727       0.012
   0.06510081  0.00000000  0.00000000       0.023
   0.09765121 -0.01879298 -0.01328863       0.047
   0.13020162 -0.03758596 -0.02657727       0.047
  -0.09765121  0.09396490  0.06644317       0.047
  -0.06510081  0.07517192  0.05315453       0.047
  -0.03255040  0.05637894  0.03986590       0.047
   0.00000000  0.07517192  0.05315453       0.012
   0.13020162  0.00000000  0.00000000       0.023
  -0.09765121  0.13155086  0.09302043       0.047
  -0.06510081  0.11275788  0.07973180       0.047
  -0.03255040  0.09396490  0.06644317       0.047
   0.00000000  0.11275788  0.07973180       0.012
  -0.06510081  0.15034384  0.10630907       0.023
  -0.03255040  0.13155086  0.09302043       0.047
   0.00000000  0.15034384  0.10630907       0.006
   0.09765121 -0.01879298  0.02657730       0.047
   0.13020162 -0.03758596  0.01328867       0.094
  -0.09765121  0.09396490  0.10630910       0.047
  -0.09765121  0.13155086  0.13288637       0.047
  -0.06510081  0.11275788  0.11959774       0.094
  -0.03255040  0.09396490  0.10630910       0.047
  -0.03255040  0.13155086  0.13288637       0.023
  -0.06510081  0.11275788  0.15946367       0.012
 
 k-points in reciprocal lattice and weights: pymatgen generated KPOINTS with grid den
   0.00000000  0.00000000  0.00000000       0.002
   0.12500000  0.00000000 -0.00000000       0.016
   0.25000000  0.00000000 -0.00000000       0.016
   0.37500000  0.00000000  0.00000000       0.016
   0.50000000  0.00000000 -0.00000000       0.008
   0.00000000  0.12500000  0.00000000       0.012
   0.25000000  0.12500000  0.00000000       0.023
   0.37500000  0.12500000  0.00000000       0.047
   0.50000000  0.12500000 -0.00000000       0.047
  -0.37500000  0.12500000 -0.00000000       0.047
  -0.25000000  0.12500000  0.00000000       0.047
  -0.12500000  0.12500000 -0.00000000       0.047
   0.00000000  0.25000000  0.00000000       0.012
   0.50000000  0.25000000  0.00000000       0.023
  -0.37500000  0.25000000  0.00000000       0.047
  -0.25000000  0.25000000 -0.00000000       0.047
  -0.12500000  0.25000000  0.00000000       0.047
   0.00000000  0.37500000 -0.00000000       0.012
  -0.25000000  0.37500000  0.00000000       0.023
  -0.12500000  0.37500000  0.00000000       0.047
   0.00000000  0.50000000  0.00000000       0.006
   0.37500000  0.12500000  0.12500000       0.047
   0.50000000  0.12500000  0.12500000       0.094
  -0.37500000  0.12500000  0.12500000       0.047
  -0.37500000  0.25000000  0.12500000       0.047
  -0.25000000  0.25000000  0.12500000       0.094
  -0.12500000  0.25000000  0.12500000       0.047
  -0.12500000  0.37500000  0.12500000       0.023
  -0.25000000  0.25000000  0.25000000       0.012
 
 position of ions in fractional coordinates (direct lattice) 
   0.00000000  0.00000000  0.00000000
   0.75000000  0.50000000  0.75000000
 
 position of ions in cartesian coordinates  (Angst):
   0.00000000  0.00000000  0.00000000
   3.84019800  0.00000150  2.35163175
 


--------------------------------------------------------------------------------------------------------


 k-point  1 :   0.0000 0.0000 0.0000  plane waves:    1067
 k-point  2 :   0.1250 0.0000-0.0000  plane waves:    1064
 k-point  3 :   0.2500 0.0000-0.0000  plane waves:    1077
 k-point  4 :   0.3750 0.0000 0.0000  plane waves:    1083
 k-point  5 :   0.5000 0.0000-0.0000  plane waves:    1068
 k-point  6 :   0.0000 0.1250 0.0000  plane waves:    1062
 k-point  7 :   0.2500 0.1250 0.0000  plane waves:    1055
 k-point  8 :   0.3750 0.1250 0.0000  plane waves:    1076
 k-point  9 :   0.5000 0.1250-0.0000  plane waves:    1080
 k-point 10 :  -0.3750 0.1250-0.0000  plane waves:    1086
 k-point 11 :  -0.2500 0.1250 0.0000  plane waves:    1076
 k-point 12 :  -0.1250 0.1250-0.0000  plane waves:    1069
 k-point 13 :   0.0000 0.2500 0.0000  plane waves:    1062
 k-point 14 :   0.5000 0.2500 0.0000  plane waves:    1081
 k-point 15 :  -0.3750 0.2500 0.0000  plane waves:    1081
 k-point 16 :  -0.2500 0.2500-0.0000  plane waves:    1082
 k-point 17 :  -0.1250 0.2500 0.0000  plane waves:    1067
 k-point 18 :   0.0000 0.3750-0.0000  plane waves:    1074
 k-point 19 :  -0.2500 0.3750 0.0000  plane waves:    1069
 k-point 20 :  -0.1250 0.3750 0.0000  plane waves:    1080
 k-point 21 :   0.0000 0.5000 0.0000  plane waves:    1090
 k-point 22 :   0.3750 0.1250 0.1250  plane waves:    1075
 k-point 23 :   0.5000 0.1250 0.1250  plane waves:    1075
 k-point 24 :  -0.3750 0.1250 0.1250  plane waves:    1086
 k-point 25 :  -0.3750 0.2500 0.1250  plane waves:    1088
 k-point 26 :  -0.2500 0.2500 0.1250  plane waves:    1085
 k-point 27 :  -0.1250 0.2500 0.1250  plane waves:    1077
 k-point 28 :  -0.1250 0.3750 0.1250  plane waves:    1082
 k-point 29 :  -0.2500 0.2500 0.2500  plane waves:    1084

 maximum and minimum number of plane-waves per node :      1090     1055

 maximum number of plane-waves:      1090
 maximum index in each direction: 
   IXMAX=    7   IYMAX=    7   IZMAX=    7
   IXMIN=   -7   IYMIN=   -7   IZMIN=   -7

 NGX is ok and might be reduce to  30
 NGY is ok and might be reduce to  30
 NGZ is ok and might be reduce to  30

 serial   3D FFT for wavefunctions
 parallel 3D FFT for charge:
    minimum data exchange during FFTs selected (reduces bandwidth)


 total amount of memory used by VASP on root node    35766. kBytes
========================================================================

   base      :      30000. kBytes
   nonlr-proj:        859. kBytes
   fftplans  :        604. kBytes
   grid      :       3252. kBytes
   one-center:         12. kBytes
   wavefun   :       1039. kBytes
 
     INWAV:  cpu time    0.0010: real time    0.0001
 Broyden mixing: mesh for mixing (old mesh)
   NGX = 15   NGY = 15   NGZ = 15
  (NGX  = 60   NGY  = 60   NGZ  = 60)
  gives a total of   3375 points

 initial charge density was supplied:
 charge density of overlapping atoms calculated
 number of electron       8.0000000 magnetization       1.2000000
 keeping initial charge density in first step


--------------------------------------------------------------------------------------------------------


 Maximum index for non-local projection operator         4897
 Maximum index for augmentation-charges         1619 (set IRDMAX)


--------------------------------------------------------------------------------------------------------


 First call to EWALD:  gamma=   0.518
 Maximum number of real-space cells 3x 3x 3
 Maximum number of reciprocal cells 3x 3x 3

 FEWALD executed in parallel
    FEWALD:  cpu time    0.0040: real time    0.0055


----------------------------------------- Iteration    1(   1)  ---------------------------------------


    POTLOK:  cpu time    0.0290: real time    0.0451
    SETDIJ:  cpu time    0.0070: real time    0.0096
     EDDAV:  cpu time    0.5069: real time    0.5171
 BZINTS: Fermi energy:  8.081484;  8.000000 electrons
         Band energy:  12.092101;  BLOECHL correction: -0.073123
       DOS:  cpu time    0.0210: real time    0.0245
    --------------------------------------------
      LOOP:  cpu time    0.5659: real time    0.5980

 eigenvalue-minimisations  :  1872
 total energy-change (2. order) :-0.1280910E+01  (-0.3091123E+03)
 number of electron       8.0000000 magnetization       1.2000000
 augmentation part        8.0000000 magnetization       1.2000000

 Free energy of the ion-electron system (eV)
  ---------------------------------------------------
  alpha Z        PSCENC =         3.36254244
  Ewald energy   TEWEN  =      -228.52729335
  -Hartree energ DENC   =       -11.00822102
  -exchange      EXHF   =         0.00000000
  -V(xc)+E(xc)   XCENC  =       -18.52396975
  PAW double counting   =        65.91709927      -30.72587073
  entropy T*S    EENTRO =         0.00000000
  eigenvalues    EBANDS =        12.09210069
  atomic energy  EATOM  =       206.13270273
  Solvation  Ediel_sol  =         0.00000000
  ---------------------------------------------------
  free energy    TOTEN  =        -1.28090971 eV

  energy without entropy =       -1.28090971  energy(sigma->0) =       -1.28090971


--------------------------------------------------------------------------------------------------------




----------------------------------------- Iteration    1(   2)  ---------------------------------------


     EDDAV:  cpu time    0.7369: real time    0.7379
 BZINTS: Fermi energy:  5.763913;  8.000000 electrons
         Band energy:   2.605631;  BLOECHL correction:  0.000000
       DOS:  cpu time    0.0060: real time    0.0061
    --------------------------------------------
      LOOP:  cpu time    0.7449: real time    0.7460

 eigenvalue-minimisations  :  2720
 total energy-change (2. order) :-0.9486470E+01  (-0.9385650E+01)
 number of electron       8.0000000 magnetization       1.2000000
 augmentation part        8.0000000 magnetization       1.2000000

 Free energy of the ion-electron system (eV)
  ---------------------------------------------------
  alpha Z        PSCENC =         3.36254244
  Ewald energy   TEWEN  =      -228.52729335
  -Hartree energ DENC   =       -11.00822102
  -exchange      EXHF   =         0.00000000
  -V(xc)+E(xc)   XCENC  =       -18.52396975
  PAW double counting   =        65.91709927      -30.72587073
  entropy T*S    EENTRO =         0.00000000
  eigenvalues    EBANDS =         2.60563111
  atomic energy  EATOM  =       206.13270273
  Solvation  Ediel_sol  =         0.00000000
  ---------------------------------------------------
  free energy    TOTEN  =       -10.76737930 eV

  energy without entropy =      -10.76737930  energy(sigma->0) =      -10.76737930


--------------------------------------------------------------------------------------------------------




----------------------------------------- Iteration    1(   3)  ---------------------------------------


     EDDAV:  cpu time    0.5579: real time    0.5587
 BZINTS: Fermi energy:  5.692656;  8.000000 electrons
         Band energy:   2.537618;  BLOECHL correction:  0.000000
       DOS:  cpu time    0.0060: real time    0.0055
    --------------------------------------------
      LOOP:  cpu time    0.5649: real time    0.5648

 eigenvalue-minimisations  :  2064
 total energy-change (2. order) :-0.6801336E-01  (-0.6801336E-01)
 number of electron       8.0000000 magnetization       1.2000000
 augmentation part        8.0000000 magnetization       1.2000000

 Free energy of the ion-electron system (eV)
  ---------------------------------------------------
  alpha Z        PSCENC =         3.36254244
  Ewald energy   TEWEN  =      -228.52729335
  -Hartree energ DENC   =       -11.00822102
  -exchange      EXHF   =         0.00000000
  -V(xc)+E(xc)   XCENC  =       -18.52396975
  PAW double counting   =        65.91709927      -30.72587073
  entropy T*S    EENTRO =         0.00000000
  eigenvalues    EBANDS =         2.53761775
  atomic energy  EATOM  =       206.13270273
  Solvation  Ediel_sol  =         0.00000000
  ---------------------------------------------------
  free energy    TOTEN  =       -10.83539266 eV

  energy without entropy =      -10.83539266  energy(sigma->0) =      -10.83539266


--------------------------------------------------------------------------------------------------------




----------------------------------------- Iteration    1(   4)  ---------------------------------------


     EDDAV:  cpu time    1.0298: real time    1.0307
 BZINTS: Fermi energy:  5.631135;  8.000000 electrons
         Band energy:   2.537408;  BLOECHL correction:  0.000000
       DOS:  cpu time    0.0060: real time    0.0055
    --------------------------------------------
      LOOP:  cpu time    1.0358: real time    1.0370

 eigenvalue-minimisations  :  3488
 total energy-change (2. order) :-0.2095064E-03  (-0.2095064E-03)
 number of electron       8.0000000 magnetization       1.2000000
 augmentation part        8.0000000 magnetization       1.2000000

 Free energy of the ion-electron system (eV)
  ---------------------------------------------------
  alpha Z        PSCENC =         3.36254244
  Ewald energy   TEWEN  =      -228.52729335
  -Hartree energ DENC   =       -11.00822102
  -exchange      EXHF   =         0.00000000
  -V(xc)+E(xc)   XCENC  =       -18.52396975
  PAW double counting   =        65.91709927      -30.72587073
  entropy T*S    EENTRO =         0.00000000
  eigenvalues    EBANDS =         2.53740824
  atomic energy  EATOM  =       206.13270273
  Solvation  Ediel_sol  =         0.00000000
  ---------------------------------------------------
  free energy    TOTEN  =       -10.83560217 eV

  energy without entropy =      -10.83560217  energy(sigma->0) =      -10.83560217


--------------------------------------------------------------------------------------------------------




----------------------------------------- Iteration    1(   5)  ---------------------------------------


     EDDAV:  cpu time    0.5469: real time    0.5472
 BZINTS: Fermi energy:  5.625936;  8.000000 electrons
         Band energy:   2.537408;  BLOECHL correction:  0.000000
       DOS:  cpu time    0.0050: real time    0.0055
    CHARGE:  cpu time    0.0470: real time    0.0565
    MIXING:  cpu time    0.0040: real time    0.0068
    --------------------------------------------
      LOOP:  cpu time    0.6039: real time    0.6178

 eigenvalue-minimisations  :  2032
 total energy-change (2. order) :-0.6825218E-08  (-0.6825257E-08)
 number of electron       8.0000000 magnetization      -0.3371895
 augmentation part       -0.4710690 magnetization      -0.3337687

 Broyden mixing:
  rms(total) = 0.37339E+00    rms(broyden)= 0.37339E+00
  rms(prec ) = 0.90203E+00
  weight for this iteration     100.00

 Free energy of the ion-electron system (eV)
  ---------------------------------------------------
  alpha Z        PSCENC =         3.36254244
  Ewald energy   TEWEN  =      -228.52729335
  -Hartree energ DENC   =       -11.00822102
  -exchange      EXHF   =         0.00000000
  -V(xc)+E(xc)   XCENC  =       -18.52396975
  PAW double counting   =        65.91709927      -30.72587073
  entropy T*S    EENTRO =         0.00000000
  eigenvalues    EBANDS =         2.53740823
  atomic energy  EATOM  =       206.13270273
  Solvation  Ediel_sol  =         0.00000000
  ---------------------------------------------------
  free energy    TOTEN  =       -10.83560217 eV

  energy without entropy =      -10.83560217  energy(sigma->0) =      -10.83560217


--------------------------------------------------------------------------------------------------------




----------------------------------------- Iteration    1(   6)  ---------------------------------------


    POTLOK:  cpu time    0.0210: real time    0.0213
    SETDIJ:  cpu time    0.0050: real time    0.0050
    EDDIAG:  cpu time    0.0940: real time    0.1113
  RMM-DIIS:  cpu time    0.2970: real time    0.2975
    ORTHCH:  cpu time    0.0080: real time    0.0082
 BZINTS: Fermi energy:  5.596804;  8.000000 electrons
         Band energy:   3.940717;  BLOECHL correction:  0.000000
       DOS:  cpu time    0.0060: real time    0.0055
    CHARGE:  cpu time    0.0410: real time    0.0413
    MIXING:  cpu time    0.0020: real time    0.0026
    --------------------------------------------
      LOOP:  cpu time    0.4739: real time    0.4934

 eigenvalue-minimisations  :  1856
 total energy-change (2. order) :-0.4972941E-01  (-0.4510560E-02)
 number of electron       8.0000000 magnetization       0.4326474
 augmentation part       -0.4644948 magnetization       0.4323890

 Broyden mixing:
  rms(total) = 0.18988E+00    rms(broyden)= 0.18988E+00
  rms(prec ) = 0.51796E+00
  weight for this iteration     100.00

 eigenvalues of (default mixing * dielectric matrix)
  average eigenvalue GAMMA=   0.8555
  0.8555

 Free energy of the ion-electron system (eV)
  ---------------------------------------------------
  alpha Z        PSCENC =         3.36254244
  Ewald energy   TEWEN  =      -228.52729335
  -Hartree energ DENC   =       -12.51123904
  -exchange      EXHF   =         0.00000000
  -V(xc)+E(xc)   XCENC  =       -18.36014218
  PAW double counting   =        69.94227820      -34.86489710
  entropy T*S    EENTRO =         0.00000000
  eigenvalues    EBANDS =         3.94071672
  atomic energy  EATOM  =       206.13270273
  Solvation  Ediel_sol  =         0.00000000
  ---------------------------------------------------
  free energy    TOTEN  =       -10.88533158 eV

  energy without entropy =      -10.88533158  energy(sigma->0) =      -10.88533158


--------------------------------------------------------------------------------------------------------




----------------------------------------- Iteration    1(   7)  ---------------------------------------


    POTLOK:  cpu time    0.0210: real time    0.0214
    SETDIJ:  cpu time    0.0050: real time    0.0050
    EDDIAG:  cpu time    0.0770: real time    0.0767
  RMM-DIIS:  cpu time    0.3130: real time    0.3127
    ORTHCH:  cpu time    0.0080: real time    0.0082
 BZINTS: Fermi energy:  5.910830;  8.000000 electrons
         Band energy:   5.552144;  BLOECHL correction:  0.000000
       DOS:  cpu time    0.0060: real time    0.0061
    CHARGE:  cpu time    0.0410: real time    0.0413
    MIXING:  cpu time    0.0010: real time    0.0005
    --------------------------------------------
      LOOP:  cpu time    0.4719: real time    0.4726

 eigenvalue-minimisations  :  1856
 total energy-change (2. order) : 0.6083309E-01  (-0.4300103E-02)
 number of electron       8.0000000 magnetization       0.0096667
 augmentation part       -0.4594269 magnetization       0.0103258

 Broyden mixing:
  rms(total) = 0.10261E+00    rms(broyden)= 0.10261E+00
  rms(prec ) = 0.16730E+00
  weight for this iteration     100.00

 eigenvalues of (default mixing * dielectric matrix)
  average eigenvalue GAMMA=   1.5043
  0.7636  2.2451

 Free energy of the ion-electron system (eV)
  ---------------------------------------------------
  alpha Z        PSCENC =         3.36254244
  Ewald energy   TEWEN  =      -228.52729335
  -Hartree energ DENC   =       -14.25189306
  -exchange      EXHF   =         0.00000000
  -V(xc)+E(xc)   XCENC  =       -18.07160404
  PAW double counting   =        73.79892720      -38.82002455
  entropy T*S    EENTRO =         0.00000000
  eigenvalues    EBANDS =         5.55214415
  atomic energy  EATOM  =       206.13270273
  Solvation  Ediel_sol  =         0.00000000
  ---------------------------------------------------
  free energy    TOTEN  =       -10.82449849 eV

  energy without entropy =      -10.82449849  energy(sigma->0) =      -10.82449849


--------------------------------------------------------------------------------------------------------




----------------------------------------- Iteration    1(   8)  ---------------------------------------


    POTLOK:  cpu time    0.0210: real time    0.0213
    SETDIJ:  cpu time    0.0060: real time    0.0050
    EDDIAG:  cpu time    0.0760: real time    0.0767
  RMM-DIIS:  cpu time    0.3130: real time    0.3128
    ORTHCH:  cpu time    0.0070: real time    0.0082
 BZINTS: Fermi energy:  5.870317;  8.000000 electrons
         Band energy:   6.127629;  BLOECHL correction:  0.000000
       DOS:  cpu time    0.0060: real time    0.0055
    CHARGE:  cpu time    0.0410: real time    0.0412
    MIXING:  cpu time    0.0000: real time    0.0005
    --------------------------------------------
      LOOP:  cpu time    0.4699: real time    0.4718

 eigenvalue-minimisations  :  1856
 total energy-change (2. order) :-0.1777529E-01  (-0.9940281E-03)
 number of electron       8.0000000 magnetization      -0.0094207
 augmentation part       -0.4579191 magnetization      -0.0093420

 Broyden mixing:
  rms(total) = 0.17518E-01    rms(broyden)= 0.17518E-01
  rms(prec ) = 0.31583E-01
  weight for this iteration     100.00

 eigenvalues of (default mixing * dielectric matrix)
  average eigenvalue GAMMA=   1.2909
  2.4323  0.7861  0.6542

 Free energy of the ion-electron system (eV)
  ---------------------------------------------------
  alpha Z        PSCENC =         3.36254244
  Ewald energy   TEWEN  =      -228.52729335
  -Hartree energ DENC   =       -14.90745512
  -exchange      EXHF   =         0.00000000
  -V(xc)+E(xc)   XCENC  =       -17.97539245
  PAW double counting   =        74.92114130      -39.97614829
  entropy T*S    EENTRO =         0.00000000
  eigenvalues    EBANDS =         6.12762895
  atomic energy  EATOM  =       206.13270273
  Solvation  Ediel_sol  =         0.00000000
  ---------------------------------------------------
  free energy    TOTEN  =       -10.84227378 eV

  energy without entropy =      -10.84227378  energy(sigma->0) =      -10.84227378


--------------------------------------------------------------------------------------------------------




----------------------------------------- Iteration    1(   9)  ---------------------------------------


    POTLOK:  cpu time    0.0210: real time    0.0212
    SETDIJ:  cpu time    0.0060: real time    0.0050
    EDDIAG:  cpu time    0.0760: real time    0.0766
  RMM-DIIS:  cpu time    0.2980: real time    0.2979
    ORTHCH:  cpu time    0.0080: real time    0.0082
 BZINTS: Fermi energy:  5.872934;  8.000000 electrons
         Band energy:   6.120803;  BLOECHL correction:  0.000000
       DOS:  cpu time    0.0060: real time    0.0055
    CHARGE:  cpu time    0.0410: real time    0.0413
    MIXING:  cpu time    0.0000: real time    0.0005
    --------------------------------------------
      LOOP:  cpu time    0.4569: real time    0.4570

 eigenvalue-minimisations  :  1838
 total energy-change (2. order) : 0.3937782E-03  (-0.3887132E-04)
 number of electron       8.0000000 magnetization      -0.0002079
 augmentation part       -0.4582469 magnetization      -0.0001088

 Broyden mixing:
  rms(total) = 0.97139E-02    rms(broyden)= 0.97139E-02
  rms(prec ) = 0.18900E-01
  weight for this iteration     100.00

 eigenvalues of (default mixing * dielectric matrix)
  average eigenvalue GAMMA=   1.4830
  0.7788  0.6415  2.4803  2.0313

 Free energy of the ion-electron system (eV)
  ---------------------------------------------------
  alpha Z        PSCENC =         3.36254244
  Ewald energy   TEWEN  =      -228.52729335
  -Hartree energ DENC   =       -14.91173326
  -exchange      EXHF   =         0.00000000
  -V(xc)+E(xc)   XCENC  =       -17.97102204
  PAW double counting   =        74.67421151      -39.72209125
  entropy T*S    EENTRO =         0.00000000
  eigenvalues    EBANDS =         6.12080322
  atomic energy  EATOM  =       206.13270273
  Solvation  Ediel_sol  =         0.00000000
  ---------------------------------------------------
  free energy    TOTEN  =       -10.84188000 eV

  energy without entropy =      -10.84188000  energy(sigma->0) =      -10.84188000


--------------------------------------------------------------------------------------------------------




----------------------------------------- Iteration    1(  10)  ---------------------------------------


    POTLOK:  cpu time    0.0220: real time    0.0213
    SETDIJ:  cpu time    0.0050: real time    0.0050
    EDDIAG:  cpu time    0.0760: real time    0.0767
  RMM-DIIS:  cpu time    0.2970: real time    0.2973
    ORTHCH:  cpu time    0.0080: real time    0.0082
 BZINTS: Fermi energy:  5.877589;  8.000000 electrons
         Band energy:   6.109814;  BLOECHL correction:  0.000000
       DOS:  cpu time    0.0050: real time    0.0055
    --------------------------------------------
      LOOP:  cpu time    0.4139: real time    0.4147

 eigenvalue-minimisations  :  1841
 total energy-change (2. order) : 0.4786101E-04  (-0.3235867E-04)
 number of electron       8.0000000 magnetization      -0.0002079
 augmentation part       -0.4582469 magnetization      -0.0001088

 Free energy of the ion-electron system (eV)
  ---------------------------------------------------
  alpha Z        PSCENC =         3.36254244
  Ewald energy   TEWEN  =      -228.52729335
  -Hartree energ DENC   =       -14.91803755
  -exchange      EXHF   =         0.00000000
  -V(xc)+E(xc)   XCENC  =       -17.96487983
  PAW double counting   =        74.29704252      -39.33372275
  entropy T*S    EENTRO =         0.00000000
  eigenvalues    EBANDS =         6.10981365
  atomic energy  EATOM  =       206.13270273
  Solvation  Ediel_sol  =         0.00000000
  ---------------------------------------------------
  free energy    TOTEN  =       -10.84183214 eV

  energy without entropy =      -10.84183214  energy(sigma->0) =      -10.84183214


--------------------------------------------------------------------------------------------------------




 average (electrostatic) potential at core
  the test charge radii are     0.9892
  (the norm of the test charge is              1.0000)
       1 -83.2530       2 -83.2530
 
 
 
 E-fermi :   5.8776     XC(G=0):  -9.4112     alpha+bet :-11.9788


 spin component 1

 k-point     1 :       0.0000    0.0000    0.0000
  band No.  band energies     occupation 
      1      -6.1340      1.00000
      2       5.8212      1.00000
      3       5.8212      1.00000
      4       5.8212      1.00000
      5       8.3918      0.00000
      6       8.3918      0.00000
      7       8.3918      0.00000
      8       9.1951      0.00000
      9      13.5462      0.00000
     10      13.5462      0.00000
     11      13.7747      0.00000
     12      17.0788      0.00000
     13      17.0788      0.00000
     14      17.0788      0.00000
     15      21.2151      0.00000
     16      28.9266      0.00000

 k-point     2 :       0.1250    0.0000   -0.0000
  band No.  band energies     occupation 
      1      -5.9298      1.00000
      2       4.2256      1.00000
      3       5.5333      1.00000
      4       5.5333      1.00000
      5       8.3292      0.00000
      6       8.8153      0.00000
      7       8.8153      0.00000
      8      10.5384      0.00000
      9      13.0648      0.00000
     10      13.0648      0.00000
     11      14.5625      0.00000
     12      16.5168      0.00000
     13      18.2421      0.00000
     14      18.2421      0.00000
     15      22.4506      0.00000
     16      26.9074      0.00000

 k-point     3 :       0.2500    0.0000   -0.0000
  band No.  band energies     occupation 
      1      -5.3343      1.00000
      2       1.8990      1.00000
      3       5.0638      1.00000
      4       5.0638      1.00000
      5       7.8550      0.00000
      6       9.3329      0.00000
      7       9.3329      0.00000
      8      12.7443      0.00000
      9      13.0213      0.00000
     10      13.0213      0.00000
     11      14.8160      0.00000
     12      17.6630      0.00000
     13      20.4697      0.00000
     14      20.4697      0.00000
     15      23.6835      0.00000
     16      23.7088      0.00000

 k-point     4 :       0.3750    0.0000    0.0000
  band No.  band energies     occupation 
      1      -4.4408      1.00000
      2      -0.1202      1.00000
      3       4.7374      1.00000
      4       4.7374      1.00000
      5       7.4911      0.00000
      6       9.2779      0.00000
      7       9.2779      0.00000
      8      13.7048      0.00000
      9      14.4072      0.00000
     10      14.4072      0.00000
     11      15.5112      0.00000
     12      19.5828      0.00000
     13      19.5828      0.00000
     14      19.9186      0.00000
     15      22.4982      0.00000
     16      24.3708      0.00000

 k-point     5 :       0.5000    0.0000   -0.0000
  band No.  band energies     occupation 
      1      -3.8031      1.00000
      2      -1.1421      1.00000
      3       4.6257      1.00000
      4       4.6257      1.00000
      5       7.3630      0.00000
      6       9.1668      0.00000
      7       9.1668      0.00000
      8      13.5492      0.00000
      9      16.3740      0.00000
     10      16.3740      0.00000
     11      17.1685      0.00000
     12      17.1685      0.00000
     13      17.1732      0.00000
     14      18.8514      0.00000
     15      25.2060      0.00000
     16      25.8031      0.00000

 k-point     6 :       0.0000    0.1250    0.0000
  band No.  band energies     occupation 
      1      -5.8610      1.00000
      2       4.4898      1.00000
      3       5.0170      1.00000
      4       5.0170      1.00000
      5       7.8389      0.00000
      6       9.5298      0.00000
      7       9.5298      0.00000
      8      10.2257      0.00000
      9      12.3331      0.00000
     10      13.8488      0.00000
     11      14.8629      0.00000
     12      17.5514      0.00000
     13      17.5514      0.00000
     14      18.0335      0.00000
     15      23.0385      0.00000
     16      26.4312      0.00000

 k-point     7 :       0.2500    0.1250    0.0000
  band No.  band energies     occupation 
      1      -5.5936      1.00000
      2       3.1411      1.00000
      3       4.1967      1.00000
      4       5.5295      1.00000
      5       8.8711      0.00000
      6       8.9524      0.00000
      7       9.1825      0.00000
      8      11.3759      0.00000
      9      12.1683      0.00000
     10      13.8582      0.00000
     11      15.5811      0.00000
     12      17.0060      0.00000
     13      18.1937      0.00000
     14      20.3070      0.00000
     15      23.5408      0.00000
     16      23.9636      0.00000

 k-point     8 :       0.3750    0.1250    0.0000
  band No.  band energies     occupation 
      1      -4.8839      1.00000
      2       1.2008      1.00000
      3       3.5151      1.00000
      4       5.0496      1.00000
      5       8.5458      0.00000
      6       9.5050      0.00000
      7       9.6801      0.00000
      8      12.1236      0.00000
      9      12.2984      0.00000
     10      15.6678      0.00000
     11      15.9017      0.00000
     12      18.2567      0.00000
     13      19.8125      0.00000
     14      21.2658      0.00000
     15      22.2178      0.00000
     16      23.8801      0.00000

 k-point     9 :       0.5000    0.1250   -0.0000
  band No.  band energies     occupation 
      1      -3.9609      1.00000
      2      -0.5505      1.00000
      3       3.3643      1.00000
      4       4.5589      1.00000
      5       8.1865      0.00000
      6       9.4477      0.00000
      7       9.6953      0.00000
      8      13.7404      0.00000
      9      13.9211      0.00000
     10      15.0345      0.00000
     11      17.0132      0.00000
     12      18.2732      0.00000
     13      20.0934      0.00000
     14      20.5467      0.00000
     15      22.7082      0.00000
     16      24.4687      0.00000

 k-point    10 :      -0.3750    0.1250   -0.0000
  band No.  band energies     occupation 
      1      -3.7165      1.00000
      2      -0.9209      1.00000
      3       3.5458      1.00000
      4       4.2629      1.00000
      5       8.0195      0.00000
      6       9.3399      0.00000
      7       9.9268      0.00000
      8      13.1942      0.00000
      9      14.8184      0.00000
     10      16.3072      0.00000
     11      17.3655      0.00000
     12      17.4787      0.00000
     13      18.3611      0.00000
     14      20.8748      0.00000
     15      24.1461      0.00000
     16      25.4847      0.00000

 k-point    11 :      -0.2500    0.1250    0.0000
  band No.  band energies     occupation 
      1      -4.5776      1.00000
      2       0.5418      1.00000
      3       3.9910      1.00000
      4       4.2385      1.00000
      5       8.0725      0.00000
      6       9.4683      0.00000
      7      10.2902      0.00000
      8      11.2915      0.00000
      9      15.1458      0.00000
     10      15.1772      0.00000
     11      15.7781      0.00000
     12      19.2280      0.00000
     13      19.2870      0.00000
     14      21.0234      0.00000
     15      22.5072      0.00000
     16      23.4887      0.00000

 k-point    12 :      -0.1250    0.1250   -0.0000
  band No.  band energies     occupation 
      1      -5.3924      1.00000
      2       2.6013      1.00000
      3       4.5062      1.00000
      4       4.5819      1.00000
      5       7.9737      0.00000
      6       9.5359      0.00000
      7      10.2936      0.00000
      8      10.5749      0.00000
      9      13.3314      0.00000
     10      14.0152      0.00000
     11      15.8490      0.00000
     12      17.4143      0.00000
     13      18.9679      0.00000
     14      20.2324      0.00000
     15      23.4212      0.00000
     16      23.9216      0.00000

 k-point    13 :       0.0000    0.2500    0.0000
  band No.  band energies     occupation 
      1      -5.0521      1.00000
      2       2.3080      1.00000
      3       3.9358      1.00000
      4       3.9358      1.00000
      5       6.9560      0.00000
      6       8.9584      0.00000
      7      11.5817      0.00000
      8      11.5817      0.00000
      9      13.8909      0.00000
     10      14.7548      0.00000
     11      17.2553      0.00000
     12      18.8409      0.00000
     13      18.8409      0.00000
     14      19.5444      0.00000
     15      23.2437      0.00000
     16      23.2437      0.00000

 k-point    14 :       0.5000    0.2500    0.0000
  band No.  band energies     occupation 
      1      -4.0905      1.00000
      2       0.3460      1.00000
      3       2.0746      1.00000
      4       4.4969      1.00000
      5       8.2762      0.00000
      6      10.6175      0.00000
      7      10.9527      0.00000
      8      11.9741      0.00000
      9      12.2704      0.00000
     10      15.4624      0.00000
     11      18.4423      0.00000
     12      19.0217      0.00000
     13      19.2846      0.00000
     14      22.4994      0.00000
     15      22.8746      0.00000
     16      23.2812      0.00000

 k-point    15 :      -0.3750    0.2500    0.0000
  band No.  band energies     occupation 
      1      -3.2122      1.00000
      2      -0.8143      1.00000
      3       1.8345      1.00000
      4       3.9392      1.00000
      5       7.6699      0.00000
      6      11.2861      0.00000
      7      11.3065      0.00000
      8      12.7849      0.00000
      9      13.8061      0.00000
     10      13.8439      0.00000
     11      18.3997      0.00000
     12      20.6511      0.00000
     13      20.9683      0.00000
     14      21.8444      0.00000
     15      22.2882      0.00000
     16      24.2178      0.00000

 k-point    16 :      -0.2500    0.2500   -0.0000
  band No.  band energies     occupation 
      1      -3.4164      1.00000
      2      -0.5561      1.00000
      3       2.2927      1.00000
      4       3.6212      1.00000
      5       7.3452      0.00000
      6      10.2710      0.00000
      7      11.5708      0.00000
      8      11.7445      0.00000
      9      16.0362      0.00000
     10      16.3623      0.00000
     11      17.9840      0.00000
     12      18.5325      0.00000
     13      18.8630      0.00000
     14      22.6630      0.00000
     15      23.5573      0.00000
     16      24.4539      0.00000

 k-point    17 :      -0.1250    0.2500    0.0000
  band No.  band energies     occupation 
      1      -4.3421      1.00000
      2       0.8852      1.00000
      3       3.1558      1.00000
      4       3.6181      1.00000
      5       7.1760      0.00000
      6       8.7193      0.00000
      7      11.8225      0.00000
      8      12.0936      0.00000
      9      15.8046      0.00000
     10      16.0103      0.00000
     11      17.4870      0.00000
     12      19.0366      0.00000
     13      19.5881      0.00000
     14      20.6564      0.00000
     15      21.7199      0.00000
     16      22.9406      0.00000

 k-point    18 :       0.0000    0.3750   -0.0000
  band No.  band energies     occupation 
      1      -3.7397      1.00000
      2       0.0808      1.00000
      3       3.2202      1.00000
      4       3.2202      1.00000
      5       6.4402      0.00000
      6       7.3645      0.00000
      7      13.8653      0.00000
      8      13.8653      0.00000
      9      16.2588      0.00000
     10      16.5527      0.00000
     11      18.8400      0.00000
     12      18.8401      0.00000
     13      19.4787      0.00000
     14      21.0022      0.00000
     15      21.7826      0.00000
     16      22.6747      0.00000

 k-point    19 :      -0.2500    0.3750    0.0000
  band No.  band energies     occupation 
      1      -2.4041      1.00000
      2      -1.4002      1.00000
      3       1.5260      1.00000
      4       3.4014      1.00000
      5       7.0289      0.00000
      6       9.9517      0.00000
      7      13.2969      0.00000
      8      13.8344      0.00000
      9      14.0638      0.00000
     10      14.3311      0.00000
     11      20.5672      0.00000
     12      20.7117      0.00000
     13      21.2996      0.00000
     14      21.5120      0.00000
     15      21.7265      0.00000
     16      22.9015      0.00000

 k-point    20 :      -0.1250    0.3750    0.0000
  band No.  band energies     occupation 
      1      -2.8426      1.00000
      2      -1.0038      1.00000
      3       2.3916      1.00000
      4       3.1441      1.00000
      5       6.7194      0.00000
      6       7.7917      0.00000
      7      14.0913      0.00000
      8      14.1792      0.00000
      9      16.5878      0.00000
     10      16.6313      0.00000
     11      18.1377      0.00000
     12      18.7071      0.00000
     13      20.7645      0.00000
     14      20.7761      0.00000
     15      21.7615      0.00000
     16      24.6381      0.00000

 k-point    21 :       0.0000    0.5000    0.0000
  band No.  band energies     occupation 
      1      -1.9902      1.00000
      2      -1.9902      1.00000
      3       2.9748      1.00000
      4       2.9748      1.00000
      5       6.5345      0.00000
      6       6.5345      0.00000
      7      15.9401      0.00000
      8      15.9401      0.00000
      9      16.7957      0.00000
     10      16.7957      0.00000
     11      18.3490      0.00000
     12      18.3490      0.00000
     13      18.8805      0.00000
     14      18.8805      0.00000
     15      24.6697      0.00000
     16      24.6698      0.00000

 k-point    22 :       0.3750    0.1250    0.1250
  band No.  band energies     occupation 
      1      -4.8047      1.00000
      2       1.5363      1.00000
      3       3.1134      1.00000
      4       4.3972      1.00000
      5       8.2728      0.00000
      6       9.7301      0.00000
      7      10.0173      0.00000
      8      11.3260      0.00000
      9      13.6151      0.00000
     10      16.0793      0.00000
     11      16.9112      0.00000
     12      17.9336      0.00000
     13      19.6962      0.00000
     14      20.9120      0.00000
     15      21.6890      0.00000
     16      24.0471      0.00000

 k-point    23 :       0.5000    0.1250    0.1250
  band No.  band energies     occupation 
      1      -3.9165      1.00000
      2      -0.0149      1.00000
      3       2.5057      1.00000
      4       3.8964      1.00000
      5       8.7024      0.00000
      6       9.3792      0.00000
      7      10.8442      0.00000
      8      11.7602      0.00000
      9      14.8459      0.00000
     10      15.5574      0.00000
     11      17.8229      0.00000
     12      18.7634      0.00000
     13      20.0631      0.00000
     14      20.9630      0.00000
     15      23.0927      0.00000
     16      24.0716      0.00000

 k-point    24 :      -0.3750    0.1250    0.1250
  band No.  band energies     occupation 
      1      -3.2644      1.00000
      2      -0.9595      1.00000
      3       2.3768      1.00000
      4       3.6670      1.00000
      5       8.8931      0.00000
      6       8.9561      0.00000
      7      11.7361      0.00000
      8      12.9397      0.00000
      9      13.2225      0.00000
     10      16.4059      0.00000
     11      17.5236      0.00000
     12      18.2279      0.00000
     13      21.3714      0.00000
     14      21.3935      0.00000
     15      23.9477      0.00000
     16      24.2839      0.00000

 k-point    25 :      -0.3750    0.2500    0.1250
  band No.  band energies     occupation 
      1      -3.0172      1.00000
      2      -0.7425      1.00000
      3       1.6004      1.00000
      4       3.2425      1.00000
      5       8.6928      0.00000
      6      10.3679      0.00000
      7      11.0399      0.00000
      8      12.8532      0.00000
      9      13.6962      0.00000
     10      15.0727      0.00000
     11      19.9061      0.00000
     12      20.1232      0.00000
     13      20.4433      0.00000
     14      22.1257      0.00000
     15      22.3695      0.00000
     16      24.1873      0.00000

 k-point    26 :      -0.2500    0.2500    0.1250
  band No.  band energies     occupation 
      1      -2.6667      1.00000
      2      -1.1056      1.00000
      3       1.7671      1.00000
      4       2.8669      1.00000
      5       8.2129      0.00000
      6      10.1034      0.00000
      7      11.1031      0.00000
      8      13.2646      0.00000
      9      14.2272      0.00000
     10      16.9089      0.00000
     11      18.0528      0.00000
     12      20.1482      0.00000
     13      21.1950      0.00000
     14      21.8225      0.00000
     15      23.3521      0.00000
     16      24.1945      0.00000

 k-point    27 :      -0.1250    0.2500    0.1250
  band No.  band energies     occupation 
      1      -3.5412      1.00000
      2      -0.1380      1.00000
      3       2.4650      1.00000
      4       3.0675      1.00000
      5       7.7718      0.00000
      6       8.4708      0.00000
      7      11.5792      0.00000
      8      13.8142      0.00000
      9      16.0026      0.00000
     10      16.0466      0.00000
     11      18.7105      0.00000
     12      19.1434      0.00000
     13      20.0450      0.00000
     14      20.4663      0.00000
     15      22.5108      0.00000
     16      22.8889      0.00000

 k-point    28 :      -0.1250    0.3750    0.1250
  band No.  band energies     occupation 
      1      -1.9123      1.00000
      2      -1.9123      1.00000
      3       2.4106      1.00000
      4       2.4106      1.00000
      5       7.7949      0.00000
      6       7.7949      0.00000
      7      13.6715      0.00000
      8      13.6715      0.00000
      9      16.3998      0.00000
     10      16.3998      0.00000
     11      18.7056      0.00000
     12      18.7056      0.00000
     13      21.4083      0.00000
     14      21.4083      0.00000
     15      23.2040      0.00000
     16      23.2040      0.00000

 k-point    29 :      -0.2500    0.2500    0.2500
  band No.  band energies     occupation 
      1      -1.8265      1.00000
      2      -1.8265      1.00000
      3       1.9749      1.00000
      4       1.9749      1.00000
      5      10.0902      0.00000
      6      10.0902      0.00000
      7      10.8309      0.00000
      8      10.8309      0.00000
      9      16.4037      0.00000
     10      16.4037      0.00000
     11      18.8658      0.00000
     12      18.8658      0.00000
     13      22.2627      0.00000
     14      22.2627      0.00000
     15      24.6514      0.00000
     16      24.6871      0.00000

 spin component 2

 k-point     1 :       0.0000    0.0000    0.0000
  band No.  band energies     occupation 
      1      -6.1322      1.00000
      2       5.8269      1.00000
      3       5.8269      1.00000
      4       5.8269      1.00000
      5       8.3895      0.00000
      6       8.3895      0.00000
      7       8.3895      0.00000
      8       9.1971      0.00000
      9      13.5443      0.00000
     10      13.5443      0.00000
     11      13.7777      0.00000
     12      17.0733      0.00000
     13      17.0733      0.00000
     14      17.0733      0.00000
     15      21.2191      0.00000
     16      28.9299      0.00000

 k-point     2 :       0.1250    0.0000   -0.0000
  band No.  band energies     occupation 
      1      -5.9280      1.00000
      2       4.2292      1.00000
      3       5.5382      1.00000
      4       5.5382      1.00000
      5       8.3287      0.00000
      6       8.8137      0.00000
      7       8.8137      0.00000
      8      10.5411      0.00000
      9      13.0623      0.00000
     10      13.0623      0.00000
     11      14.5649      0.00000
     12      16.5132      0.00000
     13      18.2373      0.00000
     14      18.2374      0.00000
     15      22.4530      0.00000
     16      26.9103      0.00000

 k-point     3 :       0.2500    0.0000   -0.0000
  band No.  band energies     occupation 
      1      -5.3324      1.00000
      2       1.9015      1.00000
      3       5.0680      1.00000
      4       5.0680      1.00000
      5       7.8552      0.00000
      6       9.3312      0.00000
      7       9.3312      0.00000
      8      12.7469      0.00000
      9      13.0190      0.00000
     10      13.0190      0.00000
     11      14.8154      0.00000
     12      17.6644      0.00000
     13      20.4657      0.00000
     14      20.4657      0.00000
     15      23.6833      0.00000
     16      23.7015      0.00000

 k-point     4 :       0.3750    0.0000    0.0000
  band No.  band energies     occupation 
      1      -4.4385      1.00000
      2      -0.1183      1.00000
      3       4.7414      1.00000
      4       4.7414      1.00000
      5       7.4916      0.00000
      6       9.2754      0.00000
      7       9.2754      0.00000
      8      13.7034      0.00000
      9      14.4058      0.00000
     10      14.4058      0.00000
     11      15.5148      0.00000
     12      19.5818      0.00000
     13      19.5818      0.00000
     14      19.9223      0.00000
     15      22.4983      0.00000
     16      24.3678      0.00000

 k-point     5 :       0.5000    0.0000   -0.0000
  band No.  band energies     occupation 
      1      -3.8004      1.00000
      2      -1.1408      1.00000
      3       4.6297      1.00000
      4       4.6297      1.00000
      5       7.3636      0.00000
      6       9.1640      0.00000
      7       9.1640      0.00000
      8      13.5476      0.00000
      9      16.3730      0.00000
     10      16.3730      0.00000
     11      17.1676      0.00000
     12      17.1676      0.00000
     13      17.1785      0.00000
     14      18.8531      0.00000
     15      25.2091      0.00000
     16      25.8029      0.00000

 k-point     6 :       0.0000    0.1250    0.0000
  band No.  band energies     occupation 
      1      -5.8592      1.00000
      2       4.4945      1.00000
      3       5.0207      1.00000
      4       5.0207      1.00000
      5       7.8370      0.00000
      6       9.5295      0.00000
      7       9.5295      0.00000
      8      10.2274      0.00000
      9      12.3312      0.00000
     10      13.8469      0.00000
     11      14.8656      0.00000
     12      17.5459      0.00000
     13      17.5459      0.00000
     14      18.0316      0.00000
     15      23.0401      0.00000
     16      26.4322      0.00000

 k-point     7 :       0.2500    0.1250    0.0000
  band No.  band energies     occupation 
      1      -5.5918      1.00000
      2       3.1447      1.00000
      3       4.1991      1.00000
      4       5.5347      1.00000
      5       8.8701      0.00000
      6       8.9502      0.00000
      7       9.1840      0.00000
      8      11.3768      0.00000
      9      12.1655      0.00000
     10      13.8575      0.00000
     11      15.5830      0.00000
     12      17.0041      0.00000
     13      18.1889      0.00000
     14      20.3030      0.00000
     15      23.5411      0.00000
     16      23.9654      0.00000

 k-point     8 :       0.3750    0.1250    0.0000
  band No.  band energies     occupation 
      1      -4.8818      1.00000
      2       1.2034      1.00000
      3       3.5173      1.00000
      4       5.0540      1.00000
      5       8.5456      0.00000
      6       9.5026      0.00000
      7       9.6805      0.00000
      8      12.1238      0.00000
      9      12.2963      0.00000
     10      15.6677      0.00000
     11      15.9022      0.00000
     12      18.2575      0.00000
     13      19.8114      0.00000
     14      21.2638      0.00000
     15      22.2150      0.00000
     16      23.8817      0.00000

 k-point     9 :       0.5000    0.1250   -0.0000
  band No.  band energies     occupation 
      1      -3.9584      1.00000
      2      -0.5487      1.00000
      3       3.3667      1.00000
      4       4.5627      1.00000
      5       8.1862      0.00000
      6       9.4473      0.00000
      7       9.6929      0.00000
      8      13.7403      0.00000
      9      13.9198      0.00000
     10      15.0346      0.00000
     11      17.0124      0.00000
     12      18.2749      0.00000
     13      20.0926      0.00000
     14      20.5498      0.00000
     15      22.7076      0.00000
     16      24.4670      0.00000

 k-point    10 :      -0.3750    0.1250   -0.0000
  band No.  band energies     occupation 
      1      -3.7138      1.00000
      2      -0.9193      1.00000
      3       3.5485      1.00000
      4       4.2662      1.00000
      5       8.0190      0.00000
      6       9.3394      0.00000
      7       9.9247      0.00000
      8      13.1936      0.00000
      9      14.8175      0.00000
     10      16.3062      0.00000
     11      17.3672      0.00000
     12      17.4779      0.00000
     13      18.3629      0.00000
     14      20.8764      0.00000
     15      24.1474      0.00000
     16      25.4817      0.00000

 k-point    11 :      -0.2500    0.1250    0.0000
  band No.  band energies     occupation 
      1      -4.5754      1.00000
      2       0.5441      1.00000
      3       3.9940      1.00000
      4       4.2416      1.00000
      5       8.0720      0.00000
      6       9.4677      0.00000
      7      10.2889      0.00000
      8      11.2906      0.00000
      9      15.1445      0.00000
     10      15.1758      0.00000
     11      15.7807      0.00000
     12      19.2265      0.00000
     13      19.2897      0.00000
     14      21.0229      0.00000
     15      22.5041      0.00000
     16      23.4873      0.00000

 k-point    12 :      -0.1250    0.1250   -0.0000
  band No.  band energies     occupation 
      1      -5.3905      1.00000
      2       2.6046      1.00000
      3       4.5093      1.00000
      4       4.5854      1.00000
      5       7.9729      0.00000
      6       9.5357      0.00000
      7      10.2935      0.00000
      8      10.5736      0.00000
      9      13.3330      0.00000
     10      14.0131      0.00000
     11      15.8495      0.00000
     12      17.4137      0.00000
     13      18.9630      0.00000
     14      20.2295      0.00000
     15      23.4212      0.00000
     16      23.9223      0.00000

 k-point    13 :       0.0000    0.2500    0.0000
  band No.  band energies     occupation 
      1      -5.0501      1.00000
      2       2.3121      1.00000
      3       3.9384      1.00000
      4       3.9384      1.00000
      5       6.9543      0.00000
      6       8.9561      0.00000
      7      11.5824      0.00000
      8      11.5824      0.00000
      9      13.8934      0.00000
     10      14.7530      0.00000
     11      17.2582      0.00000
     12      18.8357      0.00000
     13      18.8358      0.00000
     14      19.5449      0.00000
     15      23.2446      0.00000
     16      23.2446      0.00000

 k-point    14 :       0.5000    0.2500    0.0000
  band No.  band energies     occupation 
      1      -4.0881      1.00000
      2       0.3491      1.00000
      3       2.0754      1.00000
      4       4.5005      1.00000
      5       8.2744      0.00000
      6      10.6154      0.00000
      7      10.9558      0.00000
      8      11.9736      0.00000
      9      12.2689      0.00000
     10      15.4620      0.00000
     11      18.4426      0.00000
     12      19.0228      0.00000
     13      19.2837      0.00000
     14      22.4983      0.00000
     15      22.8733      0.00000
     16      23.2833      0.00000

 k-point    15 :      -0.3750    0.2500    0.0000
  band No.  band energies     occupation 
      1      -3.2094      1.00000
      2      -0.8119      1.00000
      3       1.8354      1.00000
      4       3.9421      1.00000
      5       7.6680      0.00000
      6      11.2885      0.00000
      7      11.3047      0.00000
      8      12.7845      0.00000
      9      13.8052      0.00000
     10      13.8443      0.00000
     11      18.3989      0.00000
     12      20.6507      0.00000
     13      20.9713      0.00000
     14      21.8455      0.00000
     15      22.2875      0.00000
     16      24.2174      0.00000

 k-point    16 :      -0.2500    0.2500   -0.0000
  band No.  band energies     occupation 
      1      -3.4138      1.00000
      2      -0.5534      1.00000
      3       2.2940      1.00000
      4       3.6237      1.00000
      5       7.3433      0.00000
      6      10.2709      0.00000
      7      11.5717      0.00000
      8      11.7433      0.00000
      9      16.0365      0.00000
     10      16.3616      0.00000
     11      17.9834      0.00000
     12      18.5341      0.00000
     13      18.8640      0.00000
     14      22.6655      0.00000
     15      23.5544      0.00000
     16      24.4554      0.00000

[...]

 k-point    14 :       0.5000    0.2500    0.0000
  band No.  band energies     occupation 
      1      -4.1949      1.00000
      2       0.1754      1.00000
      3       1.9462      1.00000
      4       4.3122      1.00000
      5       8.0514      0.00000
      6      10.3617      0.00000
      7      10.6968      0.00000
      8      11.6538      0.00000
      9      12.0674      0.00000
     10      15.1340      0.00000
     11      18.1065      0.00000
     12      18.6410      0.00000
     13      18.9565      0.00000
     14      22.1170      0.00000
     15      22.4944      0.00000
     16      22.8127      0.00000

 k-point    15 :      -0.3750    0.2500    0.0000
  band No.  band energies     occupation 
      1      -3.3382      1.00000
      2      -0.9583      1.00000
      3       1.7055      1.00000
      4       3.7662      1.00000
      5       7.4700      0.00000
      6      11.0146      0.00000
      7      11.0556      0.00000
      8      12.4963      0.00000
      9      13.5051      0.00000
     10      13.5607      0.00000
     11      18.0912      0.00000
     12      20.2930      0.00000
     13      20.5051      0.00000
     14      21.4360      0.00000
     15      21.8895      0.00000
     16      23.7909      0.00000

 k-point    16 :      -0.2500    0.2500   -0.0000
  band No.  band energies     occupation 
      1      -3.5353      1.00000
      2      -0.7085      1.00000
      3       2.1527      1.00000
      4       3.4551      1.00000
      5       7.1561      0.00000
      6      10.0456      0.00000
      7      11.2588      0.00000
      8      11.4899      0.00000
      9      15.6985      0.00000
     10      16.0728      0.00000
     11      17.6610      0.00000
     12      18.1324      0.00000
     13      18.4877      0.00000
     14      22.2661      0.00000
     15      23.1670      0.00000
     16      23.9762      0.00000

 k-point    17 :      -0.1250    0.2500    0.0000
  band No.  band energies     occupation 
      1      -4.4399      1.00000
      2       0.6993      1.00000
      3       3.0004      1.00000
      4       3.4532      1.00000
      5       6.9853      0.00000
      6       8.5171      0.00000
      7      11.5212      0.00000
      8      11.8198      0.00000
      9      15.5361      0.00000
     10      15.5815      0.00000
     11      17.1598      0.00000
     12      18.6977      0.00000
     13      19.2456      0.00000
     14      20.2863      0.00000
     15      21.3707      0.00000
     16      22.5632      0.00000

 k-point    18 :       0.0000    0.3750   -0.0000
  band No.  band energies     occupation 
      1      -3.8480      1.00000
      2      -0.0975      1.00000
      3       3.0623      1.00000
      4       3.0623      1.00000
      5       6.2649      0.00000
      6       7.1903      0.00000
      7      13.5494      0.00000
      8      13.5494      0.00000
      9      15.9953      0.00000
     10      16.0930      0.00000
     11      18.4958      0.00000
     12      18.4958      0.00000
     13      19.0741      0.00000
     14      20.6687      0.00000
     15      21.4572      0.00000
     16      22.3000      0.00000

 k-point    19 :      -0.2500    0.3750    0.0000
  band No.  band energies     occupation 
      1      -2.5460      1.00000
      2      -1.5489      1.00000
      3       1.4152      1.00000
      4       3.2392      1.00000
      5       6.8486      0.00000
      6       9.7259      0.00000
      7      12.9930      0.00000
      8      13.5289      0.00000
      9      13.6944      0.00000
     10      14.0935      0.00000
     11      20.1123      0.00000
     12      20.3772      0.00000
     13      20.9049      0.00000
     14      21.1418      0.00000
     15      21.3502      0.00000
     16      22.4546      0.00000

 k-point    20 :      -0.1250    0.3750    0.0000
  band No.  band energies     occupation 
      1      -2.9690      1.00000
      2      -1.1638      1.00000
      3       2.2571      1.00000
      4       2.9871      1.00000
      5       6.5454      0.00000
      6       7.5993      0.00000
      7      13.7866      0.00000
      8      13.8421      0.00000
      9      16.2302      0.00000
     10      16.3317      0.00000
     11      17.8281      0.00000
     12      18.2484      0.00000
     13      20.3526      0.00000
     14      20.4168      0.00000
     15      21.4108      0.00000
     16      24.1849      0.00000

 k-point    21 :       0.0000    0.5000    0.0000
  band No.  band energies     occupation 
      1      -2.1311      1.00000
      2      -2.1311      1.00000
      3       2.8208      1.00000
      4       2.8208      1.00000
      5       6.3661      0.00000
      6       6.3661      0.00000
      7      15.5474      0.00000
      8      15.5474      0.00000
      9      16.5197      0.00000
     10      16.5197      0.00000
     11      18.0549      0.00000
     12      18.0549      0.00000
     13      18.4130      0.00000
     14      18.4130      0.00000
     15      24.2879      0.00000
     16      24.2879      0.00000

 k-point    22 :       0.3750    0.1250    0.1250
  band No.  band energies     occupation 
      1      -4.8939      1.00000
      2       1.3463      1.00000
      3       2.9629      1.00000
      4       4.2144      1.00000
      5       8.0571      0.00000
      6       9.4399      0.00000
      7       9.8171      0.00000
      8      11.0540      0.00000
      9      13.3257      0.00000
     10      15.7173      0.00000
     11      16.5774      0.00000
     12      17.6457      0.00000
     13      19.3539      0.00000
     14      20.5536      0.00000
     15      21.3152      0.00000
     16      23.6271      0.00000

 k-point    23 :       0.5000    0.1250    0.1250
  band No.  band energies     occupation 
      1      -4.0247      1.00000
      2      -0.1728      1.00000
      3       2.3590      1.00000
      4       3.7272      1.00000
      5       8.4782      0.00000
      6       9.1435      0.00000
      7      10.5912      0.00000
      8      11.4915      0.00000
      9      14.5435      0.00000
     10      15.2395      0.00000
     11      17.5154      0.00000
     12      18.3606      0.00000
     13      19.6838      0.00000
     14      20.6036      0.00000
     15      22.7077      0.00000
     16      23.6106      0.00000

 k-point    24 :      -0.3750    0.1250    0.1250
  band No.  band energies     occupation 
      1      -3.3908      1.00000
      2      -1.0920      1.00000
      3       2.2276      1.00000
      4       3.5043      1.00000
      5       8.6371      0.00000
      6       8.7605      0.00000
      7      11.4599      0.00000
      8      12.6796      0.00000
      9      12.9200      0.00000
     10      16.1208      0.00000
     11      17.1654      0.00000
     12      17.8869      0.00000
     13      20.8972      0.00000
     14      21.0104      0.00000
     15      23.5254      0.00000
     16      23.8676      0.00000

 k-point    25 :      -0.3750    0.2500    0.1250
  band No.  band energies     occupation 
      1      -3.1451      1.00000
      2      -0.9032      1.00000
      3       1.4851      1.00000
      4       3.0897      1.00000
      5       8.4786      0.00000
      6      10.1282      0.00000
      7      10.7794      0.00000
      8      12.5762      0.00000
      9      13.3788      0.00000
     10      14.7593      0.00000
     11      19.5485      0.00000
     12      19.7523      0.00000
     13      20.0871      0.00000
     14      21.6929      0.00000
     15      21.9531      0.00000
     16      23.7481      0.00000

 k-point    26 :      -0.2500    0.2500    0.1250
  band No.  band energies     occupation 
      1      -2.8015      1.00000
      2      -1.2610      1.00000
      3       1.6474      1.00000
      4       2.7232      1.00000
      5       8.0093      0.00000
      6       9.8829      0.00000
      7      10.8257      0.00000
      8      12.9647      0.00000
      9      13.9206      0.00000
     10      16.5725      0.00000
     11      17.6840      0.00000
     12      19.7985      0.00000
     13      20.7978      0.00000
     14      21.3967      0.00000
     15      22.9741      0.00000
     16      23.7952      0.00000

 k-point    27 :      -0.1250    0.2500    0.1250
  band No.  band energies     occupation 
      1      -3.6548      1.00000
      2      -0.3127      1.00000
      3       2.3274      1.00000
      4       2.9191      1.00000
      5       7.5700      0.00000
      6       8.2730      0.00000
      7      11.2982      0.00000
      8      13.5008      0.00000
      9      15.6679      0.00000
     10      15.7224      0.00000
     11      18.2960      0.00000
     12      18.8001      0.00000
     13      19.6813      0.00000
     14      20.1334      0.00000
     15      22.1073      0.00000
     16      22.5068      0.00000

 k-point    28 :      -0.1250    0.3750    0.1250
  band No.  band energies     occupation 
      1      -2.0574      1.00000
      2      -2.0574      1.00000
      3       2.2760      1.00000
      4       2.2760      1.00000
      5       7.6003      0.00000
      6       7.6003      0.00000
      7      13.3644      0.00000
      8      13.3644      0.00000
      9      16.0659      0.00000
     10      16.0659      0.00000
     11      18.3326      0.00000
     12      18.3326      0.00000
     13      20.9879      0.00000
     14      20.9879      0.00000
     15      22.8405      0.00000
     16      22.8405      0.00000

 k-point    29 :      -0.2500    0.2500    0.2500
  band No.  band energies     occupation 
      1      -1.9766      1.00000
      2      -1.9766      1.00000
      3       1.8544      1.00000
      4       1.8544      1.00000
      5       9.8843      0.00000
      6       9.8843      0.00000
      7      10.5444      0.00000
      8      10.5444      0.00000
      9      16.0635      0.00000
     10      16.0635      0.00000
     11      18.4819      0.00000
     12      18.4819      0.00000
     13      21.9139      0.00000
     14      21.9139      0.00000
     15      24.0136      0.00000
     16      24.0136      0.00000


--------------------------------------------------------------------------------------------------------


 soft charge-density along one line, spin component           1
         0         1         2         3         4         5         6         7         8         9
 total charge-density along one line
 
 soft charge-density along one line, spin component           2
         0         1         2         3         4         5         6         7         8         9
 total charge-density along one line
 
 pseudopotential strength for first ion, spin component:           1
 18.437  -0.001   0.000   0.000   0.000  -0.000  -0.000  -0.000
 -0.001   0.006  -0.000  -0.000  -0.000   0.000   0.000   0.000
  0.000  -0.000   4.180   0.000  -0.000  -0.004  -0.000   0.000
  0.000  -0.000   0.000   4.180  -0.000  -0.000  -0.004   0.000
  0.000  -0.000  -0.000  -0.000   4.180   0.000   0.000  -0.004
 -0.000   0.000  -0.004  -0.000   0.000   0.005   0.000  -0.000
 -0.000   0.000  -0.000  -0.004   0.000   0.000   0.005  -0.000
 -0.000   0.000   0.000   0.000  -0.004  -0.000  -0.000   0.005
 pseudopotential strength for first ion, spin component:           2
 18.438  -0.001   0.000  -0.000  -0.000  -0.000   0.000   0.000
 -0.001   0.006  -0.000   0.000   0.000   0.000  -0.000  -0.000
  0.000  -0.000   4.181  -0.000  -0.000  -0.004   0.000   0.000
 -0.000   0.000  -0.000   4.181   0.000   0.000  -0.004  -0.000
 -0.000   0.000  -0.000   0.000   4.181   0.000  -0.000  -0.004
 -0.000   0.000  -0.004   0.000   0.000   0.005   0.000  -0.000
  0.000  -0.000   0.000  -0.004  -0.000   0.000   0.005   0.000
  0.000  -0.000   0.000  -0.000  -0.004  -0.000   0.000   0.005
 total augmentation occupancy for first ion, spin component:           1
  1.494  -0.762  -0.000   0.000  -0.000   0.000  -0.000   0.000
 -0.762   0.748   0.000   0.000  -0.000  -0.000  -0.000   0.000
 -0.000   0.000   1.017   0.000  -0.000  -0.548  -0.000   0.000
 -0.000   0.000   0.000   1.017  -0.000  -0.000  -0.548   0.000
 -0.000  -0.000  -0.000  -0.000   1.017   0.000   0.000  -0.548
 -0.000   0.000  -0.548  -0.000   0.000   0.349   0.000  -0.000
 -0.000  -0.000  -0.000  -0.548   0.000   0.000   0.349  -0.000
  0.000   0.000   0.000   0.000  -0.548  -0.000  -0.000   0.349
 total augmentation occupancy for first ion, spin component:           2
 -0.000  -0.000  -0.000  -0.000  -0.000   0.000  -0.000   0.000
 -0.000   0.000   0.000  -0.000   0.000   0.000  -0.000  -0.000
  0.000   0.000  -0.000  -0.000   0.000  -0.000  -0.000   0.000
 -0.000  -0.000  -0.000  -0.000   0.000  -0.000  -0.000   0.000
  0.000  -0.000   0.000   0.000  -0.000   0.000   0.000  -0.000
 -0.000   0.000  -0.000  -0.000   0.000   0.000   0.000  -0.000
 -0.000  -0.000  -0.000  -0.000   0.000   0.000   0.000  -0.000
  0.000  -0.000   0.000   0.000  -0.000  -0.000  -0.000   0.000


------------------------ aborting loop because EDIFF is reached ----------------------------------------


 


 total charge     
 
# of ion     s       p       d       tot
----------------------------------------
  1        0.750   0.928   0.000   1.679
  2        0.750   0.928   0.000   1.679
------------------------------------------------
tot        1.501   1.857   0.000   3.358
 


 magnetization (x)
 
# of ion     s       p       d       tot
----------------------------------------
  1        0.000   0.000   0.000   0.000
  2        0.000   0.000   0.000   0.000
------------------------------------------------
tot        0.000   0.000   0.000   0.000
 
    CHARGE:  cpu time    0.0410: real time    0.0409
    FORLOC:  cpu time    0.0010: real time    0.0004
    FORNL :  cpu time    0.1600: real time    0.1608
    STRESS:  cpu time    0.4879: real time    0.4879
    FORCOR:  cpu time    0.0200: real time    0.0202
    FORHAR:  cpu time    0.0030: real time    0.0022
    MIXING:  cpu time    0.0000: real time    0.0006
    OFIELD:  cpu time    0.0000: real time    0.0000

  FORCE on cell =-STRESS in cart. coord.  units (eV):
  Direction    XX          YY          ZZ          XY          YZ          ZX
  --------------------------------------------------------------------------------------
  Alpha Z     3.29194     3.29194     3.29194
  Ewald     -75.63892   -75.63886   -75.63889    -0.00000     0.00002    -0.00000
  Hartree     5.06302     5.06303     5.06303     0.00000     0.00001     0.00000
  E(xc)     -25.24612   -25.24612   -25.24612     0.00000     0.00000     0.00000
  Local     -29.52111   -29.52117   -29.52114     0.00000    -0.00004     0.00000
  n-local    76.53948    76.88332    78.88060     1.26756    -3.50729     0.06153
  augment   -11.64169   -11.64169   -11.64168    -0.00000     0.00000    -0.00000
  Kinetic    53.92738    56.53090    58.30642     0.55913    -2.74996     1.78362
  Fock        0.00000     0.00000     0.00000     0.00000     0.00000     0.00000
  -------------------------------------------------------------------------------------
  Total      -0.00350    -0.00350    -0.00350    -0.00000    -0.00000    -0.00000
  in kB      -0.13707    -0.13707    -0.13707    -0.00000    -0.00000    -0.00000
  external pressure =       -0.14 kB  Pullay stress =        0.00 kB


 VOLUME and BASIS-vectors are now :
 -----------------------------------------------------------------------------
  energy-cutoff  :      520.00
  volume of cell :       40.90
      direct lattice vectors                 reciprocal lattice vectors
     3.867456803  0.000000000  0.000000000     0.258567852 -0.149284174 -0.105559772
     1.933728401  3.349316836  0.000000015    -0.000000000  0.298568349  0.211119544
    -0.000000000 -2.232875863  3.157765719    -0.000000000 -0.000000001  0.316679604

  length of vectors
     3.867456803  3.867457666  3.867456393     0.316679593  0.365669961  0.316679604


 FORCES acting on ions
    electron-ion (+dipol)            ewald-force                    non-local-force                 convergence-correction
 -----------------------------------------------------------------------------------------------
   -.589E-08 0.592E-05 -.503E-07   -.182E-14 -.101E-04 0.757E-07   0.139E-16 -.347E-17 0.590E-16   -.882E-10 0.551E-09 -.758E-10
   0.589E-08 -.592E-05 0.503E-07   0.136E-14 0.101E-04 -.757E-07   -.208E-16 0.173E-16 -.451E-16   0.882E-10 -.551E-09 0.758E-10
 -----------------------------------------------------------------------------------------------
   -.896E-13 -.345E-14 0.108E-12   -.466E-15 0.675E-16 0.156E-16   -.694E-17 0.139E-16 0.139E-16   -.108E-14 0.190E-14 -.692E-14
 
 
 POSITION                                       TOTAL-FORCE (eV/Angst)
 -----------------------------------------------------------------------------------
     -0.00000      0.00000     -0.00000        -0.000000     -0.000000     -0.000000
      3.86746      0.00000      2.36832         0.000000      0.000000      0.000000
 -----------------------------------------------------------------------------------
    total drift:                               -0.000000     -0.000000      0.000000


--------------------------------------------------------------------------------------------------------



  FREE ENERGIE OF THE ION-ELECTRON SYSTEM (eV)
  ---------------------------------------------------
  free  energy   TOTEN  =       -10.84671495 eV

  energy  without entropy=      -10.84671495  energy(sigma->0) =      -10.84671495
 
 d Force = 0.0000000E+00[ 0.000E+00, 0.000E+00]  d Energy = 0.2300760E-02-0.230E-02
 d Force = 0.0000000E+00[ 0.000E+00, 0.000E+00]  d Ewald  = 0.1057235E+01-0.106E+01


--------------------------------------------------------------------------------------------------------


    POTLOK:  cpu time    0.0260: real time    0.0261


--------------------------------------------------------------------------------------------------------




--------------------------------------------------------------------------------------------------------


  
 reached required accuracy - stopping structural energy minimisation
     LOOP+:  cpu time    2.7646: real time    2.7676
    4ORBIT:  cpu time    0.0000: real time    0.0004
 


 total charge     
 
# of ion     s       p       d       tot
----------------------------------------
  1        0.750   0.928   0.000   1.679
  2        0.750   0.928   0.000   1.679
------------------------------------------------
tot        1.501   1.857   0.000   3.358
 


 magnetization (x)
 
# of ion     s       p       d       tot
----------------------------------------
  1        0.000   0.000   0.000   0.000
  2        0.000   0.000   0.000   0.000
------------------------------------------------
tot        0.000   0.000   0.000   0.000
 
 BZINTS: Fermi energy:  5.675084;  8.000000 electrons
         Band energy:   4.912429;  BLOECHL correction:  0.000000

 total amount of memory used by VASP on root node    35766. kBytes
========================================================================

   base      :      30000. kBytes
   nonlr-proj:        859. kBytes
   fftplans  :        604. kBytes
   grid      :       3252. kBytes
   one-center:         12. kBytes
   wavefun   :       1039. kBytes
 
  
  
 General timing and accounting informations for this job:
 ========================================================
  
                  Total CPU time used (sec):       13.924
                            User time (sec):       13.650
                          System time (sec):        0.274
                         Elapsed time (sec):       14.359
  
                   Maximum memory used (kb):       38104.
                   Average memory used (kb):           0.
  
                          Minor page faults:        11002
                          Major page faults:            0
                 Voluntary context switches:        26062
