PROCAR lm decomposed
# of k-points:   29         # of bands:  16         # of ions:   2

 k-point    1 :    0.00000000 0.00000000 0.00000000     weight = 0.00195312

band   1 # energy   -6.19934348 # occ.  1.00000000
 
ion      s     py     pz     px    dxy    dyz    dz2    dxz    dx2    tot
  1  0.212  0.000  0.000  0.000  0.000  0.000  0.000  0.000  0.000  0.212
  2  0.212  0.000  0.000  0.000  0.000  0.000  0.000  0.000  0.000  0.212
tot  0.424  0.000  0.000  0.000  0.000  0.000  0.000  0.000  0.000  0.424
 
band   2 # energy    5.61322308 # occ.  1.00000000
 
ion      s     py     pz     px    dxy    dyz    dz2    dxz    dx2    tot
  1  0.000  0.157  0.057  0.000  0.000  0.000  0.000  0.000  0.000  0.214
  2  0.000  0.157  0.057  0.000  0.000  0.000  0.000  0.000  0.000  0.214
tot  0.000  0.313  0.114  0.000  0.000  0.000  0.000  0.000  0.000  0.428
 
band   3 # energy    5.61322694 # occ.  1.00000000
 
ion      s     py     pz     px    dxy    dyz    dz2    dxz    dx2    tot
  1  0.000  0.057  0.156  0.000  0.000  0.000  0.000  0.000  0.000  0.214
  2  0.000  0.057  0.156  0.000  0.000  0.000  0.000  0.000  0.000  0.214
tot  0.000  0.114  0.313  0.000  0.000  0.000  0.000  0.000  0.000  0.428
 
band   4 # energy    5.61322756 # occ.  1.00000000
 
ion      s     py     pz     px    dxy    dyz    dz2    dxz    dx2    tot
  1  0.000  0.000  0.000  0.214  0.000  0.000  0.000  0.000  0.000  0.214
  2  0.000  0.000  0.000  0.214  0.000  0.000  0.000  0.000  0.000  0.214
tot  0.000  0.000  0.000  0.427  0.000  0.000  0.000  0.000  0.000  0.428
 
band   5 # energy    8.16938442 # occ.  0.00000000
 
ion      s     py     pz     px    dxy    dyz    dz2    dxz    dx2    tot
  1  0.000  0.000  0.000  0.151  0.000  0.000  0.000  0.000  0.000  0.151
  2  0.000  0.000  0.000  0.151  0.000  0.000  0.000  0.000  0.000  0.151
tot  0.000  0.000  0.000  0.301  0.000  0.000  0.000  0.000  0.000  0.301
 
band   6 # energy    8.16938593 # occ.  0.00000000
 
ion      s     py     pz     px    dxy    dyz    dz2    dxz    dx2    tot
  1  0.000  0.009  0.141  0.000  0.000  0.000  0.000  0.000  0.000  0.151
  2  0.000  0.009  0.141  0.000  0.000  0.000  0.000  0.000  0.000  0.151
tot  0.000  0.019  0.282  0.000  0.000  0.000  0.000  0.000  0.000  0.301
 
band   7 # energy    8.16938773 # occ.  0.00000000
 
ion      s     py     pz     px    dxy    dyz    dz2    dxz    dx2    tot
  1  0.000  0.141  0.009  0.000  0.000  0.000  0.000  0.000  0.000  0.151
  2  0.000  0.141  0.009  0.000  0.000  0.000  0.000  0.000  0.000  0.151
tot  0.000  0.282  0.019  0.000  0.000  0.000  0.000  0.000  0.000  0.301
 
band   8 # energy    8.74294861 # occ.  0.00000000
 
ion      s     py     pz     px    dxy    dyz    dz2    dxz    dx2    tot
  1  0.359  0.000  0.000  0.000  0.000  0.000  0.000  0.000  0.000  0.359
  2  0.359  0.000  0.000  0.000  0.000  0.000  0.000  0.000  0.000  0.359
tot  0.717  0.000  0.000  0.000  0.000  0.000  0.000  0.000  0.000  0.717
 
band   9 # energy   13.32180827 # occ.  0.00000000
 
ion      s     py     pz     px    dxy    dyz    dz2    dxz    dx2    tot
  1  0.000  0.000  0.000  0.000  0.000  0.000  0.000  0.000  0.000  0.000
  2  0.000  0.000  0.000  0.000  0.000  0.000  0.000  0.000  0.000  0.000
tot  0.000  0.000  0.000  0.000  0.000  0.000  0.000  0.000  0.000  0.000
 
band  10 # energy   13.32181924 # occ.  0.00000000
 
ion      s     py     pz     px    dxy    dyz    dz2    dxz    dx2    tot
  1  0.000  0.000  0.000  0.000  0.000  0.000  0.000  0.000  0.000  0.000
  2  0.000  0.000  0.000  0.000  0.000  0.000  0.000  0.000  0.000  0.000
tot  0.000  0.000  0.000  0.000  0.000  0.000  0.000  0.000  0.000  0.000
 
band  11 # energy   13.49130964 # occ.  0.00000000
 
ion      s     py     pz     px    dxy    dyz    dz2    dxz    dx2    tot
  1  0.100  0.000  0.000  0.000  0.000  0.000  0.000  0.000  0.000  0.100
  2  0.100  0.000  0.000  0.000  0.000  0.000  0.000  0.000  0.000  0.100
tot  0.201  0.000  0.000  0.000  0.000  0.000  0.000  0.000  0.000  0.201
 
band  12 # energy   16.79419288 # occ.  0.00000000
 
ion      s     py     pz     px    dxy    dyz    dz2    dxz    dx2    tot
  1  0.000  0.026  0.014  0.000  0.000  0.000  0.000  0.000  0.000  0.039
  2  0.000  0.026  0.014  0.000  0.000  0.000  0.000  0.000  0.000  0.039
tot  0.000  0.051  0.027  0.000  0.000  0.000  0.000  0.000  0.000  0.078
 
band  13 # energy   16.79420935 # occ.  0.00000000
 
ion      s     py     pz     px    dxy    dyz    dz2    dxz    dx2    tot
  1  0.000  0.003  0.006  0.030  0.000  0.000  0.000  0.000  0.000  0.039
  2  0.000  0.003  0.006  0.030  0.000  0.000  0.000  0.000  0.000  0.039
tot  0.000  0.006  0.012  0.060  0.000  0.000  0.000  0.000  0.000  0.078
 
band  14 # energy   16.79420989 # occ.  0.00000000
 
ion      s     py     pz     px    dxy    dyz    dz2    dxz    dx2    tot
  1  0.000  0.010  0.020  0.009  0.000  0.000  0.000  0.000  0.000  0.039
  2  0.000  0.010  0.020  0.009  0.000  0.000  0.000  0.000  0.000  0.039
tot  0.000  0.021  0.040  0.018  0.000  0.000  0.000  0.000  0.000  0.078
 
band  15 # energy   20.88783939 # occ.  0.00000000
 
ion      s     py     pz     px    dxy    dyz    dz2    dxz    dx2    tot
  1  0.037  0.000  0.000  0.000  0.000  0.000  0.000  0.000  0.000  0.037
  2  0.037  0.000  0.000  0.000  0.000  0.000  0.000  0.000  0.000  0.037
tot  0.075  0.000  0.000  0.000  0.000  0.000  0.000  0.000  0.000  0.075
 
band  16 # energy   28.46419313 # occ.  0.00000000
 
ion      s     py     pz     px    dxy    dyz    dz2    dxz    dx2    tot
  1  0.000  0.003  0.005  0.002  0.000  0.000  0.000  0.000  0.000  0.010
  2  0.000  0.003  0.005  0.002  0.000  0.000  0.000  0.000  0.000  0.010
tot  0.000  0.007  0.009  0.004  0.000  0.000  0.000  0.000  0.000  0.020
 

 k-point    2 :    0.12500000 0.00000000-0.00000000     weight = 0.01562500

band   1 # energy   -5.99892840 # occ.  1.00000000
 
ion      s     py     pz     px    dxy    dyz    dz2    dxz    dx2    tot
  1  0.211  0.000  0.000  0.001  0.000  0.000  0.000  0.000  0.000  0.213
  2  0.211  0.000  0.000  0.001  0.000  0.000  0.000  0.000  0.000  0.213
tot  0.422  0.001  0.000  0.003  0.000  0.000  0.000  0.000  0.000  0.426
 
band   2 # energy    4.02250162 # occ.  1.00000000
 
ion      s     py     pz     px    dxy    dyz    dz2    dxz    dx2    tot
  1  0.064  0.034  0.017  0.103  0.000  0.000  0.000  0.000  0.000  0.219
  2  0.064  0.034  0.017  0.103  0.000  0.000  0.000  0.000  0.000  0.219
tot  0.128  0.069  0.034  0.207  0.000  0.000  0.000  0.000  0.000  0.438
 
band   3 # energy    5.33087981 # occ.  1.00000000
 
ion      s     py     pz     px    dxy    dyz    dz2    dxz    dx2    tot
  1  0.000  0.105  0.036  0.070  0.000  0.000  0.000  0.000  0.000  0.211
  2  0.000  0.105  0.036  0.070  0.000  0.000  0.000  0.000  0.000  0.211
tot  0.000  0.211  0.071  0.140  0.000  0.000  0.000  0.000  0.000  0.422
 
band   4 # energy    5.33088277 # occ.  1.00000000
 
ion      s     py     pz     px    dxy    dyz    dz2    dxz    dx2    tot
  1  0.000  0.059  0.152  0.000  0.000  0.000  0.000  0.000  0.000  0.211
  2  0.000  0.059  0.152  0.000  0.000  0.000  0.000  0.000  0.000  0.211
tot  0.000  0.117  0.304  0.001  0.000  0.000  0.000  0.000  0.000  0.422
 
band   5 # energy    8.05507048 # occ.  0.00000000
 
ion      s     py     pz     px    dxy    dyz    dz2    dxz    dx2    tot
  1  0.110  0.020  0.010  0.059  0.000  0.000  0.000  0.000  0.000  0.198
  2  0.110  0.020  0.010  0.059  0.000  0.000  0.000  0.000  0.000  0.198
tot  0.220  0.039  0.020  0.118  0.000  0.000  0.000  0.000  0.000  0.396
 
band   6 # energy    8.58477258 # occ.  0.00000000
 
ion      s     py     pz     px    dxy    dyz    dz2    dxz    dx2    tot
  1  0.000  0.001  0.126  0.027  0.000  0.000  0.000  0.000  0.000  0.154
  2  0.000  0.001  0.126  0.027  0.000  0.000  0.000  0.000  0.000  0.154
tot  0.000  0.002  0.251  0.054  0.000  0.000  0.000  0.000  0.000  0.308
 
band   7 # energy    8.58477355 # occ.  0.00000000
 
ion      s     py     pz     px    dxy    dyz    dz2    dxz    dx2    tot
  1  0.000  0.119  0.011  0.024  0.000  0.000  0.000  0.000  0.000  0.154
  2  0.000  0.119  0.011  0.024  0.000  0.000  0.000  0.000  0.000  0.154
tot  0.000  0.237  0.023  0.048  0.000  0.000  0.000  0.000  0.000  0.308
 
band   8 # energy   10.14297605 # occ.  0.00000000
 
ion      s     py     pz     px    dxy    dyz    dz2    dxz    dx2    tot
  1  0.196  0.022  0.011  0.066  0.000  0.000  0.000  0.000  0.000  0.295
  2  0.196  0.022  0.011  0.066  0.000  0.000  0.000  0.000  0.000  0.295
tot  0.392  0.044  0.022  0.132  0.000  0.000  0.000  0.000  0.000  0.590
 
band   9 # energy   12.84912187 # occ.  0.00000000
 
ion      s     py     pz     px    dxy    dyz    dz2    dxz    dx2    tot
  1  0.000  0.001  0.000  0.001  0.000  0.000  0.000  0.000  0.000  0.002
  2  0.000  0.001  0.000  0.001  0.000  0.000  0.000  0.000  0.000  0.002
tot  0.000  0.002  0.001  0.001  0.000  0.000  0.000  0.000  0.000  0.004
 
band  10 # energy   12.84913066 # occ.  0.00000000
 
ion      s     py     pz     px    dxy    dyz    dz2    dxz    dx2    tot
  1  0.000  0.001  0.001  0.000  0.000  0.000  0.000  0.000  0.000  0.002
  2  0.000  0.001  0.001  0.000  0.000  0.000  0.000  0.000  0.000  0.002
tot  0.000  0.001  0.002  0.000  0.000  0.000  0.000  0.000  0.000  0.004
 
band  11 # energy   14.26663045 # occ.  0.00000000
 
ion      s     py     pz     px    dxy    dyz    dz2    dxz    dx2    tot
  1  0.077  0.007  0.004  0.021  0.000  0.000  0.000  0.000  0.000  0.109
  2  0.077  0.007  0.004  0.021  0.000  0.000  0.000  0.000  0.000  0.109
tot  0.155  0.014  0.007  0.043  0.000  0.000  0.000  0.000  0.000  0.219
 
band  12 # energy   16.24120756 # occ.  0.00000000
 
ion      s     py     pz     px    dxy    dyz    dz2    dxz    dx2    tot
  1  0.015  0.005  0.002  0.015  0.000  0.000  0.000  0.000  0.000  0.037
  2  0.015  0.005  0.002  0.015  0.000  0.000  0.000  0.000  0.000  0.037
tot  0.030  0.010  0.005  0.029  0.000  0.000  0.000  0.000  0.000  0.074
 
band  13 # energy   17.93897238 # occ.  0.00000000
 
ion      s     py     pz     px    dxy    dyz    dz2    dxz    dx2    tot
  1  0.000  0.015  0.009  0.012  0.000  0.000  0.000  0.000  0.000  0.035
  2  0.000  0.015  0.009  0.012  0.000  0.000  0.000  0.000  0.000  0.035
tot  0.000  0.029  0.018  0.023  0.000  0.000  0.000  0.000  0.000  0.070
 
band  14 # energy   17.93898476 # occ.  0.00000000
 
ion      s     py     pz     px    dxy    dyz    dz2    dxz    dx2    tot
  1  0.000  0.013  0.022  0.000  0.000  0.000  0.000  0.000  0.000  0.035
  2  0.000  0.013  0.022  0.000  0.000  0.000  0.000  0.000  0.000  0.035
tot  0.000  0.025  0.045  0.000  0.000  0.000  0.000  0.000  0.000  0.070
 
band  15 # energy   22.10113673 # occ.  0.00000000
 
ion      s     py     pz     px    dxy    dyz    dz2    dxz    dx2    tot
  1  0.025  0.003  0.002  0.010  0.000  0.000  0.000  0.000  0.000  0.040
  2  0.025  0.003  0.002  0.010  0.000  0.000  0.000  0.000  0.000  0.040
tot  0.049  0.007  0.003  0.021  0.000  0.000  0.000  0.000  0.000  0.080
 
band  16 # energy   26.45605860 # occ.  0.00000000
 
ion      s     py     pz     px    dxy    dyz    dz2    dxz    dx2    tot
  1  0.000  0.005  0.036  0.001  0.000  0.000  0.000  0.000  0.000  0.042
  2  0.000  0.005  0.036  0.001  0.000  0.000  0.000  0.000  0.000  0.042
tot  0.000  0.011  0.071  0.003  0.000  0.000  0.000  0.000  0.000  0.085
 

 k-point    3 :    0.25000000 0.00000000-0.00000000     weight = 0.01562500

band   1 # energy   -5.41470748 # occ.  1.00000000
 
ion      s     py     pz     px    dxy    dyz    dz2    dxz    dx2    tot
  1  0.209  0.002  0.001  0.005  0.000  0.000  0.000  0.000  0.000  0.217
  2  0.209  0.002  0.001  0.005  0.000  0.000  0.000  0.000  0.000  0.217
tot  0.419  0.003  0.002  0.010  0.000  0.000  0.000  0.000  0.000  0.434
 
band   2 # energy    1.72749603 # occ.  1.00000000
 
ion      s     py     pz     px    dxy    dyz    dz2    dxz    dx2    tot
  1  0.097  0.026  0.013  0.078  0.000  0.000  0.000  0.000  0.000  0.214
  2  0.097  0.026  0.013  0.078  0.000  0.000  0.000  0.000  0.000  0.214
tot  0.194  0.052  0.026  0.156  0.000  0.000  0.000  0.000  0.000  0.428
 
band   3 # energy    4.86831061 # occ.  1.00000000
 
ion      s     py     pz     px    dxy    dyz    dz2    dxz    dx2    tot
  1  0.000  0.104  0.037  0.070  0.000  0.000  0.000  0.000  0.000  0.211
  2  0.000  0.104  0.037  0.070  0.000  0.000  0.000  0.000  0.000  0.211
tot  0.000  0.208  0.075  0.140  0.000  0.000  0.000  0.000  0.000  0.422
 
band   4 # energy    4.86831457 # occ.  1.00000000
 
ion      s     py     pz     px    dxy    dyz    dz2    dxz    dx2    tot
  1  0.000  0.060  0.150  0.000  0.000  0.000  0.000  0.000  0.000  0.211
  2  0.000  0.060  0.150  0.000  0.000  0.000  0.000  0.000  0.000  0.211
tot  0.000  0.121  0.301  0.001  0.000  0.000  0.000  0.000  0.000  0.422
 
band   5 # energy    7.57139106 # occ.  0.00000000
 
ion      s     py     pz     px    dxy    dyz    dz2    dxz    dx2    tot
  1  0.156  0.011  0.005  0.032  0.000  0.000  0.000  0.000  0.000  0.205
  2  0.156  0.011  0.005  0.032  0.000  0.000  0.000  0.000  0.000  0.205
tot  0.312  0.022  0.011  0.065  0.000  0.000  0.000  0.000  0.000  0.409
 
band   6 # energy    9.10264313 # occ.  0.00000000
 
ion      s     py     pz     px    dxy    dyz    dz2    dxz    dx2    tot
  1  0.000  0.042  0.052  0.045  0.000  0.000  0.000  0.000  0.000  0.139
  2  0.000  0.042  0.052  0.045  0.000  0.000  0.000  0.000  0.000  0.139
tot  0.000  0.085  0.103  0.090  0.000  0.000  0.000  0.000  0.000  0.277
 
band   7 # energy    9.10264612 # occ.  0.00000000
 
ion      s     py     pz     px    dxy    dyz    dz2    dxz    dx2    tot
  1  0.000  0.066  0.072  0.001  0.000  0.000  0.000  0.000  0.000  0.139
  2  0.000  0.066  0.072  0.001  0.000  0.000  0.000  0.000  0.000  0.139
tot  0.000  0.131  0.143  0.003  0.000  0.000  0.000  0.000  0.000  0.277
 
band   8 # energy   12.36179177 # occ.  0.00000000
 
ion      s     py     pz     px    dxy    dyz    dz2    dxz    dx2    tot
  1  0.111  0.034  0.017  0.101  0.000  0.000  0.000  0.000  0.000  0.262
  2  0.111  0.034  0.017  0.101  0.000  0.000  0.000  0.000  0.000  0.262
tot  0.222  0.067  0.034  0.201  0.000  0.000  0.000  0.000  0.000  0.524
 
band   9 # energy   12.80008618 # occ.  0.00000000
 
ion      s     py     pz     px    dxy    dyz    dz2    dxz    dx2    tot
  1  0.000  0.006  0.004  0.005  0.000  0.000  0.000  0.000  0.000  0.016
  2  0.000  0.006  0.004  0.005  0.000  0.000  0.000  0.000  0.000  0.016
tot  0.000  0.013  0.009  0.011  0.000  0.000  0.000  0.000  0.000  0.032
 
band  10 # energy   12.80008933 # occ.  0.00000000
 
ion      s     py     pz     px    dxy    dyz    dz2    dxz    dx2    tot
  1  0.000  0.006  0.010  0.000  0.000  0.000  0.000  0.000  0.000  0.016
  2  0.000  0.006  0.010  0.000  0.000  0.000  0.000  0.000  0.000  0.016
tot  0.000  0.012  0.020  0.000  0.000  0.000  0.000  0.000  0.000  0.032
 
band  11 # energy   14.54313817 # occ.  0.00000000
 
ion      s     py     pz     px    dxy    dyz    dz2    dxz    dx2    tot
  1  0.048  0.005  0.002  0.014  0.000  0.000  0.000  0.000  0.000  0.069
  2  0.048  0.005  0.002  0.014  0.000  0.000  0.000  0.000  0.000  0.069
tot  0.095  0.009  0.005  0.028  0.000  0.000  0.000  0.000  0.000  0.138
 
band  12 # energy   17.32404886 # occ.  0.00000000
 
ion      s     py     pz     px    dxy    dyz    dz2    dxz    dx2    tot
  1  0.036  0.016  0.008  0.049  0.000  0.000  0.000  0.000  0.000  0.109
  2  0.036  0.016  0.008  0.049  0.000  0.000  0.000  0.000  0.000  0.109
tot  0.073  0.032  0.016  0.097  0.000  0.000  0.000  0.000  0.000  0.218
 
band  13 # energy   20.12497080 # occ.  0.00000000
 
ion      s     py     pz     px    dxy    dyz    dz2    dxz    dx2    tot
  1  0.000  0.015  0.008  0.012  0.000  0.000  0.000  0.000  0.000  0.035
  2  0.000  0.015  0.008  0.012  0.000  0.000  0.000  0.000  0.000  0.035
tot  0.000  0.030  0.017  0.023  0.000  0.000  0.000  0.000  0.000  0.070
 
band  14 # energy   20.12498170 # occ.  0.00000000
 
ion      s     py     pz     px    dxy    dyz    dz2    dxz    dx2    tot
  1  0.000  0.012  0.023  0.000  0.000  0.000  0.000  0.000  0.000  0.035
  2  0.000  0.012  0.023  0.000  0.000  0.000  0.000  0.000  0.000  0.035
tot  0.000  0.024  0.046  0.000  0.000  0.000  0.000  0.000  0.000  0.070
 
band  15 # energy   23.28998242 # occ.  0.00000000
 
ion      s     py     pz     px    dxy    dyz    dz2    dxz    dx2    tot
  1  0.000  0.004  0.042  0.004  0.000  0.000  0.000  0.000  0.000  0.049
  2  0.000  0.004  0.042  0.004  0.000  0.000  0.000  0.000  0.000  0.049
tot  0.000  0.008  0.084  0.007  0.000  0.000  0.000  0.000  0.000  0.099
 
band  16 # energy   23.29402126 # occ.  0.00000000
 
ion      s     py     pz     px    dxy    dyz    dz2    dxz    dx2    tot
  1  0.001  0.045  0.003  0.003  0.000  0.000  0.000  0.000  0.000  0.053
  2  0.001  0.036  0.001  0.015  0.000  0.000  0.000  0.000  0.000  0.053
tot  0.002  0.081  0.003  0.018  0.000  0.000  0.000  0.000  0.000  0.105
 

 k-point    4 :    0.37500000 0.00000000 0.00000000     weight = 0.01562500

band   1 # energy   -4.54052786 # occ.  1.00000000
 
ion      s     py     pz     px    dxy    dyz    dz2    dxz    dx2    tot
  1  0.212  0.003  0.002  0.009  0.000  0.000  0.000  0.000  0.000  0.226
  2  0.212  0.003  0.002  0.009  0.000  0.000  0.000  0.000  0.000  0.226
tot  0.424  0.006  0.003  0.018  0.000  0.000  0.000  0.000  0.000  0.451
 
band   2 # energy   -0.25624366 # occ.  1.00000000
 
ion      s     py     pz     px    dxy    dyz    dz2    dxz    dx2    tot
  1  0.108  0.021  0.011  0.064  0.000  0.000  0.000  0.000  0.000  0.204
  2  0.108  0.021  0.011  0.064  0.000  0.000  0.000  0.000  0.000  0.204
tot  0.215  0.043  0.021  0.128  0.000  0.000  0.000  0.000  0.000  0.407
 
band   3 # energy    4.54560472 # occ.  1.00000000
 
ion      s     py     pz     px    dxy    dyz    dz2    dxz    dx2    tot
  1  0.000  0.105  0.038  0.071  0.000  0.000  0.000  0.000  0.000  0.214
  2  0.000  0.105  0.038  0.071  0.000  0.000  0.000  0.000  0.000  0.214
tot  0.000  0.209  0.076  0.142  0.000  0.000  0.000  0.000  0.000  0.428
 
band   4 # energy    4.54560951 # occ.  1.00000000
 
ion      s     py     pz     px    dxy    dyz    dz2    dxz    dx2    tot
  1  0.000  0.062  0.152  0.000  0.000  0.000  0.000  0.000  0.000  0.214
  2  0.000  0.062  0.152  0.000  0.000  0.000  0.000  0.000  0.000  0.214
tot  0.000  0.123  0.304  0.000  0.000  0.000  0.000  0.000  0.000  0.428
 
band   5 # energy    7.20688258 # occ.  0.00000000
 
ion      s     py     pz     px    dxy    dyz    dz2    dxz    dx2    tot
  1  0.178  0.006  0.003  0.018  0.000  0.000  0.000  0.000  0.000  0.205
  2  0.178  0.006  0.003  0.018  0.000  0.000  0.000  0.000  0.000  0.205
tot  0.355  0.012  0.006  0.037  0.000  0.000  0.000  0.000  0.000  0.411
 
band   6 # energy    9.06595307 # occ.  0.00000000
 
ion      s     py     pz     px    dxy    dyz    dz2    dxz    dx2    tot
  1  0.000  0.039  0.032  0.035  0.000  0.000  0.000  0.000  0.000  0.106
  2  0.000  0.039  0.032  0.035  0.000  0.000  0.000  0.000  0.000  0.106
tot  0.000  0.078  0.064  0.070  0.000  0.000  0.000  0.000  0.000  0.212
 
band   7 # energy    9.06595856 # occ.  0.00000000
 
ion      s     py     pz     px    dxy    dyz    dz2    dxz    dx2    tot
  1  0.000  0.044  0.062  0.000  0.000  0.000  0.000  0.000  0.000  0.106
  2  0.000  0.044  0.062  0.000  0.000  0.000  0.000  0.000  0.000  0.106
tot  0.000  0.087  0.124  0.001  0.000  0.000  0.000  0.000  0.000  0.212
 
band   8 # energy   13.45099794 # occ.  0.00000000
 
ion      s     py     pz     px    dxy    dyz    dz2    dxz    dx2    tot
  1  0.004  0.019  0.010  0.058  0.000  0.000  0.000  0.000  0.000  0.092
  2  0.004  0.019  0.010  0.058  0.000  0.000  0.000  0.000  0.000  0.092
tot  0.008  0.039  0.019  0.117  0.000  0.000  0.000  0.000  0.000  0.183
 
band   9 # energy   14.15159088 # occ.  0.00000000
 
ion      s     py     pz     px    dxy    dyz    dz2    dxz    dx2    tot
  1  0.000  0.010  0.030  0.000  0.000  0.000  0.000  0.000  0.000  0.040
  2  0.000  0.010  0.030  0.000  0.000  0.000  0.000  0.000  0.000  0.040
tot  0.000  0.020  0.060  0.000  0.000  0.000  0.000  0.000  0.000  0.080
 
band  10 # energy   14.15159325 # occ.  0.00000000
 
ion      s     py     pz     px    dxy    dyz    dz2    dxz    dx2    tot
  1  0.000  0.021  0.006  0.013  0.000  0.000  0.000  0.000  0.000  0.040
  2  0.000  0.021  0.006  0.013  0.000  0.000  0.000  0.000  0.000  0.040
tot  0.000  0.043  0.011  0.026  0.000  0.000  0.000  0.000  0.000  0.080
 
band  11 # energy   15.12337560 # occ.  0.00000000
 
ion      s     py     pz     px    dxy    dyz    dz2    dxz    dx2    tot
  1  0.100  0.022  0.011  0.067  0.000  0.000  0.000  0.000  0.000  0.202
  2  0.100  0.022  0.011  0.067  0.000  0.000  0.000  0.000  0.000  0.202
tot  0.201  0.045  0.022  0.135  0.000  0.000  0.000  0.000  0.000  0.403
 
band  12 # energy   19.23186938 # occ.  0.00000000
 
ion      s     py     pz     px    dxy    dyz    dz2    dxz    dx2    tot
  1  0.000  0.018  0.045  0.000  0.000  0.000  0.000  0.000  0.000  0.063
  2  0.000  0.018  0.045  0.000  0.000  0.000  0.000  0.000  0.000  0.063
tot  0.000  0.036  0.090  0.000  0.000  0.000  0.000  0.000  0.000  0.126
 
band  13 # energy   19.23187559 # occ.  0.00000000
 
ion      s     py     pz     px    dxy    dyz    dz2    dxz    dx2    tot
  1  0.000  0.031  0.011  0.021  0.000  0.000  0.000  0.000  0.000  0.063
  2  0.000  0.031  0.011  0.021  0.000  0.000  0.000  0.000  0.000  0.063
tot  0.000  0.062  0.022  0.042  0.000  0.000  0.000  0.000  0.000  0.126
 
band  14 # energy   19.47293542 # occ.  0.00000000
 
ion      s     py     pz     px    dxy    dyz    dz2    dxz    dx2    tot
  1  0.015  0.049  0.025  0.147  0.000  0.000  0.000  0.000  0.000  0.236
  2  0.015  0.049  0.025  0.147  0.000  0.000  0.000  0.000  0.000  0.236
tot  0.030  0.098  0.049  0.294  0.000  0.000  0.000  0.000  0.000  0.471
 
band  15 # energy   22.07105351 # occ.  0.00000000
 
ion      s     py     pz     px    dxy    dyz    dz2    dxz    dx2    tot
  1  0.068  0.002  0.001  0.005  0.000  0.000  0.000  0.000  0.000  0.075
  2  0.068  0.002  0.001  0.005  0.000  0.000  0.000  0.000  0.000  0.075
tot  0.135  0.003  0.002  0.010  0.000  0.000  0.000  0.000  0.000  0.150
 
band  16 # energy   23.98295720 # occ.  0.00000000
 
ion      s     py     pz     px    dxy    dyz    dz2    dxz    dx2    tot
  1  0.000  0.012  0.012  0.004  0.000  0.000  0.000  0.000  0.000  0.027
  2  0.000  0.012  0.012  0.004  0.000  0.000  0.000  0.000  0.000  0.027
tot  0.000  0.024  0.023  0.007  0.000  0.000  0.000  0.000  0.000  0.054
 

 k-point    5 :    0.50000000 0.00000000-0.00000000     weight = 0.00781250

band   1 # energy   -3.92156384 # occ.  1.00000000
 
ion      s     py     pz     px    dxy    dyz    dz2    dxz    dx2    tot
  1  0.224  0.003  0.001  0.009  0.000  0.000  0.000  0.000  0.000  0.237
  2  0.224  0.003  0.001  0.009  0.000  0.000  0.000  0.000  0.000  0.237
tot  0.447  0.006  0.003  0.018  0.000  0.000  0.000  0.000  0.000  0.474
 
band   2 # energy   -1.25383205 # occ.  1.00000000
 
ion      s     py     pz     px    dxy    dyz    dz2    dxz    dx2    tot
  1  0.100  0.020  0.010  0.061  0.000  0.000  0.000  0.000  0.000  0.192
  2  0.100  0.020  0.010  0.061  0.000  0.000  0.000  0.000  0.000  0.192
tot  0.199  0.041  0.020  0.123  0.000  0.000  0.000  0.000  0.000  0.384
 
band   3 # energy    4.43499897 # occ.  1.00000000
 
ion      s     py     pz     px    dxy    dyz    dz2    dxz    dx2    tot
  1  0.000  0.105  0.039  0.072  0.000  0.000  0.000  0.000  0.000  0.215
  2  0.000  0.105  0.039  0.072  0.000  0.000  0.000  0.000  0.000  0.215
tot  0.000  0.211  0.077  0.143  0.000  0.000  0.000  0.000  0.000  0.431
 
band   4 # energy    4.43500407 # occ.  1.00000000
 
ion      s     py     pz     px    dxy    dyz    dz2    dxz    dx2    tot
  1  0.000  0.062  0.153  0.000  0.000  0.000  0.000  0.000  0.000  0.215
  2  0.000  0.062  0.153  0.000  0.000  0.000  0.000  0.000  0.000  0.215
tot  0.000  0.124  0.306  0.000  0.000  0.000  0.000  0.000  0.000  0.431
 
band   5 # energy    7.07873649 # occ.  0.00000000
 
ion      s     py     pz     px    dxy    dyz    dz2    dxz    dx2    tot
  1  0.185  0.005  0.002  0.014  0.000  0.000  0.000  0.000  0.000  0.206
  2  0.185  0.005  0.002  0.014  0.000  0.000  0.000  0.000  0.000  0.206
tot  0.370  0.009  0.005  0.028  0.000  0.000  0.000  0.000  0.000  0.411
 
band   6 # energy    8.96245515 # occ.  0.00000000
 
ion      s     py     pz     px    dxy    dyz    dz2    dxz    dx2    tot
  1  0.000  0.035  0.028  0.031  0.000  0.000  0.000  0.000  0.000  0.095
  2  0.000  0.035  0.028  0.031  0.000  0.000  0.000  0.000  0.000  0.095
tot  0.000  0.071  0.057  0.063  0.000  0.000  0.000  0.000  0.000  0.190
 
band   7 # energy    8.96246115 # occ.  0.00000000
 
ion      s     py     pz     px    dxy    dyz    dz2    dxz    dx2    tot
  1  0.000  0.039  0.056  0.000  0.000  0.000  0.000  0.000  0.000  0.095
  2  0.000  0.039  0.056  0.000  0.000  0.000  0.000  0.000  0.000  0.095
tot  0.000  0.077  0.112  0.001  0.000  0.000  0.000  0.000  0.000  0.190
 
band   8 # energy   13.31597969 # occ.  0.00000000
 
ion      s     py     pz     px    dxy    dyz    dz2    dxz    dx2    tot
  1  0.005  0.012  0.006  0.036  0.000  0.000  0.000  0.000  0.000  0.060
  2  0.005  0.012  0.006  0.036  0.000  0.000  0.000  0.000  0.000  0.060
tot  0.011  0.024  0.012  0.073  0.000  0.000  0.000  0.000  0.000  0.120
 
band   9 # energy   16.10739098 # occ.  0.00000000
 
ion      s     py     pz     px    dxy    dyz    dz2    dxz    dx2    tot
  1  0.000  0.000  0.000  0.000  0.000  0.000  0.000  0.000  0.000  0.000
  2  0.000  0.000  0.000  0.000  0.000  0.000  0.000  0.000  0.000  0.000
tot  0.000  0.000  0.000  0.000  0.000  0.000  0.000  0.000  0.000  0.001
 
band  10 # energy   16.10739651 # occ.  0.00000000
 
ion      s     py     pz     px    dxy    dyz    dz2    dxz    dx2    tot
  1  0.000  0.000  0.000  0.000  0.000  0.000  0.000  0.000  0.000  0.000
  2  0.000  0.000  0.000  0.000  0.000  0.000  0.000  0.000  0.000  0.000
tot  0.000  0.000  0.000  0.000  0.000  0.000  0.000  0.000  0.000  0.001
 
band  11 # energy   16.79301543 # occ.  0.00000000
 
ion      s     py     pz     px    dxy    dyz    dz2    dxz    dx2    tot
  1  0.038  0.033  0.017  0.100  0.000  0.000  0.000  0.000  0.000  0.187
  2  0.038  0.033  0.017  0.100  0.000  0.000  0.000  0.000  0.000  0.187
tot  0.076  0.066  0.033  0.199  0.000  0.000  0.000  0.000  0.000  0.374
 
band  12 # energy   16.83080765 # occ.  0.00000000
 
ion      s     py     pz     px    dxy    dyz    dz2    dxz    dx2    tot
  1  0.000  0.032  0.083  0.000  0.000  0.000  0.000  0.000  0.000  0.115
  2  0.000  0.032  0.083  0.000  0.000  0.000  0.000  0.000  0.000  0.115
tot  0.000  0.064  0.166  0.000  0.000  0.000  0.000  0.000  0.000  0.230
 
band  13 # energy   16.83081256 # occ.  0.00000000
 
ion      s     py     pz     px    dxy    dyz    dz2    dxz    dx2    tot
  1  0.000  0.057  0.019  0.038  0.000  0.000  0.000  0.000  0.000  0.115
  2  0.000  0.057  0.019  0.038  0.000  0.000  0.000  0.000  0.000  0.115
tot  0.000  0.115  0.039  0.076  0.000  0.000  0.000  0.000  0.000  0.230
 
band  14 # energy   18.34885782 # occ.  0.00000000
 
ion      s     py     pz     px    dxy    dyz    dz2    dxz    dx2    tot
  1  0.087  0.046  0.023  0.139  0.000  0.000  0.000  0.000  0.000  0.295
  2  0.087  0.046  0.023  0.139  0.000  0.000  0.000  0.000  0.000  0.295
tot  0.173  0.093  0.046  0.279  0.000  0.000  0.000  0.000  0.000  0.591
 
band  15 # energy   24.75083673 # occ.  0.00000000
 
ion      s     py     pz     px    dxy    dyz    dz2    dxz    dx2    tot
  1  0.050  0.003  0.001  0.009  0.000  0.000  0.000  0.000  0.000  0.063
  2  0.050  0.003  0.001  0.009  0.000  0.000  0.000  0.000  0.000  0.063
tot  0.100  0.006  0.003  0.018  0.000  0.000  0.000  0.000  0.000  0.126
 
band  16 # energy   25.35806139 # occ.  0.00000000
 
ion      s     py     pz     px    dxy    dyz    dz2    dxz    dx2    tot
  1  0.014  0.015  0.007  0.044  0.000  0.000  0.000  0.000  0.000  0.080
  2  0.014  0.015  0.007  0.044  0.000  0.000  0.000  0.000  0.000  0.080
tot  0.028  0.029  0.015  0.088  0.000  0.000  0.000  0.000  0.000  0.160
 

 k-point    6 :    0.00000000 0.12500000 0.00000000     weight = 0.01171875

band   1 # energy   -5.93135989 # occ.  1.00000000
 
ion      s     py     pz     px    dxy    dyz    dz2    dxz    dx2    tot
  1  0.211  0.002  0.001  0.000  0.000  0.000  0.000  0.000  0.000  0.213
  2  0.211  0.002  0.001  0.000  0.000  0.000  0.000  0.000  0.000  0.213
tot  0.421  0.004  0.002  0.000  0.000  0.000  0.000  0.000  0.000  0.427
 
band   2 # energy    4.26071116 # occ.  1.00000000
 
ion      s     py     pz     px    dxy    dyz    dz2    dxz    dx2    tot
  1  0.100  0.096  0.048  0.000  0.000  0.000  0.000  0.000  0.000  0.243
  2  0.100  0.096  0.048  0.000  0.000  0.000  0.000  0.000  0.000  0.243
tot  0.200  0.191  0.096  0.000  0.000  0.000  0.000  0.000  0.000  0.487
 
band   3 # energy    4.82693066 # occ.  1.00000000
 
ion      s     py     pz     px    dxy    dyz    dz2    dxz    dx2    tot
  1  0.000  0.007  0.014  0.181  0.000  0.000  0.000  0.000  0.000  0.202
  2  0.000  0.007  0.014  0.181  0.000  0.000  0.000  0.000  0.000  0.202
tot  0.000  0.014  0.027  0.362  0.000  0.000  0.000  0.000  0.000  0.403
 
band   4 # energy    4.82693070 # occ.  1.00000000
 
ion      s     py     pz     px    dxy    dyz    dz2    dxz    dx2    tot
  1  0.000  0.060  0.121  0.021  0.000  0.000  0.000  0.000  0.000  0.202
  2  0.000  0.060  0.121  0.021  0.000  0.000  0.000  0.000  0.000  0.202