<?xml version="1.0" encoding="ISO-8859-1"?>
<modeling>
 <generator>
  <i name="program" type="string">vasp </i>
  <i name="version" type="string">5.4.1  </i>
  <i name="subversion" type="string">24Jun15 (build Feb 01 2016 23:38:11) complex                          parallel </i>
  <i name="platform" type="string">IFC91_impi </i>
  <i name="date" type="string">2016 08 25 </i>
  <i name="time" type="string">07:31:08 </i>
 </generator>
 <incar>
  <i type="string" name="PREC">accurate</i>
  <i type="string" name="ALGO"> Fast</i>
  <i type="int" name="ISPIN">     2</i>
  <i type="int" name="ICHARG">     1</i>
  <i type="int" name="NELM">   100</i>
  <i type="int" name="IBRION">     2</i>
  <i name="EDIFF">      0.00010000</i>
  <i type="int" name="NSW">    99</i>
  <i type="int" name="ISIF">     3</i>
  <i name="ENCUT">    520.00000000</i>
  <v name="MAGMOM">      0.60000000      0.60000000</v>
  <i type="string" name="LREAL"> Auto</i>
  <i type="int" name="ISMEAR">    -5</i>
  <i name="SIGMA">      0.05000000</i>
  <i type="logical" name="LWAVE"> F  </i>
  <i type="logical" name="LORBIT"> F  </i>
  <v type="int" name="KPOINT_BSE">    -1     0     0     0</v>
  <i type="int" name="NELM">   100</i>
 </incar>
 <kpoints>
  <generation param="Gamma">
   <v type="int" name="divisions">       8        8        8 </v>
   <v name="usershift">      0.00000000       0.00000000       0.00000000 </v>
   <v name="genvec1">      0.12500000       0.00000000      -0.00000000 </v>
   <v name="genvec2">      0.00000000       0.12500000       0.00000000 </v>
   <v name="genvec3">      0.00000000       0.00000000       0.12500000 </v>
   <v name="shift">      0.00000000       0.00000000       0.00000000 </v>
  </generation>
  <varray name="kpointlist" >
   <v>       0.00000000       0.00000000       0.00000000 </v>
   <v>       0.12500000       0.00000000      -0.00000000 </v>
   <v>       0.25000000       0.00000000      -0.00000000 </v>
   <v>       0.37500000       0.00000000       0.00000000 </v>
   <v>       0.50000000       0.00000000      -0.00000000 </v>
   <v>       0.00000000       0.12500000       0.00000000 </v>
   <v>       0.25000000       0.12500000       0.00000000 </v>
   <v>       0.37500000       0.12500000       0.00000000 </v>
   <v>       0.50000000       0.12500000      -0.00000000 </v>
   <v>      -0.37500000       0.12500000      -0.00000000 </v>
   <v>      -0.25000000       0.12500000       0.00000000 </v>
   <v>      -0.12500000       0.12500000      -0.00000000 </v>
   <v>       0.00000000       0.25000000       0.00000000 </v>
   <v>       0.50000000       0.25000000       0.00000000 </v>
   <v>      -0.37500000       0.25000000       0.00000000 </v>
   <v>      -0.25000000       0.25000000      -0.00000000 </v>
   <v>      -0.12500000       0.25000000       0.00000000 </v>
   <v>       0.00000000       0.37500000      -0.00000000 </v>
   <v>      -0.25000000       0.37500000       0.00000000 </v>
   <v>      -0.12500000       0.37500000       0.00000000 </v>
   <v>       0.00000000       0.50000000       0.00000000 </v>
   <v>       0.37500000       0.12500000       0.12500000 </v>
   <v>       0.50000000       0.12500000       0.12500000 </v>
   <v>      -0.37500000       0.12500000       0.12500000 </v>
   <v>      -0.37500000       0.25000000       0.12500000 </v>
   <v>      -0.25000000       0.25000000       0.12500000 </v>
   <v>      -0.12500000       0.25000000       0.12500000 </v>
   <v>      -0.12500000       0.37500000       0.12500000 </v>
   <v>      -0.25000000       0.25000000       0.25000000 </v>
  </varray>
  <varray name="weights" >
   <v>       0.00195312 </v>
   <v>       0.01562500 </v>
   <v>       0.01562500 </v>
   <v>       0.01562500 </v>
   <v>       0.00781250 </v>
   <v>       0.01171875 </v>
   <v>       0.02343750 </v>
   <v>       0.04687500 </v>
   <v>       0.04687500 </v>
   <v>       0.04687500 </v>
   <v>       0.04687500 </v>
   <v>       0.04687500 </v>
   <v>       0.01171875 </v>
   <v>       0.02343750 </v>
   <v>       0.04687500 </v>
   <v>       0.04687500 </v>
   <v>       0.04687500 </v>
   <v>       0.01171875 </v>
   <v>       0.02343750 </v>
   <v>       0.04687500 </v>
   <v>       0.00585938 </v>
   <v>       0.04687500 </v>
   <v>       0.09375000 </v>
   <v>       0.04687500 </v>
   <v>       0.04687500 </v>
   <v>       0.09375000 </v>
   <v>       0.04687500 </v>
   <v>       0.02343750 </v>
   <v>       0.01171875 </v>
  </varray>
  <varray name="tetrahedronlist"  type="int" >
   <v type="int" >        4        1        2        2        2 </v>
   <v type="int" >        8        1        2        2        6 </v>
   <v type="int" >        8        2        2        6       12 </v>
   <v type="int" >        4        2        2        2        6 </v>
   <v type="int" >        8        2        2        6        7 </v>
   <v type="int" >        8        2        2        7       12 </v>
   <v type="int" >        8        2        3        6        7 </v>
   <v type="int" >        4        2        6        7        7 </v>
   <v type="int" >        8        3        6        7       12 </v>
   <v type="int" >        8        6        7       12       12 </v>
   <v type="int" >        4        6        7        7       12 </v>
   <v type="int" >        8        3        4        8       12 </v>
   <v type="int" >       16        3        7        8       12 </v>
   <v type="int" >       12        7        8       12       12 </v>
   <v type="int" >        8        4        8       11       12 </v>
   <v type="int" >       16        8       11       12       22 </v>
   <v type="int" >        8        8       12       12       22 </v>
   <v type="int" >        8        4        5        9       11 </v>
   <v type="int" >       16        4        8        9       11 </v>
   <v type="int" >        8        8        9       11       22 </v>
   <v type="int" >        8        5        9       10       11 </v>
   <v type="int" >       16        9       10       11       23 </v>
   <v type="int" >        8        9       11       22       23 </v>
   <v type="int" >       12        4        5       10       10 </v>
   <v type="int" >       16        5        9       10       10 </v>
   <v type="int" >        8        9       10       10       23 </v>
   <v type="int" >       12        4        9       10       10 </v>
   <v type="int" >       16        9       10       10       24 </v>
   <v type="int" >        8       10       10       23       24 </v>
   <v type="int" >        8        3        4        9       11 </v>
   <v type="int" >       16        4        9       10       11 </v>
   <v type="int" >        8        9       10       11       24 </v>
   <v type="int" >        8        3        8        9       11 </v>
   <v type="int" >       16        8        9       11       23 </v>
   <v type="int" >        8        9       11       23       24 </v>
   <v type="int" >        8        2        3        8       12 </v>
   <v type="int" >       16        3        8       11       12 </v>
   <v type="int" >        8        8       11       12       23 </v>
   <v type="int" >        8        2        7        8       12 </v>
   <v type="int" >       16        7        8       12       22 </v>
   <v type="int" >        8        8       12       22       23 </v>
   <v type="int" >        8        1        2        6        7 </v>
   <v type="int" >       16        2        6        7       12 </v>
   <v type="int" >        8        6        7       12       22 </v>
   <v type="int" >        8        2        6       12       12 </v>
   <v type="int" >        8        6       12       12       13 </v>
   <v type="int" >        8       12       12       13       17 </v>
   <v type="int" >       12        2        7       12       12 </v>
   <v type="int" >        8        7       12       12       22 </v>
   <v type="int" >        8       12       12       17       22 </v>
   <v type="int" >        4        2        3        7        7 </v>
   <v type="int" >       16        2        3        7       12 </v>
   <v type="int" >        8        3        7       12       22 </v>
   <v type="int" >        4        3        7        7       12 </v>
   <v type="int" >        8        3        7        8       22 </v>
   <v type="int" >        8        7        8        8       12 </v>
   <v type="int" >        4        3        8        8       12 </v>
   <v type="int" >        8        8        8       12       22 </v>
   <v type="int" >        4        8        8       11       12 </v>
   <v type="int" >        8        8        9       14       22 </v>
   <v type="int" >        8        8        8       14       22 </v>
   <v type="int" >        8        8       11       14       22 </v>
   <v type="int" >        8        9       14       22       23 </v>
   <v type="int" >        8       14       22       23       23 </v>
   <v type="int" >        8       11       14       22       23 </v>
   <v type="int" >       16        9       10       15       23 </v>
   <v type="int" >       16        9       14       15       23 </v>
   <v type="int" >       12       14       15       23       23 </v>
   <v type="int" >       24       10       15       23       24 </v>
   <v type="int" >       16       15       23       24       25 </v>
   <v type="int" >        8       15       23       23       25 </v>
   <v type="int" >        8       10       11       16       24 </v>
   <v type="int" >       16       10       15       16       24 </v>
   <v type="int" >        8       15       16       24       25 </v>
   <v type="int" >        8       11       16       23       24 </v>
   <v type="int" >       16       16       23       24       26 </v>
   <v type="int" >       16       16       24       25       26 </v>
   <v type="int" >        8       11       12       17       23 </v>
   <v type="int" >       16       11       16       17       23 </v>
   <v type="int" >        8       16       17       23       26 </v>
   <v type="int" >        8       12       17       22       23 </v>
   <v type="int" >       16       17       22       23       27 </v>
   <v type="int" >        8       17       23       26       27 </v>
   <v type="int" >        8        6       12       13       22 </v>
   <v type="int" >       16       12       13       17       22 </v>
   <v type="int" >        8       13       17       22       27 </v>
   <v type="int" >        8       12       13       17       17 </v>
   <v type="int" >        8       13       17       17       18 </v>
   <v type="int" >        8       17       17       18       20 </v>
   <v type="int" >        8       12       17       17       22 </v>
   <v type="int" >        8       17       17       22       27 </v>
   <v type="int" >        8       17       17       20       27 </v>
   <v type="int" >        8        3       11       12       22 </v>
   <v type="int" >       16       11       12       17       22 </v>
   <v type="int" >        8       11       17       22       27 </v>
   <v type="int" >        8        3        8       11       22 </v>
   <v type="int" >       16        8       11       22       23 </v>
   <v type="int" >        8       11       22       23       27 </v>
   <v type="int" >        4        3        4        8        8 </v>
   <v type="int" >       16        3        4        8       11 </v>
   <v type="int" >        8        4        8       11       23 </v>
   <v type="int" >        4        4        8        8       11 </v>
   <v type="int" >        8        4        8        9       23 </v>
   <v type="int" >        8        8        9       11       14 </v>
   <v type="int" >        4        4        9        9       11 </v>
   <v type="int" >        8        9       11       14       23 </v>
   <v type="int" >        4        9        9       10       11 </v>
   <v type="int" >        8       14       15       15       23 </v>
   <v type="int" >        8       15       15       23       25 </v>
   <v type="int" >        8       15       16       19       25 </v>
   <v type="int" >        8       15       15       19       25 </v>
   <v type="int" >        8       15       19       24       25 </v>
   <v type="int" >        8       16       19       25       26 </v>
   <v type="int" >        8       19       25       26       26 </v>
   <v type="int" >        8       19       24       25       26 </v>
   <v type="int" >        8       16       17       20       26 </v>
   <v type="int" >       16       16       19       20       26 </v>
   <v type="int" >       12       19       20       26       26 </v>
   <v type="int" >        8       17       20       26       27 </v>
   <v type="int" >       16       20       26       27       28 </v>
   <v type="int" >       16       20       26       26       28 </v>
   <v type="int" >        8       13       17       18       27 </v>
   <v type="int" >       16       17       18       20       27 </v>
   <v type="int" >        8       18       20       27       28 </v>
   <v type="int" >        8       17       18       20       20 </v>
   <v type="int" >        8       18       20       20       21 </v>
   <v type="int" >       12       20       20       20       21 </v>
   <v type="int" >        8       17       20       20       27 </v>
   <v type="int" >        8       20       20       27       28 </v>
   <v type="int" >        8       20       20       20       28 </v>
   <v type="int" >        8       11       16       17       27 </v>
   <v type="int" >       16       16       17       20       27 </v>
   <v type="int" >        8       16       20       27       28 </v>
   <v type="int" >        8       11       16       23       27 </v>
   <v type="int" >       16       16       23       26       27 </v>
   <v type="int" >        8       16       26       27       28 </v>
   <v type="int" >        8        4       10       11       23 </v>
   <v type="int" >       16       10       11       16       23 </v>
   <v type="int" >        8       10       16       23       26 </v>
   <v type="int" >        8        4        9       10       23 </v>
   <v type="int" >       16        9       10       23       24 </v>
   <v type="int" >        8       10       23       24       26 </v>
   <v type="int" >        4        4        5        9        9 </v>
   <v type="int" >       16        4        5        9       10 </v>
   <v type="int" >       16        5        9       10       24 </v>
   <v type="int" >       12        5        9        9       10 </v>
   <v type="int" >        8        9       10       10       15 </v>
   <v type="int" >        4        5       10       10       10 </v>
   <v type="int" >        8       10       10       15       24 </v>
   <v type="int" >        4        9       10       10       10 </v>
   <v type="int" >        8       15       16       19       24 </v>
   <v type="int" >       16        9       10       16       24 </v>
   <v type="int" >        8       16       19       24       26 </v>
   <v type="int" >        8        9       16       23       24 </v>
   <v type="int" >        8       19       20       20       26 </v>
   <v type="int" >        8       16       20       23       26 </v>
   <v type="int" >       16       20       20       26       28 </v>
   <v type="int" >        8       20       23       26       27 </v>
   <v type="int" >        8       18       20       21       28 </v>
   <v type="int" >       16       20       20       21       28 </v>
   <v type="int" >        8       20       21       27       28 </v>
   <v type="int" >        8       16       19       20       28 </v>
   <v type="int" >        8       19       20       20       28 </v>
   <v type="int" >        8       19       20       27       28 </v>
   <v type="int" >        8       16       19       26       28 </v>
   <v type="int" >        8       19       26       26       28 </v>
   <v type="int" >        8       19       26       27       28 </v>
   <v type="int" >        8       10       15       16       26 </v>
   <v type="int" >       16       15       16       19       26 </v>
   <v type="int" >       12       15       19       26       26 </v>
   <v type="int" >        8       10       15       24       26 </v>
   <v type="int" >       16       15       24       25       26 </v>
   <v type="int" >       16       15       25       26       26 </v>
   <v type="int" >       16        9       10       15       24 </v>
   <v type="int" >        8        9       15       24       25 </v>
   <v type="int" >        8        9       23       24       25 </v>
   <v type="int" >        8        9       10       11       16 </v>
   <v type="int" >        4        4        9       11       11 </v>
   <v type="int" >        8        9       11       16       23 </v>
   <v type="int" >        4        8        9       11       11 </v>
   <v type="int" >        8       16       17       20       23 </v>
   <v type="int" >        8        8       11       17       23 </v>
   <v type="int" >        8       17       20       23       27 </v>
   <v type="int" >        8        8       17       22       23 </v>
   <v type="int" >        8       18       20       21       27 </v>
   <v type="int" >        8       17       18       22       27 </v>
   <v type="int" >        8       16       19       20       27 </v>
   <v type="int" >        8       16       17       22       27 </v>
   <v type="int" >        8       16       19       26       27 </v>
   <v type="int" >        8       16       22       23       27 </v>
   <v type="int" >        8       15       15       19       26 </v>
   <v type="int" >        8       15       16       23       26 </v>
   <v type="int" >        8       15       15       25       26 </v>
   <v type="int" >       24       15       23       24       26 </v>
   <v type="int" >        8        9       14       15       25 </v>
   <v type="int" >        8       14       15       15       25 </v>
   <v type="int" >        8       14       15       24       25 </v>
   <v type="int" >        8        9       14       23       25 </v>
   <v type="int" >        8       14       23       23       25 </v>
   <v type="int" >        8       14       23       24       25 </v>
   <v type="int" >       16        8        9       14       23 </v>
   <v type="int" >       12        8       14       23       23 </v>
   <v type="int" >        8        8       22       23       23 </v>
   <v type="int" >        4        3        4       11       11 </v>
   <v type="int" >        4        3        8       11       11 </v>
   <v type="int" >        8        8       11       12       17 </v>
   <v type="int" >        4        3        8       12       12 </v>
   <v type="int" >        8        8       12       17       22 </v>
   <v type="int" >        8       13       17       18       22 </v>
   <v type="int" >        8        7       12       13       22 </v>
   <v type="int" >        8       11       16       17       22 </v>
   <v type="int" >        8        7       11       12       22 </v>
   <v type="int" >        8       11       16       22       23 </v>
   <v type="int" >        8        7        8       11       22 </v>
   <v type="int" >        8       10       15       16       23 </v>
   <v type="int" >        8        8       10       11       23 </v>
   <v type="int" >        8        8        9       10       23 </v>
   <v type="int" >        8        9       14       15       24 </v>
   <v type="int" >        8        9        9       10       24 </v>
   <v type="int" >        8        9       14       23       24 </v>
   <v type="int" >        8        8        8       14       23 </v>
   <v type="int" >        8        8        8       22       23 </v>
   <v type="int" >        8        7        8        8       22 </v>
   <v type="int" >        4        2        3       12       12 </v>
   <v type="int" >        8        6        7       12       13 </v>
   <v type="int" >        4        2        6        6        7 </v>
   <v type="int" >        8        3        7       11       12 </v>
   <v type="int" >        8        3        7        8       11 </v>
   <v type="int" >        8        4        8       10       11 </v>
   <v type="int" >        8        4        8        9       10 </v>
   <v type="int" >        4        1        2        6        6 </v>
   <v type="int" >        4        6       12       12       12 </v>
   <v type="int" >        4       12       12       12       13 </v>
   <v type="int" >        8       12       12       13       22 </v>
   <v type="int" >        8       11       12       13       22 </v>
   <v type="int" >        4       12       13       22       22 </v>
   <v type="int" >        8       11       13       17       22 </v>
   <v type="int" >        8       13       17       17       22 </v>
   <v type="int" >        4       13       17       22       22 </v>
   <v type="int" >        8       10       11       17       23 </v>
   <v type="int" >       16       11       17       22       23 </v>
   <v type="int" >        8       17       17       22       23 </v>
   <v type="int" >        8       10       16       17       23 </v>
   <v type="int" >       16       16       17       23       27 </v>
   <v type="int" >        8       17       17       23       27 </v>
   <v type="int" >       16       10       16       23       24 </v>
   <v type="int" >        8       16       23       24       27 </v>
   <v type="int" >        8        9       15       16       24 </v>
   <v type="int" >       16       15       16       24       26 </v>
   <v type="int" >        8       16       24       26       27 </v>
   <v type="int" >        8        8        9       15       23 </v>
   <v type="int" >       16        9       15       23       24 </v>
   <v type="int" >        8        8       14       15       23 </v>
   <v type="int" >       16       14       15       23       25 </v>
   <v type="int" >       16       15       23       25       26 </v>
   <v type="int" >        8        7        8       14       22 </v>
   <v type="int" >       16        8       14       22       23 </v>
   <v type="int" >        8       14       22       23       25 </v>
   <v type="int" >        4       11       12       22       22 </v>
   <v type="int" >        4       11       17       22       22 </v>
   <v type="int" >        8       17       22       23       23 </v>
   <v type="int" >        4       11       17       23       23 </v>
   <v type="int" >        8       17       23       23       27 </v>
   <v type="int" >        4       16       17       23       23 </v>
   <v type="int" >        8       23       24       25       27 </v>
   <v type="int" >        8       23       23       25       27 </v>
   <v type="int" >        8       16       23       25       27 </v>
   <v type="int" >        8       24       25       26       27 </v>
   <v type="int" >        8       25       26       26       27 </v>
   <v type="int" >        8       16       25       26       27 </v>
   <v type="int" >        8       23       24       26       26 </v>
   <v type="int" >       16       24       25       26       26 </v>
   <v type="int" >       16       25       26       26       26 </v>
   <v type="int" >       16       23       25       26       26 </v>
   <v type="int" >       32       25       26       26       29 </v>
   <v type="int" >       24       26       26       26       29 </v>
   <v type="int" >        8       22       23       25       27 </v>
   <v type="int" >       16       23       25       26       27 </v>
   <v type="int" >        8       25       26       27       29 </v>
   <v type="int" >        8       22       23       23       27 </v>
   <v type="int" >        8       23       23       26       27 </v>
   <v type="int" >        8       23       23       25       26 </v>
   <v type="int" >        4       10       11       23       23 </v>
   <v type="int" >        4       10       16       23       23 </v>
   <v type="int" >        8       16       23       24       25 </v>
   <v type="int" >        4       10       16       24       24 </v>
   <v type="int" >        4       15       16       24       24 </v>
   <v type="int" >        8       15       24       26       26 </v>
   <v type="int" >        8       26       27       28       29 </v>
   <v type="int" >       16       26       26       28       29 </v>
   <v type="int" >       16       25       26       28       29 </v>
   <v type="int" >        8       23       26       26       27 </v>
   <v type="int" >        8       26       26       27       28 </v>
   <v type="int" >        8       26       26       26       28 </v>
   <v type="int" >       16       23       24       25       26 </v>
   <v type="int" >       16       24       25       26       29 </v>
   <v type="int" >        4        9       10       24       24 </v>
   <v type="int" >        4        9       15       24       24 </v>
   <v type="int" >        4        9       15       23       23 </v>
   <v type="int" >        8       25       26       27       28 </v>
   <v type="int" >        8       14       23       25       27 </v>
   <v type="int" >        8       25       25       26       29 </v>
   <v type="int" >        4        8        9       23       23 </v>
   <v type="int" >        8       14       22       23       27 </v>
   <v type="int" >        4        8       14       22       22 </v>
   <v type="int" >        8       24       25       25       26 </v>
   <v type="int" >        4        7        8       22       22 </v>
   <v type="int" >        4       13       17       17       17 </v>
   <v type="int" >        4       17       17       17       18 </v>
   <v type="int" >        8       17       17       18       27 </v>
   <v type="int" >        8       16       17       18       27 </v>
   <v type="int" >        4       17       18       27       27 </v>
   <v type="int" >        8       16       18       20       27 </v>
   <v type="int" >        8       18       20       20       27 </v>
   <v type="int" >        4       18       20       27       27 </v>
   <v type="int" >        8       15       16       20       26 </v>
   <v type="int" >       16       16       20       26       27 </v>
   <v type="int" >        8       20       20       26       27 </v>
   <v type="int" >        8       15       19       20       26 </v>
   <v type="int" >       16       19       20       26       28 </v>
   <v type="int" >        8       14       15       19       25 </v>
   <v type="int" >       16       15       19       25       26 </v>
   <v type="int" >        8       19       25       26       28 </v>
   <v type="int" >        4       16       17       27       27 </v>
   <v type="int" >        4       16       20       27       27 </v>
   <v type="int" >        8       20       26       26       27 </v>
   <v type="int" >        4       16       20       26       26 </v>
   <v type="int" >        8       19       26       28       29 </v>
   <v type="int" >        4       15       16       26       26 </v>
   <v type="int" >        8       19       25       26       29 </v>
   <v type="int" >        4       15       19       25       25 </v>
   <v type="int" >        4       14       15       25       25 </v>
   <v type="int" >        4       18       20       20       20 </v>
   <v type="int" >        8       19       20       21       28 </v>
   <v type="int" >        4       20       21       28       28 </v>
   <v type="int" >        4       19       20       28       28 </v>
  </varray>
  <i name="volumeweight">      0.00032552 </i>
 </kpoints>
 <parameters>
  <separator name="general" >
   <i type="string" name="SYSTEM">unknown system</i>
   <i type="logical" name="LCOMPAT"> F  </i>
  </separator>
  <separator name="electronic" >
   <i type="string" name="PREC">accura</i>
   <i name="ENMAX">    520.00000000</i>
   <i name="ENAUG">    322.06900000</i>
   <i name="EDIFF">      0.00010000</i>
   <i type="int" name="IALGO">    68</i>
   <i type="int" name="IWAVPR">    11</i>
   <i type="int" name="NBANDS">    16</i>
   <i name="NELECT">      8.00000000</i>
   <i type="int" name="TURBO">     0</i>
   <i type="int" name="IRESTART">     0</i>
   <i type="int" name="NREBOOT">     0</i>
   <i type="int" name="NMIN">     0</i>
   <i name="EREF">      0.00000000</i>
   <separator name="electronic smearing" >
    <i type="int" name="ISMEAR">    -5</i>
    <i name="SIGMA">      0.05000000</i>
    <i name="KSPACING">      0.50000000</i>
    <i type="logical" name="KGAMMA"> T  </i>
   </separator>
   <separator name="electronic projectors" >
    <i type="logical" name="LREAL"> T  </i>
    <v name="ROPT">     -0.00025000</v>
    <i type="int" name="LMAXPAW">  -100</i>
    <i type="int" name="LMAXMIX">     2</i>
    <i type="logical" name="NLSPLINE"> F  </i>
   </separator>
   <separator name="electronic startup" >
    <i type="int" name="ISTART">     0</i>
    <i type="int" name="ICHARG">     1</i>
    <i type="int" name="INIWAV">     1</i>
   </separator>
   <separator name="electronic spin" >
    <i type="int" name="ISPIN">     2</i>
    <i type="logical" name="LNONCOLLINEAR"> F  </i>
    <v name="MAGMOM">      0.60000000      0.60000000</v>
    <i name="NUPDOWN">     -1.00000000</i>
    <i type="logical" name="LSORBIT"> F  </i>
    <v name="SAXIS">      0.00000000      0.00000000      1.00000000</v>
    <i type="logical" name="LSPIRAL"> F  </i>
    <v name="QSPIRAL">      0.00000000      0.00000000      0.00000000</v>
    <i type="logical" name="LZEROZ"> F  </i>
   </separator>
   <separator name="electronic exchange-correlation" >
    <i type="logical" name="LASPH"> F  </i>
    <i type="logical" name="LMETAGGA"> F  </i>
   </separator>
   <separator name="electronic convergence" >
    <i type="int" name="NELM">   100</i>
    <i type="int" name="NELMDL">    -5</i>
    <i type="int" name="NELMIN">     2</i>
    <i name="ENINI">    520.00000000</i>
    <separator name="electronic convergence detail" >
     <i type="logical" name="LDIAG"> T  </i>
     <i type="logical" name="LSUBROT"> F  </i>
     <i name="WEIMIN">      0.00100000</i>
     <i name="EBREAK">      0.00000156</i>
     <i name="DEPER">      0.30000000</i>
     <i type="int" name="NRMM">     4</i>
     <i name="TIME">      0.40000000</i>
    </separator>
   </separator>
   <separator name="electronic mixer" >
    <i name="AMIX">      0.40000000</i>
    <i name="BMIX">      1.00000000</i>
    <i name="AMIN">      0.10000000</i>
    <i name="AMIX_MAG">      1.60000000</i>
    <i name="BMIX_MAG">      1.00000000</i>
    <separator name="electronic mixer details" >
     <i type="int" name="IMIX">     4</i>
     <i type="logical" name="MIXFIRST"> F  </i>
     <i type="int" name="MAXMIX">   -45</i>
     <i name="WC">    100.00000000</i>
     <i type="int" name="INIMIX">     1</i>
     <i type="int" name="MIXPRE">     1</i>
     <i type="int" name="MREMOVE">     5</i>
    </separator>
   </separator>
   <separator name="electronic dipolcorrection" >
    <i type="logical" name="LDIPOL"> F  </i>
    <i type="logical" name="LMONO"> F  </i>
    <i type="int" name="IDIPOL">     0</i>
    <i name="EPSILON">      1.00000000</i>
    <v name="DIPOL">   -100.00000000   -100.00000000   -100.00000000</v>
    <i name="EFIELD">      0.00000000</i>
   </separator>
  </separator>
  <separator name="grids" >
   <i type="int" name="NGX">    30</i>
   <i type="int" name="NGY">    30</i>
   <i type="int" name="NGZ">    30</i>
   <i type="int" name="NGXF">    60</i>
   <i type="int" name="NGYF">    60</i>
   <i type="int" name="NGZF">    60</i>
   <i type="logical" name="ADDGRID"> F  </i>
  </separator>
  <separator name="ionic" >
   <i type="int" name="NSW">    99</i>
   <i type="int" name="IBRION">     2</i>
   <i type="int" name="ISIF">     3</i>
   <i name="PSTRESS">      0.00000000</i>
   <i name="EDIFFG">      0.00100000</i>
   <i type="int" name="NFREE">     1</i>
   <i name="POTIM">      0.50000000</i>
   <i name="SMASS">     -3.00000000</i>
   <i name="SCALEE">      1.00000000</i>
  </separator>
  <separator name="ionic md" >
   <i name="TEBEG">      0.00010000</i>
   <i name="TEEND">      0.00010000</i>
   <i type="int" name="NBLOCK">     1</i>
   <i type="int" name="KBLOCK">    99</i>
   <i type="int" name="NPACO">   256</i>
   <i name="APACO">     16.00000000</i>
  </separator>
  <separator name="symmetry" >
   <i type="int" name="ISYM">     2</i>
   <i name="SYMPREC">      0.00001000</i>
  </separator>
  <separator name="dos" >
   <i type="logical" name="LORBIT"> F  </i>
   <v name="RWIGS">     -1.00000000</v>
   <i type="int" name="NEDOS">   301</i>
   <i name="EMIN">     10.00000000</i>
   <i name="EMAX">    -10.00000000</i>
   <i name="EFERMI">      0.00000000</i>
  </separator>
  <separator name="writing" >
   <i type="int" name="NWRITE">     2</i>
   <i type="logical" name="LWAVE"> F  </i>
   <i type="logical" name="LCHARG"> T  </i>
   <i type="logical" name="LPARD"> F  </i>
   <i type="logical" name="LVTOT"> F  </i>
   <i type="logical" name="LVHAR"> F  </i>
   <i type="logical" name="LELF"> F  </i>
   <i type="logical" name="LOPTICS"> F  </i>
   <v name="STM">      0.00000000      0.00000000      0.00000000      0.00000000      0.00000000      0.00000000      0.00000000</v>
  </separator>
  <separator name="performance" >
   <i type="int" name="NPAR">    16</i>
   <i type="int" name="NSIM">     4</i>
   <i type="int" name="NBLK">    -1</i>
   <i type="logical" name="LPLANE"> T  </i>
   <i type="logical" name="LSCALAPACK"> F  </i>
   <i type="logical" name="LSCAAWARE"> F  </i>
   <i type="logical" name="LSCALU"> F  </i>
   <i type="logical" name="LASYNC"> F  </i>
   <i type="logical" name="LORBITALREAL"> F  </i>
  </separator>
  <separator name="miscellaneous" >
   <i type="int" name="IDIOT">     3</i>
   <i type="logical" name="LMUSIC"> F  </i>
   <v name="POMASS">     28.08500000</v>
   <v name="DARWINR">      0.00000000</v>
   <v name="DARWINV">      1.00000000</v>
   <i type="logical" name="LCORR"> T  </i>
  </separator>
  <i type="logical" name="GGA_COMPAT"> T  </i>
  <i type="logical" name="LBERRY"> F  </i>
  <i type="int" name="ICORELEVEL">     0</i>
  <i type="logical" name="LDAU"> F  </i>
  <i type="int" name="I_CONSTRAINED_M">     0</i>
  <separator name="electronic exchange-correlation" >
   <i type="string" name="GGA">--</i>
   <i type="int" name="VOSKOWN">     0</i>
   <i type="logical" name="LHFCALC"> F  </i>
   <i type="string" name="PRECFOCK"></i>
   <i type="logical" name="LSYMGRAD"> F  </i>
   <i type="logical" name="LHFONE"> F  </i>
   <i type="logical" name="LRHFCALC"> F  </i>
   <i type="logical" name="LTHOMAS"> F  </i>
   <i type="logical" name="LMODELHF"> F  </i>
   <i name="ENCUT4O">     -1.00000000</i>
   <i type="int" name="EXXOEP">     0</i>
   <i type="int" name="FOURORBIT">     0</i>
   <i name="AEXX">      0.00000000</i>
   <i name="HFALPHA">      0.00000000</i>
   <i name="MCALPHA">      0.00000000</i>
   <i name="ALDAX">      1.00000000</i>
   <i name="AGGAX">      1.00000000</i>
   <i name="ALDAC">      1.00000000</i>
   <i name="AGGAC">      1.00000000</i>
   <i type="int" name="NKREDX">     1</i>
   <i type="int" name="NKREDY">     1</i>
   <i type="int" name="NKREDZ">     1</i>
   <i type="logical" name="SHIFTRED"> F  </i>
   <i type="logical" name="ODDONLY"> F  </i>
   <i type="logical" name="EVENONLY"> F  </i>
   <i type="int" name="LMAXFOCK">     0</i>
   <i type="int" name="NMAXFOCKAE">     0</i>
   <i type="logical" name="LFOCKAEDFT"> F  </i>
   <i name="HFSCREEN">      0.00000000</i>
   <i name="HFSCREENC">      0.00000000</i>
   <i type="int" name="NBANDSGWLOW">     0</i>
  </separator>
  <separator name="vdW DFT" >
   <i type="logical" name="LUSE_VDW"> F  </i>
   <i name="Zab_VDW">     -0.84910000</i>
   <i name="PARAM1">      0.12340000</i>
   <i name="PARAM2">      1.00000000</i>
   <i name="PARAM3">      0.00000000</i>
  </separator>
  <separator name="model GW" >
   <i type="int" name="MODEL_GW">     0</i>
   <i name="MODEL_EPS0">     12.01343768</i>
   <i name="MODEL_ALPHA">      1.00000000</i>
  </separator>
  <separator name="linear response parameters" >
   <i type="logical" name="LEPSILON"> F  </i>
   <i type="logical" name="LRPA"> F  </i>
   <i type="logical" name="LNABLA"> F  </i>
   <i type="logical" name="LVEL"> F  </i>
   <i type="int" name="KINTER">     0</i>
   <i name="CSHIFT">      0.10000000</i>
   <i name="OMEGAMAX">     -1.00000000</i>
   <i name="DEG_THRESHOLD">      0.00200000</i>
  </separator>
  <separator name="orbital magnetization" >
   <i type="logical" name="NUCIND"> F  </i>
   <v name="MAGPOS">      0.00000000      0.00000000      0.00000000</v>
   <i type="logical" name="LNICSALL"> T  </i>
   <i type="logical" name="ORBITALMAG"> F  </i>
   <i type="logical" name="LMAGBLOCH"> F  </i>
   <i type="logical" name="LCHIMAG"> F  </i>
   <i type="logical" name="LGAUGE"> T  </i>
   <i type="int" name="MAGATOM">     0</i>
   <v name="MAGDIPOL">      0.00000000      0.00000000      0.00000000</v>
   <v name="AVECCONST">      0.00000000      0.00000000      0.00000000</v>
  </separator>
  <separator name="response functions" >
   <i type="logical" name="LADDER"> F  </i>
   <i type="logical" name="LFXC"> F  </i>
   <i type="logical" name="LHARTREE"> T  </i>
   <i type="int" name="IBSE">     0</i>
   <v type="int" name="KPOINT">    -1     0     0     0</v>
   <i type="logical" name="LTCTE"> F  </i>
   <i type="logical" name="LTETE"> F  </i>
   <i type="logical" name="LTRIPLET"> F  </i>
   <i type="logical" name="LFXCEPS"> F  </i>
   <i type="logical" name="LFXHEG"> F  </i>
   <i type="int" name="NATURALO">     0</i>
   <i type="logical" name="L2ORDER"> F  </i>
   <i type="logical" name="LUSEW"> F  </i>
   <i name="ENCUTGW">     -2.00000000</i>
   <i name="ENCUTGWSOFT">     -2.00000000</i>
   <i name="ENCUTLF">     -1.00000000</i>
   <i type="int" name="LMAXMP2">    -1</i>
   <i name="SCISSOR">      0.00000000</i>
   <i type="int" name="NOMEGA">     0</i>
   <i type="int" name="NOMEGAR">     0</i>
   <i type="int" name="NBANDSGW">    -1</i>
   <i type="int" name="NBANDSO">    -1</i>
   <i type="int" name="NBANDSV">    -1</i>
   <i type="int" name="NELM">   100</i>
   <i type="int" name="NELMHF">     1</i>
   <i type="int" name="DIM">     3</i>
   <i type="int" name="ANTIRES">     0</i>
   <i name="OMEGAMAX">    -30.00000000</i>
   <i name="OMEGAMIN">    -30.00000000</i>
   <i name="OMEGATL">   -200.00000000</i>
   <i type="int" name="OMEGAGRID">     0</i>
   <i name="CSHIFT">     -0.10000000</i>
   <i type="logical" name="SELFENERGY"> F  </i>
   <i type="logical" name="LSPECTRAL"> F  </i>
   <i type="logical" name="LSPECTRALGW"> F  </i>
   <i type="logical" name="LSINGLES"> F  </i>
   <i type="logical" name="LFERMIGW"> F  </i>
   <i type="logical" name="ODDONLYGW"> F  </i>
   <i type="logical" name="EVENONLYGW"> F  </i>
   <i type="int" name="NKREDLFX">     1</i>
   <i type="int" name="NKREDLFY">     1</i>
   <i type="int" name="NKREDLFZ">     1</i>
   <i type="int" name="MAXMEM">  1800</i>
   <i type="int" name="TELESCOPE">     0</i>
   <i type="int" name="TAUPAR">     1</i>
   <i type="int" name="OMEGAPAR">    -1</i>
   <i name="LAMBDA">      1.00000000</i>
  </separator>
  <separator name="External order field" >
   <i name="OFIELD_KAPPA">      0.00000000</i>
   <v name="OFIELD_K">      0.00000000      0.00000000      0.00000000</v>
   <i name="OFIELD_Q6_NEAR">      0.00000000</i>
   <i name="OFIELD_Q6_FAR">      0.00000000</i>
   <i name="OFIELD_A">      0.00000000</i>
  </separator>
 </parameters>
 <atominfo>
  <atoms>       2 </atoms>
  <types>       1 </types>
  <array name="atoms" >
   <dimension dim="1">ion</dimension>
   <field type="string">element</field>
   <field type="int">atomtype</field>
   <set>
    <rc><c>Si</c><c>   1</c></rc>
    <rc><c>Si</c><c>   1</c></rc>
   </set>
  </array>
  <array name="atomtypes" >
   <dimension dim="1">type</dimension>
   <field type="int">atomspertype</field>
   <field type="string">element</field>
   <field>mass</field>
   <field>valence</field>
   <field type="string">pseudopotential</field>
   <set>
    <rc><c>   2</c><c>Si</c><c>     28.08500000</c><c>      4.00000000</c><c> PAW_PBE Si 05Jan2001                   </c></rc>
   </set>
  </array>
 </atominfo>
 <structure name="initialpos" >
  <crystal>
   <varray name="basis" >
    <v>       3.84019800       0.00000000       0.00000000 </v>
    <v>       1.92009900       3.32571000       0.00000000 </v>
    <v>       0.00000000      -2.21713800       3.13550900 </v>
   </varray>
   <i name="volume">     40.04479227 </i>
   <varray name="rec_basis" >
    <v>       0.26040324      -0.15034384      -0.10630907 </v>
    <v>       0.00000000       0.30068767       0.21261813 </v>
    <v>       0.00000000       0.00000000       0.31892749 </v>
   </varray>
  </crystal>
  <varray name="positions" >
   <v>       0.00000000       0.00000000       0.00000000 </v>
   <v>       0.75000000       0.50000000       0.75000000 </v>
  </varray>
 </structure>
 <calculation>
  <scstep>
   <time name="dav">    0.51    0.52</time>
   <time name="total">    0.57    0.60</time>
   <energy>
    <i name="alphaZ">      3.36254244 </i>
    <i name="ewald">   -228.52729335 </i>
    <i name="hartreedc">    -11.00822102 </i>
    <i name="XCdc">    -18.52396975 </i>
    <i name="pawpsdc">     65.91709927 </i>
    <i name="pawaedc">    -30.72587073 </i>
    <i name="eentropy">      0.00000000 </i>
    <i name="bandstr">     12.09210069 </i>
    <i name="atom">    206.13270273 </i>
    <i name="e_fr_energy">     -1.28090971 </i>
    <i name="e_wo_entrp">     -1.28090971 </i>
    <i name="e_0_energy">     -1.28090971 </i>
   </energy>
  </scstep>
  <scstep>
   <time name="dav">    0.74    0.74</time>
   <time name="total">    0.74    0.75</time>
   <energy>
    <i name="e_fr_energy">    -10.76737930 </i>
    <i name="e_wo_entrp">    -10.76737930 </i>
    <i name="e_0_energy">    -10.76737930 </i>
   </energy>
  </scstep>
  <scstep>
   <time name="dav">    0.56    0.56</time>
   <time name="total">    0.56    0.56</time>
   <energy>
    <i name="e_fr_energy">    -10.83539266 </i>
    <i name="e_wo_entrp">    -10.83539266 </i>
    <i name="e_0_energy">    -10.83539266 </i>
   </energy>
  </scstep>
  <scstep>
   <time name="dav">    1.03    1.03</time>
   <time name="total">    1.04    1.04</time>
   <energy>
    <i name="e_fr_energy">    -10.83560217 </i>
    <i name="e_wo_entrp">    -10.83560217 </i>
    <i name="e_0_energy">    -10.83560217 </i>
   </energy>
  </scstep>
  <scstep>
   <time name="dav">    0.55    0.55</time>
   <time name="total">    0.60    0.62</time>
   <energy>
    <i name="e_fr_energy">    -10.83560217 </i>
    <i name="e_wo_entrp">    -10.83560217 </i>
    <i name="e_0_energy">    -10.83560217 </i>
   </energy>
  </scstep>
  <scstep>
   <time name="diag">    0.09    0.11</time>
   <time name="diis">    0.30    0.30</time>
   <time name="orth">    0.01    0.01</time>
   <time name="total">    0.47    0.49</time>
   <energy>
    <i name="e_fr_energy">    -10.88533158 </i>
    <i name="e_wo_entrp">    -10.88533158 </i>
    <i name="e_0_energy">    -10.88533158 </i>
   </energy>
  </scstep>
  <scstep>
   <time name="diag">    0.08    0.08</time>
   <time name="diis">    0.31    0.31</time>
   <time name="orth">    0.01    0.01</time>
   <time name="total">    0.47    0.47</time>
   <energy>
    <i name="e_fr_energy">    -10.82449849 </i>
    <i name="e_wo_entrp">    -10.82449849 </i>
    <i name="e_0_energy">    -10.82449849 </i>
   </energy>
  </scstep>
  <scstep>
   <time name="diag">    0.08    0.08</time>
   <time name="diis">    0.31    0.31</time>
   <time name="orth">    0.01    0.01</time>
   <time name="total">    0.47    0.47</time>
   <energy>
    <i name="e_fr_energy">    -10.84227378 </i>
    <i name="e_wo_entrp">    -10.84227378 </i>
    <i name="e_0_energy">    -10.84227378 </i>
   </energy>
  </scstep>
  <scstep>
   <time name="diag">    0.08    0.08</time>
   <time name="diis">    0.30    0.30</time>
   <time name="orth">    0.01    0.01</time>
   <time name="total">    0.46    0.46</time>
   <energy>
    <i name="e_fr_energy">    -10.84188000 </i>
    <i name="e_wo_entrp">    -10.84188000 </i>
    <i name="e_0_energy">    -10.84188000 </i>
   </energy>
  </scstep>
  <scstep>
   <time name="diag">    0.08    0.08</time>
   <time name="diis">    0.30    0.30</time>
   <time name="orth">    0.01    0.01</time>
   <time name="total">    0.41    0.41</time>
   <energy>
    <i name="alphaZ">      3.36254244 </i>
    <i name="ewald">   -228.52729335 </i>
    <i name="hartreedc">    -14.91803755 </i>
    <i name="XCdc">    -17.96487983 </i>
    <i name="pawpsdc">     74.29704252 </i>
    <i name="pawaedc">    -39.33372275 </i>
    <i name="eentropy">      0.00000000 </i>
    <i name="bandstr">      6.10981365 </i>
    <i name="atom">    206.13270273 </i>
    <i name="e_fr_energy">    -10.84183214 </i>
    <i name="e_wo_entrp">    -10.84183214 </i>
    <i name="e_0_energy">    -10.84183214 </i>
   </energy>
  </scstep>
  <structure>
   <crystal>
    <varray name="basis" >
     <v>       3.84019800       0.00000000       0.00000000 </v>
     <v>       1.92009900       3.32571000       0.00000000 </v>
     <v>       0.00000000      -2.21713800       3.13550900 </v>
    </varray>
    <i name="volume">     40.04479227 </i>
    <varray name="rec_basis" >
     <v>       0.26040324      -0.15034384      -0.10630907 </v>
     <v>       0.00000000       0.30068767       0.21261813 </v>
     <v>       0.00000000       0.00000000       0.31892749 </v>
    </varray>
   </crystal>
   <varray name="positions" >
    <v>       0.00000000       0.00000000       0.00000000 </v>
    <v>       0.75000000       0.50000000       0.75000000 </v>
   </varray>
  </structure>
  <varray name="forces" >
   <v>      -0.00000000       0.00000000      -0.00000000 </v>
   <v>       0.00000000      -0.00000000       0.00000000 </v>
  </varray>
  <varray name="stress" >
   <v>      19.59311093       0.00000000       0.00000000 </v>
   <v>       0.00000000      19.59312243       0.00001250 </v>
   <v>      -0.00000000       0.00001250      19.59311671 </v>
  </varray>
  <energy>
   <i name="e_fr_energy">    -10.84183214 </i>
   <i name="e_wo_entrp">    -10.84183214 </i>
   <i name="e_0_energy">      0.00000000 </i>
  </energy>
  <time name="totalsc">    7.02    7.14</time>
 </calculation>
 <calculation>
  <scstep>
   <time name="dav">    0.53    0.53</time>
   <time name="total">    0.61    0.61</time>
   <energy>
    <i name="alphaZ">      3.24614347 </i>
    <i name="ewald">   -225.85933995 </i>
    <i name="hartreedc">    -14.75352183 </i>
    <i name="XCdc">    -18.13649443 </i>
    <i name="pawpsdc">     74.29638043 </i>
    <i name="pawaedc">    -39.33343544 </i>
    <i name="eentropy">      0.00000000 </i>
    <i name="bandstr">      3.55617175 </i>
    <i name="atom">    206.13270273 </i>
    <i name="e_fr_energy">    -10.85139328 </i>
    <i name="e_wo_entrp">    -10.85139328 </i>
    <i name="e_0_energy">    -10.85139328 </i>
   </energy>
  </scstep>
  <scstep>
   <time name="diag">    0.08    0.08</time>
   <time name="diis">    0.31    0.31</time>
   <time name="orth">    0.01    0.01</time>
   <time name="total">    0.47    0.48</time>
   <energy>
    <i name="e_fr_energy">    -10.84677062 </i>
    <i name="e_wo_entrp">    -10.84677062 </i>
    <i name="e_0_energy">    -10.84677062 </i>
   </energy>
  </scstep>
  <scstep>
   <time name="diag">    0.08    0.08</time>
   <time name="diis">    0.31    0.31</time>
   <time name="orth">    0.01    0.01</time>
   <time name="total">    0.47    0.47</time>
   <energy>
    <i name="e_fr_energy">    -10.84439917 </i>
    <i name="e_wo_entrp">    -10.84439917 </i>
    <i name="e_0_energy">    -10.84439917 </i>
   </energy>
  </scstep>
  <scstep>
   <time name="diag">    0.08    0.08</time>
   <time name="diis">    0.27    0.27</time>
   <time name="orth">    0.01    0.01</time>
   <time name="total">    0.39    0.39</time>
   <energy>
    <i name="alphaZ">      3.24614347 </i>
    <i name="ewald">   -225.85933995 </i>
    <i name="hartreedc">    -15.35575910 </i>
    <i name="XCdc">    -18.12323912 </i>
    <i name="pawpsdc">     73.23395467 </i>
    <i name="pawaedc">    -38.24369935 </i>
    <i name="eentropy">      0.00000000 </i>
    <i name="bandstr">      4.12482246 </i>
    <i name="atom">    206.13270273 </i>
    <i name="e_fr_energy">    -10.84441418 </i>
    <i name="e_wo_entrp">    -10.84441418 </i>
    <i name="e_0_energy">    -10.84441418 </i>
   </energy>
  </scstep>
  <structure>
   <crystal>
    <varray name="basis" >
     <v>       3.88556015       0.00000000       0.00000000 </v>
     <v>       1.94278008       3.36499481       0.00000003 </v>
     <v>      -0.00000000      -2.24332783       3.17254704 </v>
    </varray>
    <i name="volume">     41.48070309 </i>
    <varray name="rec_basis" >
     <v>       0.25736315      -0.14858864      -0.10506795 </v>
     <v>      -0.00000000       0.29717728       0.21013591 </v>
     <v>      -0.00000000      -0.00000000       0.31520415 </v>
    </varray>
   </crystal>
   <varray name="positions" >
    <v>      -0.00000000       0.00000000      -0.00000000 </v>
    <v>       0.75000000       0.50000000       0.75000000 </v>
   </varray>
  </structure>
  <varray name="forces" >
   <v>      -0.00000000      -0.00000000      -0.00000000 </v>
   <v>       0.00000000       0.00000000       0.00000000 </v>
  </varray>
  <varray name="stress" >
   <v>     -12.56190616       0.00000000      -0.00000000 </v>
   <v>      -0.00000000     -12.56191371      -0.00000820 </v>
   <v>      -0.00000000      -0.00000820     -12.56190995 </v>
  </varray>
  <energy>
   <i name="e_fr_energy">    -10.84441418 </i>
   <i name="e_wo_entrp">    -10.84441418 </i>
   <i name="e_0_energy">      0.00000000 </i>
  </energy>
  <time name="totalsc">    2.76    2.76</time>
 </calculation>
 <calculation>
  <scstep>
   <time name="dav">    0.68    0.69</time>
   <time name="total">    0.76    0.76</time>
   <energy>
    <i name="alphaZ">      3.29194226 </i>
    <i name="ewald">   -226.91657537 </i>
    <i name="hartreedc">    -15.42725501 </i>
    <i name="XCdc">    -18.05667649 </i>
    <i name="pawpsdc">     73.16265756 </i>
    <i name="pawaedc">    -38.16953402 </i>
    <i name="eentropy">      0.00000000 </i>
    <i name="bandstr">      5.13493488 </i>
    <i name="atom">    206.13270273 </i>
    <i name="e_fr_energy">    -10.84780344 </i>
    <i name="e_wo_entrp">    -10.84780344 </i>
    <i name="e_0_energy">    -10.84780344 </i>
   </energy>
  </scstep>
  <scstep>
   <time name="diag">    0.08    0.08</time>
   <time name="diis">    0.30    0.30</time>
   <time name="orth">    0.01    0.01</time>
   <time name="total">    0.46    0.46</time>
   <energy>
    <i name="e_fr_energy">    -10.84707304 </i>
    <i name="e_wo_entrp">    -10.84707304 </i>
    <i name="e_0_energy">    -10.84707304 </i>
   </energy>
  </scstep>
  <scstep>
   <time name="diag">    0.08    0.08</time>
   <time name="diis">    0.31    0.30</time>
   <time name="orth">    0.01    0.01</time>
   <time name="total">    0.46    0.46</time>
   <energy>
    <i name="e_fr_energy">    -10.84670839 </i>
    <i name="e_wo_entrp">    -10.84670839 </i>
    <i name="e_0_energy">    -10.84670839 </i>
   </energy>
  </scstep>
  <scstep>
   <time name="diag">    0.08    0.08</time>
   <time name="diis">    0.21    0.21</time>
   <time name="orth">    0.01    0.01</time>
   <time name="total">    0.33    0.33</time>
   <energy>
    <i name="alphaZ">      3.29194226 </i>
    <i name="ewald">   -226.91657537 </i>
    <i name="hartreedc">    -15.18829110 </i>
    <i name="XCdc">    -18.06107641 </i>
    <i name="pawpsdc">     73.59204849 </i>
    <i name="pawaedc">    -38.60989416 </i>
    <i name="eentropy">      0.00000000 </i>
    <i name="bandstr">      4.91242861 </i>
    <i name="atom">    206.13270273 </i>
    <i name="e_fr_energy">    -10.84671495 </i>
    <i name="e_wo_entrp">    -10.84671495 </i>
    <i name="e_0_energy">    -10.84671495 </i>
   </energy>
  </scstep>
  <structure>
   <crystal>
    <varray name="basis" >
     <v>       3.86745680       0.00000000       0.00000000 </v>
     <v>       1.93372840       3.34931684       0.00000002 </v>
     <v>      -0.00000000      -2.23287586       3.15776572 </v>
    </varray>
    <i name="volume">     40.90360739 </i>
    <varray name="rec_basis" >
     <v>       0.25856785      -0.14928417      -0.10555977 </v>
     <v>      -0.00000000       0.29856835       0.21111954 </v>
     <v>      -0.00000000      -0.00000000       0.31667960 </v>
    </varray>
   </crystal>
   <varray name="positions" >
    <v>      -0.00000000       0.00000000      -0.00000000 </v>
    <v>       0.75000000       0.50000000       0.75000000 </v>
   </varray>
  </structure>
  <varray name="forces" >
   <v>      -0.00000000      -0.00000000      -0.00000000 </v>
   <v>       0.00000000       0.00000000       0.00000000 </v>
  </varray>
  <varray name="stress" >
   <v>      -0.13706716      -0.00000000      -0.00000000 </v>
   <v>      -0.00000000      -0.13706724      -0.00000009 </v>
   <v>       0.00000000      -0.00000009      -0.13706720 </v>
  </varray>
  <energy>
   <i name="e_fr_energy">    -10.84671495 </i>
   <i name="e_wo_entrp">    -10.84671495 </i>
   <i name="e_0_energy">      0.00000000 </i>
  </energy>
  <time name="totalsc">    2.76    2.77</time>
  <eigenvalues>
   <array>
    <dimension dim="1">band</dimension>
    <dimension dim="2">kpoint</dimension>
    <dimension dim="3">spin</dimension>
    <field>eigene</field>
    <field>occ</field>
    <set>
     <set comment="spin 1">
      <set comment="kpoint 1">
       <r>   -6.1993    1.0000 </r>
       <r>    5.6132    1.0000 </r>
       <r>    5.6132    1.0000 </r>
       <r>    5.6132    1.0000 </r>
       <r>    8.1694    0.0000 </r>
       <r>    8.1694    0.0000 </r>
       <r>    8.1694    0.0000 </r>
       <r>    8.7429    0.0000 </r>
       <r>   13.3218    0.0000 </r>
       <r>   13.3218    0.0000 </r>
       <r>   13.4913    0.0000 </r>
       <r>   16.7942    0.0000 </r>
       <r>   16.7942    0.0000 </r>
       <r>   16.7942    0.0000 </r>
       <r>   20.8878    0.0000 </r>
       <r>   28.4642    0.0000 </r>
      </set>
      <set comment="kpoint 2">
       <r>   -5.9989    1.0000 </r>
       <r>    4.0225    1.0000 </r>
       <r>    5.3309    1.0000 </r>
       <r>    5.3309    1.0000 </r>
       <r>    8.0551    0.0000 </r>
       <r>    8.5848    0.0000 </r>
       <r>    8.5848    0.0000 </r>
       <r>   10.1430    0.0000 </r>
       <r>   12.8491    0.0000 </r>
       <r>   12.8491    0.0000 </r>
       <r>   14.2666    0.0000 </r>
       <r>   16.2412    0.0000 </r>
       <r>   17.9390    0.0000 </r>
       <r>   17.9390    0.0000 </r>
       <r>   22.1011    0.0000 </r>
       <r>   26.4561    0.0000 </r>
      </set>
      <set comment="kpoint 3">
       <r>   -5.4147    1.0000 </r>
       <r>    1.7275    1.0000 </r>
       <r>    4.8683    1.0000 </r>
       <r>    4.8683    1.0000 </r>
       <r>    7.5714    0.0000 </r>
       <r>    9.1026    0.0000 </r>
       <r>    9.1026    0.0000 </r>
       <r>   12.3618    0.0000 </r>
       <r>   12.8001    0.0000 </r>
       <r>   12.8001    0.0000 </r>
       <r>   14.5431    0.0000 </r>
       <r>   17.3240    0.0000 </r>
       <r>   20.1250    0.0000 </r>
       <r>   20.1250    0.0000 </r>
       <r>   23.2900    0.0000 </r>
       <r>   23.2940    0.0000 </r>
      </set>
      <set comment="kpoint 4">
       <r>   -4.5405    1.0000 </r>
       <r>   -0.2562    1.0000 </r>
       <r>    4.5456    1.0000 </r>
       <r>    4.5456    1.0000 </r>
       <r>    7.2069    0.0000 </r>
       <r>    9.0660    0.0000 </r>
       <r>    9.0660    0.0000 </r>
       <r>   13.4510    0.0000 </r>
       <r>   14.1516    0.0000 </r>
       <r>   14.1516    0.0000 </r>
       <r>   15.1234    0.0000 </r>
       <r>   19.2319    0.0000 </r>
       <r>   19.2319    0.0000 </r>
       <r>   19.4729    0.0000 </r>
       <r>   22.0711    0.0000 </r>
       <r>   23.9830    0.0000 </r>
      </set>
      <set comment="kpoint 5">
       <r>   -3.9216    1.0000 </r>
       <r>   -1.2538    1.0000 </r>
       <r>    4.4350    1.0000 </r>
       <r>    4.4350    1.0000 </r>
       <r>    7.0787    0.0000 </r>
       <r>    8.9625    0.0000 </r>
       <r>    8.9625    0.0000 </r>
       <r>   13.3160    0.0000 </r>
       <r>   16.1074    0.0000 </r>
       <r>   16.1074    0.0000 </r>
       <r>   16.7930    0.0000 </r>
       <r>   16.8308    0.0000 </r>
       <r>   16.8308    0.0000 </r>
       <r>   18.3489    0.0000 </r>
       <r>   24.7508    0.0000 </r>
       <r>   25.3581    0.0000 </r>
      </set>
      <set comment="kpoint 6">
       <r>   -5.9314    1.0000 </r>
       <r>    4.2607    1.0000 </r>
       <r>    4.8269    1.0000 </r>
       <r>    4.8269    1.0000 </r>
       <r>    7.6286    0.0000 </r>
       <r>    9.2841    0.0000 </r>
       <r>    9.2841    0.0000 </r>
       <r>    9.8303    0.0000 </r>
       <r>   12.0970    0.0000 </r>
       <r>   13.6200    0.0000 </r>
       <r>   14.5610    0.0000 </r>
       <r>   17.2606    0.0000 </r>
       <r>   17.2606    0.0000 </r>
       <r>   17.7395    0.0000 </r>
       <r>   22.6775    0.0000 </r>
       <r>   25.9746    0.0000 </r>
      </set>
      <set comment="kpoint 7">
       <r>   -5.6689    1.0000 </r>
       <r>    2.9388    1.0000 </r>
       <r>    4.0247    1.0000 </r>
       <r>    5.3235    1.0000 </r>
       <r>    8.5804    0.0000 </r>
       <r>    8.7216    0.0000 </r>
       <r>    8.9437    0.0000 </r>
       <r>   11.0416    0.0000 </r>
       <r>   11.9692    0.0000 </r>
       <r>   13.5777    0.0000 </r>
       <r>   15.2686    0.0000 </r>
       <r>   16.7270    0.0000 </r>
       <r>   17.8904    0.0000 </r>
       <r>   19.9697    0.0000 </r>
       <r>   23.1283    0.0000 </r>
       <r>   23.5774    0.0000 </r>
      </set>
      <set comment="kpoint 8">
       <r>   -4.9730    1.0000 </r>
       <r>    1.0325    1.0000 </r>
       <r>    3.3474    1.0000 </r>
       <r>    4.8520    1.0000 </r>
       <r>    8.2679    0.0000 </r>
       <r>    9.2740    0.0000 </r>
       <r>    9.4485    0.0000 </r>
       <r>   11.8234    0.0000 </r>
       <r>   12.0892    0.0000 </r>
       <r>   15.3576    0.0000 </r>
       <r>   15.5700    0.0000 </r>
       <r>   17.9146    0.0000 </r>
       <r>   19.4640    0.0000 </r>
       <r>   20.9082    0.0000 </r>
       <r>   21.8370    0.0000 </r>
       <r>   23.4172    0.0000 </r>
      </set>
      <set comment="kpoint 9">
       <r>   -4.0717    1.0000 </r>
       <r>   -0.6824    1.0000 </r>
       <r>    3.1931    1.0000 </r>
       <r>    4.3709    1.0000 </r>
       <r>    7.9250    0.0000 </r>
       <r>    9.2208    0.0000 </r>
       <r>    9.4768    0.0000 </r>
       <r>   13.4398    0.0000 </r>
       <r>   13.6712    0.0000 </r>
       <r>   14.7473    0.0000 </r>
       <r>   16.6889    0.0000 </r>
       <r>   17.8927    0.0000 </r>
       <r>   19.7376    0.0000 </r>
       <r>   20.0953    0.0000 </r>
       <r>   22.3038    0.0000 </r>
       <r>   24.0687    0.0000 </r>
      </set>
      <set comment="kpoint 10">
       <r>   -3.8346    1.0000 </r>
       <r>   -1.0435    1.0000 </r>
       <r>    3.3682    1.0000 </r>
       <r>    4.0818    1.0000 </r>
       <r>    7.7759    0.0000 </r>
       <r>    9.1015    0.0000 </r>
       <r>    9.7063    0.0000 </r>
       <r>   12.9169    0.0000 </r>
       <r>   14.5564    0.0000 </r>
       <r>   16.0287    0.0000 </r>
       <r>   17.0132    0.0000 </r>
       <r>   17.1496    0.0000 </r>
       <r>   17.9346    0.0000 </r>
       <r>   20.4425    0.0000 </r>
       <r>   23.7151    0.0000 </r>
       <r>   25.0750    0.0000 </r>
      </set>
      <set comment="kpoint 11">
       <r>   -4.6732    1.0000 </r>
       <r>    0.3864    1.0000 </r>
       <r>    3.8051    1.0000 </r>
       <r>    4.0598    1.0000 </r>
       <r>    7.8411    0.0000 </r>
       <r>    9.2049    0.0000 </r>
       <r>   10.0541    0.0000 </r>
       <r>   11.0523    0.0000 </r>
       <r>   14.8818    0.0000 </r>
       <r>   14.8934    0.0000 </r>
       <r>   15.4020    0.0000 </r>
       <r>   18.8819    0.0000 </r>
       <r>   18.8946    0.0000 </r>
       <r>   20.6506    0.0000 </r>
       <r>   22.1490    0.0000 </r>
       <r>   23.0543    0.0000 </r>
      </set>
      <set comment="kpoint 12">
       <r>   -5.4714    1.0000 </r>
       <r>    2.4077    1.0000 </r>
       <r>    4.3247    1.0000 </r>
       <r>    4.3883    1.0000 </r>
       <r>    7.7582    0.0000 </r>
       <r>    9.2366    0.0000 </r>
       <r>   10.0396    0.0000 </r>
       <r>   10.3518    0.0000 </r>
       <r>   12.9716    0.0000 </r>
       <r>   13.7811    0.0000 </r>
       <r>   15.5483    0.0000 </r>
       <r>   17.1099    0.0000 </r>
       <r>   18.6525    0.0000 </r>
       <r>   19.9008    0.0000 </r>
       <r>   23.0234    0.0000 </r>
       <r>   23.4844    0.0000 </r>
      </set>
      <set comment="kpoint 13">
       <r>   -5.1371    1.0000 </r>
       <r>    2.0947    1.0000 </r>
       <r>    3.7651    1.0000 </r>
       <r>    3.7651    1.0000 </r>
       <r>    6.7652    0.0000 </r>
       <r>    8.7491    0.0000 </r>
       <r>   11.3015    0.0000 </r>
       <r>   11.3015    0.0000 </r>
       <r>   13.4787    0.0000 </r>
       <r>   14.5129    0.0000 </r>
       <r>   16.9138    0.0000 </r>
       <r>   18.5291    0.0000 </r>
       <r>   18.5291    0.0000 </r>
       <r>   19.2417    0.0000 </r>
       <r>   22.8299    0.0000 </r>
       <r>   22.8299    0.0000 </r>
      </set>
      <set comment="kpoint 14">
       <r>   -4.1959    1.0000 </r>
       <r>    0.1744    1.0000 </r>
       <r>    1.9454    1.0000 </r>
       <r>    4.3112    1.0000 </r>
       <r>    8.0508    0.0000 </r>
       <r>   10.3608    0.0000 </r>
       <r>   10.6963    0.0000 </r>
       <r>   11.6530    0.0000 </r>
       <r>   12.0671    0.0000 </r>
       <r>   15.1333    0.0000 </r>
       <r>   18.1063    0.0000 </r>
       <r>   18.6405    0.0000 </r>
       <r>   18.9563    0.0000 </r>
       <r>   22.1168    0.0000 </r>
       <r>   22.4944    0.0000 </r>
       <r>   22.8122    0.0000 </r>
      </set>
      <set comment="kpoint 15">
       <r>   -3.3392    1.0000 </r>
       <r>   -0.9593    1.0000 </r>
       <r>    1.7046    1.0000 </r>
       <r>    3.7652    1.0000 </r>
       <r>    7.4695    0.0000 </r>
       <r>   11.0140    0.0000 </r>
       <r>   11.0549    0.0000 </r>
       <r>   12.4956    0.0000 </r>
       <r>   13.5043    0.0000 </r>
       <r>   13.5603    0.0000 </r>
       <r>   18.0912    0.0000 </r>
       <r>   20.2927    0.0000 </r>
       <r>   20.5043    0.0000 </r>
       <r>   21.4357    0.0000 </r>
       <r>   21.8893    0.0000 </r>
       <r>   23.7906    0.0000 </r>
      </set>
      <set comment="kpoint 16">
       <r>   -3.5363    1.0000 </r>
       <r>   -0.7095    1.0000 </r>
       <r>    2.1518    1.0000 </r>
       <r>    3.4541    1.0000 </r>
       <r>    7.1556    0.0000 </r>
       <r>   10.0451    0.0000 </r>
       <r>   11.2580    0.0000 </r>
       <r>   11.4892    0.0000 </r>
       <r>   15.6980    0.0000 </r>
       <r>   16.0724    0.0000 </r>
       <r>   17.6606    0.0000 </r>
       <r>   18.1317    0.0000 </r>
       <r>   18.4873    0.0000 </r>
       <r>   22.2661    0.0000 </r>
       <r>   23.1668    0.0000 </r>
       <r>   23.9757    0.0000 </r>
      </set>
      <set comment="kpoint 17">
       <r>   -4.4408    1.0000 </r>
       <r>    0.6983    1.0000 </r>
       <r>    2.9995    1.0000 </r>
       <r>    3.4522    1.0000 </r>
       <r>    6.9847    0.0000 </r>
       <r>    8.5166    0.0000 </r>
       <r>   11.5204    0.0000 </r>
       <r>   11.8190    0.0000 </r>
       <r>   15.5358    0.0000 </r>
       <r>   15.5805    0.0000 </r>
       <r>   17.1595    0.0000 </r>
       <r>   18.6973    0.0000 </r>
       <r>   19.2455    0.0000 </r>
       <r>   20.2861    0.0000 </r>
       <r>   21.3704    0.0000 </r>
       <r>   22.5631    0.0000 </r>
      </set>
      <set comment="kpoint 18">
       <r>   -3.8490    1.0000 </r>
       <r>   -0.0986    1.0000 </r>
       <r>    3.0613    1.0000 </r>
       <r>    3.0613    1.0000 </r>
       <r>    6.2644    0.0000 </r>
       <r>    7.1899    0.0000 </r>
       <r>   13.5486    0.0000 </r>
       <r>   13.5486    0.0000 </r>
       <r>   15.9950    0.0000 </r>
       <r>   16.0920    0.0000 </r>
       <r>   18.4955    0.0000 </r>
       <r>   18.4955    0.0000 </r>
       <r>   19.0737    0.0000 </r>
       <r>   20.6684    0.0000 </r>
       <r>   21.4575    0.0000 </r>
       <r>   22.2997    0.0000 </r>
      </set>
      <set comment="kpoint 19">
       <r>   -2.5470    1.0000 </r>
       <r>   -1.5499    1.0000 </r>
       <r>    1.4143    1.0000 </r>
       <r>    3.2382    1.0000 </r>
       <r>    6.8481    0.0000 </r>
       <r>    9.7253    0.0000 </r>
       <r>   12.9921    0.0000 </r>
       <r>   13.5283    0.0000 </r>
       <r>   13.6935    0.0000 </r>
       <r>   14.0933    0.0000 </r>
       <r>   20.1116    0.0000 </r>
       <r>   20.3771    0.0000 </r>
       <r>   20.9044    0.0000 </r>
       <r>   21.1417    0.0000 </r>
       <r>   21.3499    0.0000 </r>
       <r>   22.4543    0.0000 </r>
      </set>
      <set comment="kpoint 20">
       <r>   -2.9700    1.0000 </r>
       <r>   -1.1648    1.0000 </r>
       <r>    2.2562    1.0000 </r>
       <r>    2.9861    1.0000 </r>
       <r>    6.5450    0.0000 </r>
       <r>    7.5988    0.0000 </r>
       <r>   13.7858    0.0000 </r>
       <r>   13.8413    0.0000 </r>
       <r>   16.2295    0.0000 </r>
       <r>   16.3313    0.0000 </r>
       <r>   17.8277    0.0000 </r>
       <r>   18.2475    0.0000 </r>
       <r>   20.3521    0.0000 </r>
       <r>   20.4165    0.0000 </r>
       <r>   21.4108    0.0000 </r>
       <r>   24.2070    0.0000 </r>
      </set>
      <set comment="kpoint 21">
       <r>   -2.1321    1.0000 </r>
       <r>   -2.1321    1.0000 </r>
       <r>    2.8198    1.0000 </r>
       <r>    2.8198    1.0000 </r>
       <r>    6.3657    0.0000 </r>
       <r>    6.3657    0.0000 </r>
       <r>   15.5463    0.0000 </r>
       <r>   15.5463    0.0000 </r>
       <r>   16.5196    0.0000 </r>
       <r>   16.5196    0.0000 </r>
       <r>   18.0546    0.0000 </r>
       <r>   18.0546    0.0000 </r>
       <r>   18.4121    0.0000 </r>
       <r>   18.4121    0.0000 </r>
       <r>   24.2883    0.0000 </r>
       <r>   24.2884    0.0000 </r>
      </set>
      <set comment="kpoint 22">
       <r>   -4.8949    1.0000 </r>
       <r>    1.3452    1.0000 </r>
       <r>    2.9620    1.0000 </r>
       <r>    4.2134    1.0000 </r>
       <r>    8.0564    0.0000 </r>
       <r>    9.4390    0.0000 </r>
       <r>    9.8166    0.0000 </r>
       <r>   11.0532    0.0000 </r>
       <r>   13.3252    0.0000 </r>
       <r>   15.7166    0.0000 </r>
       <r>   16.5771    0.0000 </r>
       <r>   17.6457    0.0000 </r>
       <r>   19.3537    0.0000 </r>
       <r>   20.5532    0.0000 </r>
       <r>   21.3150    0.0000 </r>
       <r>   23.6267    0.0000 </r>
      </set>
      <set comment="kpoint 23">
       <r>   -4.0257    1.0000 </r>
       <r>   -0.1738    1.0000 </r>
       <r>    2.3581    1.0000 </r>
       <r>    3.7262    1.0000 </r>
       <r>    8.4775    0.0000 </r>
       <r>    9.1428    0.0000 </r>
       <r>   10.5906    0.0000 </r>
       <r>   11.4908    0.0000 </r>
       <r>   14.5429    0.0000 </r>
       <r>   15.2390    0.0000 </r>
       <r>   17.5153    0.0000 </r>
       <r>   18.3599    0.0000 </r>
       <r>   19.6835    0.0000 </r>
       <r>   20.6034    0.0000 </r>
       <r>   22.7076    0.0000 </r>
       <r>   23.6102    0.0000 </r>
      </set>
      <set comment="kpoint 24">
       <r>   -3.3918    1.0000 </r>
       <r>   -1.0929    1.0000 </r>
       <r>    2.2267    1.0000 </r>
       <r>    3.5033    1.0000 </r>
       <r>    8.6364    0.0000 </r>
       <r>    8.7600    0.0000 </r>
       <r>   11.4591    0.0000 </r>
       <r>   12.6791    0.0000 </r>
       <r>   12.9192    0.0000 </r>
       <r>   16.1205    0.0000 </r>
       <r>   17.1648    0.0000 </r>
       <r>   17.8867    0.0000 </r>
       <r>   20.8963    0.0000 </r>
       <r>   21.0101    0.0000 </r>
       <r>   23.5250    0.0000 </r>
       <r>   23.8677    0.0000 </r>
      </set>
      <set comment="kpoint 25">
       <r>   -3.1461    1.0000 </r>
       <r>   -0.9042    1.0000 </r>
       <r>    1.4843    1.0000 </r>
       <r>    3.0888    1.0000 </r>
       <r>    8.4780    0.0000 </r>
       <r>   10.1275    0.0000 </r>
       <r>   10.7788    0.0000 </r>
       <r>   12.5756    0.0000 </r>
       <r>   13.3780    0.0000 </r>
       <r>   14.7587    0.0000 </r>
       <r>   19.5481    0.0000 </r>
       <r>   19.7521    0.0000 </r>
       <r>   20.0868    0.0000 </r>
       <r>   21.6924    0.0000 </r>
       <r>   21.9527    0.0000 </r>
       <r>   23.7479    0.0000 </r>
      </set>
      <set comment="kpoint 26">
       <r>   -2.8025    1.0000 </r>
       <r>   -1.2620    1.0000 </r>
       <r>    1.6466    1.0000 </r>
       <r>    2.7223    1.0000 </r>
       <r>    8.0088    0.0000 </r>
       <r>    9.8824    0.0000 </r>
       <r>   10.8250    0.0000 </r>
       <r>   12.9640    0.0000 </r>
       <r>   13.9200    0.0000 </r>
       <r>   16.5720    0.0000 </r>
       <r>   17.6834    0.0000 </r>
       <r>   19.7983    0.0000 </r>
       <r>   20.7973    0.0000 </r>
       <r>   21.3962    0.0000 </r>
       <r>   22.9743    0.0000 </r>
       <r>   23.7951    0.0000 </r>
      </set>
      <set comment="kpoint 27">
       <r>   -3.6558    1.0000 </r>
       <r>   -0.3138    1.0000 </r>
       <r>    2.3265    1.0000 </r>
       <r>    2.9182    1.0000 </r>
       <r>    7.5694    0.0000 </r>
       <r>    8.2725    0.0000 </r>
       <r>   11.2974    0.0000 </r>
       <r>   13.5000    0.0000 </r>
       <r>   15.6673    0.0000 </r>
       <r>   15.7219    0.0000 </r>
       <r>   18.2951    0.0000 </r>
       <r>   18.7998    0.0000 </r>
       <r>   19.6810    0.0000 </r>
       <r>   20.1334    0.0000 </r>
       <r>   22.1069    0.0000 </r>
       <r>   22.5067    0.0000 </r>
      </set>
      <set comment="kpoint 28">
       <r>   -2.0584    1.0000 </r>
       <r>   -2.0584    1.0000 </r>
       <r>    2.2751    1.0000 </r>
       <r>    2.2751    1.0000 </r>
       <r>    7.5998    0.0000 </r>
       <r>    7.5998    0.0000 </r>
       <r>   13.3637    0.0000 </r>
       <r>   13.3637    0.0000 </r>
       <r>   16.0653    0.0000 </r>
       <r>   16.0653    0.0000 </r>
       <r>   18.3321    0.0000 </r>
       <r>   18.3321    0.0000 </r>
       <r>   20.9874    0.0000 </r>
       <r>   20.9874    0.0000 </r>
       <r>   22.8407    0.0000 </r>
       <r>   22.8407    0.0000 </r>
      </set>
      <set comment="kpoint 29">
       <r>   -1.9777    1.0000 </r>
       <r>   -1.9777    1.0000 </r>
       <r>    1.8535    1.0000 </r>
       <r>    1.8536    1.0000 </r>
       <r>    9.8839    0.0000 </r>
       <r>    9.8839    0.0000 </r>
       <r>   10.5435    0.0000 </r>
       <r>   10.5435    0.0000 </r>
       <r>   16.0629    0.0000 </r>
       <r>   16.0629    0.0000 </r>
       <r>   18.4813    0.0000 </r>
       <r>   18.4813    0.0000 </r>
       <r>   21.9141    0.0000 </r>
       <r>   21.9141    0.0000 </r>
       <r>   24.0134    0.0000 </r>
       <r>   24.0134    0.0000 </r>
      </set>
     </set>
     <set comment="spin 2">
      <set comment="kpoint 1">
       <r>   -6.1984    1.0000 </r>
       <r>    5.6142    1.0000 </r>
       <r>    5.6142    1.0000 </r>
       <r>    5.6142    1.0000 </r>
       <r>    8.1703    0.0000 </r>
       <r>    8.1703    0.0000 </r>
       <r>    8.1703    0.0000 </r>
       <r>    8.7441    0.0000 </r>
       <r>   13.3222    0.0000 </r>
       <r>   13.3222    0.0000 </r>
       <r>   13.4912    0.0000 </r>
       <r>   16.7945    0.0000 </r>
       <r>   16.7945    0.0000 </r>
       <r>   16.7945    0.0000 </r>
       <r>   20.8872    0.0000 </r>
       <r>   28.4637    0.0000 </r>
      </set>
      <set comment="kpoint 2">
       <r>   -5.9980    1.0000 </r>
       <r>    4.0235    1.0000 </r>
       <r>    5.3319    1.0000 </r>
       <r>    5.3319    1.0000 </r>
       <r>    8.0560    0.0000 </r>
       <r>    8.5857    0.0000 </r>
       <r>    8.5857    0.0000 </r>
       <r>   10.1440    0.0000 </r>
       <r>   12.8495    0.0000 </r>
       <r>   12.8495    0.0000 </r>
       <r>   14.2666    0.0000 </r>
       <r>   16.2414    0.0000 </r>
       <r>   17.9393    0.0000 </r>
       <r>   17.9393    0.0000 </r>
       <r>   22.1007    0.0000 </r>
       <r>   26.4561    0.0000 </r>
      </set>
      <set comment="kpoint 3">
       <r>   -5.4138    1.0000 </r>
       <r>    1.7285    1.0000 </r>
       <r>    4.8693    1.0000 </r>
       <r>    4.8693    1.0000 </r>
       <r>    7.5722    0.0000 </r>
       <r>    9.1035    0.0000 </r>
       <r>    9.1035    0.0000 </r>
       <r>   12.3627    0.0000 </r>
       <r>   12.8004    0.0000 </r>
       <r>   12.8004    0.0000 </r>
       <r>   14.5432    0.0000 </r>
       <r>   17.3242    0.0000 </r>
       <r>   20.1253    0.0000 </r>
       <r>   20.1253    0.0000 </r>
       <r>   23.2902    0.0000 </r>
       <r>   23.2932    0.0000 </r>
      </set>
      <set comment="kpoint 4">
       <r>   -4.5396    1.0000 </r>
       <r>   -0.2553    1.0000 </r>
       <r>    4.5466    1.0000 </r>
       <r>    4.5466    1.0000 </r>
       <r>    7.2077    0.0000 </r>
       <r>    9.0667    0.0000 </r>
       <r>    9.0667    0.0000 </r>
       <r>   13.4512    0.0000 </r>
       <r>   14.1520    0.0000 </r>
       <r>   14.1520    0.0000 </r>
       <r>   15.1239    0.0000 </r>
       <r>   19.2323    0.0000 </r>
       <r>   19.2323    0.0000 </r>
       <r>   19.4736    0.0000 </r>
       <r>   22.0713    0.0000 </r>
       <r>   23.9831    0.0000 </r>
      </set>
      <set comment="kpoint 5">
       <r>   -3.9206    1.0000 </r>
       <r>   -1.2530    1.0000 </r>
       <r>    4.4360    1.0000 </r>
       <r>    4.4360    1.0000 </r>
       <r>    7.0795    0.0000 </r>
       <r>    8.9631    0.0000 </r>
       <r>    8.9631    0.0000 </r>
       <r>   13.3160    0.0000 </r>
       <r>   16.1076    0.0000 </r>
       <r>   16.1076    0.0000 </r>
       <r>   16.7934    0.0000 </r>
       <r>   16.8315    0.0000 </r>
       <r>   16.8315    0.0000 </r>
       <r>   18.3500    0.0000 </r>
       <r>   24.7506    0.0000 </r>
       <r>   25.3585    0.0000 </r>
      </set>
      <set comment="kpoint 6">
       <r>   -5.9304    1.0000 </r>
       <r>    4.2617    1.0000 </r>
       <r>    4.8279    1.0000 </r>
       <r>    4.8279    1.0000 </r>
       <r>    7.6294    0.0000 </r>
       <r>    9.2850    0.0000 </r>
       <r>    9.2850    0.0000 </r>
       <r>    9.8314    0.0000 </r>
       <r>   12.0974    0.0000 </r>
       <r>   13.6204    0.0000 </r>
       <r>   14.5610    0.0000 </r>
       <r>   17.2609    0.0000 </r>
       <r>   17.2609    0.0000 </r>
       <r>   17.7396    0.0000 </r>
       <r>   22.6771    0.0000 </r>
       <r>   25.9747    0.0000 </r>
      </set>
      <set comment="kpoint 7">
       <r>   -5.6680    1.0000 </r>
       <r>    2.9398    1.0000 </r>
       <r>    4.0256    1.0000 </r>
       <r>    5.3245    1.0000 </r>
       <r>    8.5813    0.0000 </r>
       <r>    8.7226    0.0000 </r>
       <r>    8.9444    0.0000 </r>
       <r>   11.0425    0.0000 </r>
       <r>   11.9695    0.0000 </r>
       <r>   13.5782    0.0000 </r>
       <r>   15.2687    0.0000 </r>
       <r>   16.7271    0.0000 </r>
       <r>   17.8907    0.0000 </r>
       <r>   19.9700    0.0000 </r>
       <r>   23.1286    0.0000 </r>
       <r>   23.5772    0.0000 </r>
      </set>
      <set comment="kpoint 8">
       <r>   -4.9721    1.0000 </r>
       <r>    1.0334    1.0000 </r>
       <r>    3.3483    1.0000 </r>
       <r>    4.8530    1.0000 </r>
       <r>    8.2687    0.0000 </r>
       <r>    9.2748    0.0000 </r>
       <r>    9.4491    0.0000 </r>
       <r>   11.8240    0.0000 </r>
       <r>   12.0895    0.0000 </r>
       <r>   15.3579    0.0000 </r>
       <r>   15.5706    0.0000 </r>
       <r>   17.9148    0.0000 </r>
       <r>   19.4642    0.0000 </r>
       <r>   20.9085    0.0000 </r>
       <r>   21.8372    0.0000 </r>
       <r>   23.4177    0.0000 </r>
      </set>
      <set comment="kpoint 9">
       <r>   -4.0707    1.0000 </r>
       <r>   -0.6815    1.0000 </r>
       <r>    3.1940    1.0000 </r>
       <r>    4.3719    1.0000 </r>
       <r>    7.9258    0.0000 </r>
       <r>    9.2214    0.0000 </r>
       <r>    9.4775    0.0000 </r>
       <r>   13.4404    0.0000 </r>
       <r>   13.6716    0.0000 </r>
       <r>   14.7476    0.0000 </r>
       <r>   16.6893    0.0000 </r>
       <r>   17.8932    0.0000 </r>
       <r>   19.7380    0.0000 </r>
       <r>   20.0960    0.0000 </r>
       <r>   22.3039    0.0000 </r>
       <r>   24.0688    0.0000 </r>
      </set>
      <set comment="kpoint 10">
       <r>   -3.8336    1.0000 </r>
       <r>   -1.0425    1.0000 </r>
       <r>    3.3691    1.0000 </r>
       <r>    4.0828    1.0000 </r>
       <r>    7.7766    0.0000 </r>
       <r>    9.1022    0.0000 </r>
       <r>    9.7070    0.0000 </r>
       <r>   12.9175    0.0000 </r>
       <r>   14.5565    0.0000 </r>
       <r>   16.0290    0.0000 </r>
       <r>   17.0137    0.0000 </r>
       <r>   17.1501    0.0000 </r>
       <r>   17.9353    0.0000 </r>
       <r>   20.4431    0.0000 </r>
       <r>   23.7152    0.0000 </r>
       <r>   25.0752    0.0000 </r>
      </set>
      <set comment="kpoint 11">
       <r>   -4.6722    1.0000 </r>
       <r>    0.3874    1.0000 </r>
       <r>    3.8060    1.0000 </r>
       <r>    4.0608    1.0000 </r>
       <r>    7.8418    0.0000 </r>
       <r>    9.2058    0.0000 </r>
       <r>   10.0549    0.0000 </r>
       <r>   11.0528    0.0000 </r>
       <r>   14.8822    0.0000 </r>
       <r>   14.8938    0.0000 </r>
       <r>   15.4025    0.0000 </r>
       <r>   18.8823    0.0000 </r>
       <r>   18.8950    0.0000 </r>
       <r>   20.6508    0.0000 </r>
       <r>   22.1492    0.0000 </r>
       <r>   23.0547    0.0000 </r>
      </set>
      <set comment="kpoint 12">
       <r>   -5.4705    1.0000 </r>
       <r>    2.4087    1.0000 </r>
       <r>    4.3257    1.0000 </r>
       <r>    4.3892    1.0000 </r>
       <r>    7.7589    0.0000 </r>
       <r>    9.2376    0.0000 </r>
       <r>   10.0405    0.0000 </r>
       <r>   10.3522    0.0000 </r>
       <r>   12.9724    0.0000 </r>
       <r>   13.7815    0.0000 </r>
       <r>   15.5484    0.0000 </r>
       <r>   17.1100    0.0000 </r>
       <r>   18.6528    0.0000 </r>
       <r>   19.9010    0.0000 </r>
       <r>   23.0237    0.0000 </r>
       <r>   23.4848    0.0000 </r>
      </set>
      <set comment="kpoint 13">
       <r>   -5.1362    1.0000 </r>
       <r>    2.0957    1.0000 </r>
       <r>    3.7661    1.0000 </r>
       <r>    3.7661    1.0000 </r>
       <r>    6.7658    0.0000 </r>
       <r>    8.7496    0.0000 </r>
       <r>   11.3023    0.0000 </r>
       <r>   11.3023    0.0000 </r>
       <r>   13.4796    0.0000 </r>
       <r>   14.5133    0.0000 </r>
       <r>   16.9139    0.0000 </r>
       <r>   18.5294    0.0000 </r>
       <r>   18.5294    0.0000 </r>
       <r>   19.2415    0.0000 </r>
[...]
       </set>
       <set comment="band 12">
        <r>  0.0438  0.0069  0.0068  0.0250  0.0000  0.0000  0.0000  0.0000  0.0000 </r>
        <r>  0.0438  0.0069  0.0068  0.0250  0.0000  0.0000  0.0000  0.0000  0.0000 </r>
       </set>
       <set comment="band 13">
        <r>  0.0080  0.0271  0.0714  0.1111  0.0000  0.0000  0.0000  0.0000  0.0000 </r>
        <r>  0.0080  0.0271  0.0714  0.1111  0.0000  0.0000  0.0000  0.0000  0.0000 </r>
       </set>
       <set comment="band 14">
        <r>  0.0127  0.0004  0.0169  0.0394  0.0000  0.0000  0.0000  0.0000  0.0000 </r>
        <r>  0.0127  0.0004  0.0169  0.0394  0.0000  0.0000  0.0000  0.0000  0.0000 </r>
       </set>
       <set comment="band 15">
        <r>  0.0001  0.0355  0.0237  0.0182  0.0000  0.0000  0.0000  0.0000  0.0000 </r>
        <r>  0.0001  0.0355  0.0237  0.0182  0.0000  0.0000  0.0000  0.0000  0.0000 </r>
       </set>
       <set comment="band 16">
        <r>  0.0366  0.0028  0.0002  0.0018  0.0000  0.0000  0.0000  0.0000  0.0000 </r>
        <r>  0.0366  0.0028  0.0002  0.0018  0.0000  0.0000  0.0000  0.0000  0.0000 </r>
       </set>
      </set>
      <set comment="kpoint 25">
       <set comment="band 1">
        <r>  0.2104  0.0058  0.0040  0.0172  0.0000  0.0000  0.0000  0.0000  0.0000 </r>
        <r>  0.2104  0.0058  0.0040  0.0172  0.0000  0.0000  0.0000  0.0000  0.0000 </r>
       </set>
       <set comment="band 2">
        <r>  0.1799  0.0238  0.0131  0.0245  0.0000  0.0000  0.0000  0.0000  0.0000 </r>
        <r>  0.1799  0.0238  0.0131  0.0245  0.0000  0.0000  0.0000  0.0000  0.0000 </r>
       </set>
       <set comment="band 3">
        <r>  0.0060  0.0443  0.0226  0.0849  0.0000  0.0000  0.0000  0.0000  0.0000 </r>
        <r>  0.0060  0.0443  0.0226  0.0849  0.0000  0.0000  0.0000  0.0000  0.0000 </r>
       </set>
       <set comment="band 4">
        <r>  0.0034  0.0662  0.1131  0.0003  0.0000  0.0000  0.0000  0.0000  0.0000 </r>
        <r>  0.0034  0.0662  0.1131  0.0003  0.0000  0.0000  0.0000  0.0000  0.0000 </r>
       </set>
       <set comment="band 5">
        <r>  0.0389  0.0353  0.0374  0.0046  0.0000  0.0000  0.0000  0.0000  0.0000 </r>
        <r>  0.0389  0.0353  0.0374  0.0046  0.0000  0.0000  0.0000  0.0000  0.0000 </r>
       </set>
       <set comment="band 6">
        <r>  0.0181  0.0445  0.0610  0.0020  0.0000  0.0000  0.0000  0.0000  0.0000 </r>
        <r>  0.0181  0.0445  0.0610  0.0020  0.0000  0.0000  0.0000  0.0000  0.0000 </r>
       </set>
       <set comment="band 7">
        <r>  0.0437  0.0178  0.0093  0.0563  0.0000  0.0000  0.0000  0.0000  0.0000 </r>
        <r>  0.0437  0.0178  0.0093  0.0563  0.0000  0.0000  0.0000  0.0000  0.0000 </r>
       </set>
       <set comment="band 8">
        <r>  0.0187  0.0127  0.0086  0.0818  0.0000  0.0000  0.0000  0.0000  0.0000 </r>
        <r>  0.0187  0.0127  0.0086  0.0818  0.0000  0.0000  0.0000  0.0000  0.0000 </r>
       </set>
       <set comment="band 9">
        <r>  0.0124  0.0777  0.0699  0.0046  0.0000  0.0000  0.0000  0.0000  0.0000 </r>
        <r>  0.0124  0.0777  0.0699  0.0046  0.0000  0.0000  0.0000  0.0000  0.0000 </r>
       </set>
       <set comment="band 10">
        <r>  0.0284  0.0082  0.0098  0.0619  0.0000  0.0000  0.0000  0.0000  0.0000 </r>
        <r>  0.0284  0.0082  0.0098  0.0619  0.0000  0.0000  0.0000  0.0000  0.0000 </r>
       </set>
       <set comment="band 11">
        <r>  0.0115  0.0330  0.0193  0.0085  0.0000  0.0000  0.0000  0.0000  0.0000 </r>
        <r>  0.0115  0.0330  0.0193  0.0085  0.0000  0.0000  0.0000  0.0000  0.0000 </r>
       </set>
       <set comment="band 12">
        <r>  0.0063  0.0418  0.0210  0.0376  0.0000  0.0000  0.0000  0.0000  0.0000 </r>
        <r>  0.0063  0.0418  0.0210  0.0376  0.0000  0.0000  0.0000  0.0000  0.0000 </r>
       </set>
       <set comment="band 13">
        <r>  0.0055  0.0234  0.0271  0.0279  0.0000  0.0000  0.0000  0.0000  0.0000 </r>
        <r>  0.0055  0.0234  0.0271  0.0279  0.0000  0.0000  0.0000  0.0000  0.0000 </r>
       </set>
       <set comment="band 14">
        <r>  0.0147  0.0066  0.0040  0.0915  0.0000  0.0000  0.0000  0.0000  0.0000 </r>
        <r>  0.0147  0.0066  0.0040  0.0915  0.0000  0.0000  0.0000  0.0000  0.0000 </r>
       </set>
       <set comment="band 15">
        <r>  0.0352  0.0138  0.0265  0.0067  0.0000  0.0000  0.0000  0.0000  0.0000 </r>
        <r>  0.0352  0.0138  0.0265  0.0067  0.0000  0.0000  0.0000  0.0000  0.0000 </r>
       </set>
       <set comment="band 16">
        <r>  0.0101  0.0369  0.0189  0.0084  0.0000  0.0000  0.0000  0.0000  0.0000 </r>
        <r>  0.0102  0.0369  0.0189  0.0085  0.0000  0.0000  0.0000  0.0000  0.0000 </r>
       </set>
      </set>
      <set comment="kpoint 26">
       <set comment="band 1">
        <r>  0.2095  0.0129  0.0113  0.0063  0.0000  0.0000  0.0000  0.0000  0.0000 </r>
        <r>  0.2095  0.0129  0.0113  0.0063  0.0000  0.0000  0.0000  0.0000  0.0000 </r>
       </set>
       <set comment="band 2">
        <r>  0.1845  0.0243  0.0124  0.0194  0.0000  0.0000  0.0000  0.0000  0.0000 </r>
        <r>  0.1845  0.0243  0.0124  0.0194  0.0000  0.0000  0.0000  0.0000  0.0000 </r>
       </set>
       <set comment="band 3">
        <r>  0.0069  0.0136  0.0386  0.1018  0.0000  0.0000  0.0000  0.0000  0.0000 </r>
        <r>  0.0069  0.0136  0.0386  0.1018  0.0000  0.0000  0.0000  0.0000  0.0000 </r>
       </set>
       <set comment="band 4">
        <r>  0.0017  0.0871  0.0830  0.0057  0.0000  0.0000  0.0000  0.0000  0.0000 </r>
        <r>  0.0017  0.0871  0.0830  0.0057  0.0000  0.0000  0.0000  0.0000  0.0000 </r>
       </set>
       <set comment="band 5">
        <r>  0.0387  0.0358  0.0331  0.0030  0.0000  0.0000  0.0000  0.0000  0.0000 </r>
        <r>  0.0387  0.0358  0.0331  0.0030  0.0000  0.0000  0.0000  0.0000  0.0000 </r>
       </set>
       <set comment="band 6">
        <r>  0.0166  0.0088  0.0069  0.0692  0.0000  0.0000  0.0000  0.0000  0.0000 </r>
        <r>  0.0166  0.0088  0.0069  0.0692  0.0000  0.0000  0.0000  0.0000  0.0000 </r>
       </set>
       <set comment="band 7">
        <r>  0.0443  0.0570  0.0185  0.0332  0.0000  0.0000  0.0000  0.0000  0.0000 </r>
        <r>  0.0443  0.0570  0.0185  0.0332  0.0000  0.0000  0.0000  0.0000  0.0000 </r>
       </set>
       <set comment="band 8">
        <r>  0.0237  0.0068  0.0715  0.0442  0.0000  0.0000  0.0000  0.0000  0.0000 </r>
        <r>  0.0237  0.0068  0.0715  0.0442  0.0000  0.0000  0.0000  0.0000  0.0000 </r>
       </set>
       <set comment="band 9">
        <r>  0.0114  0.0362  0.0597  0.0236  0.0000  0.0000  0.0000  0.0000  0.0000 </r>
        <r>  0.0114  0.0362  0.0597  0.0236  0.0000  0.0000  0.0000  0.0000  0.0000 </r>
       </set>
       <set comment="band 10">
        <r>  0.0066  0.0315  0.0093  0.0616  0.0000  0.0000  0.0000  0.0000  0.0000 </r>
        <r>  0.0066  0.0315  0.0093  0.0616  0.0000  0.0000  0.0000  0.0000  0.0000 </r>
       </set>
       <set comment="band 11">
        <r>  0.0215  0.0934  0.0082  0.0065  0.0000  0.0000  0.0000  0.0000  0.0000 </r>
        <r>  0.0215  0.0934  0.0082  0.0065  0.0000  0.0000  0.0000  0.0000  0.0000 </r>
       </set>
       <set comment="band 12">
        <r>  0.0071  0.0052  0.0410  0.0317  0.0000  0.0000  0.0000  0.0000  0.0000 </r>
        <r>  0.0071  0.0052  0.0410  0.0317  0.0000  0.0000  0.0000  0.0000  0.0000 </r>
       </set>
       <set comment="band 13">
        <r>  0.0138  0.0156  0.0597  0.0041  0.0000  0.0000  0.0000  0.0000  0.0000 </r>
        <r>  0.0138  0.0156  0.0597  0.0041  0.0000  0.0000  0.0000  0.0000  0.0000 </r>
       </set>
       <set comment="band 14">
        <r>  0.0156  0.0384  0.0313  0.0335  0.0000  0.0000  0.0000  0.0000  0.0000 </r>
        <r>  0.0156  0.0384  0.0313  0.0335  0.0000  0.0000  0.0000  0.0000  0.0000 </r>
       </set>
       <set comment="band 15">
        <r>  0.0119  0.0119  0.0036  0.0060  0.0000  0.0000  0.0000  0.0000  0.0000 </r>
        <r>  0.0119  0.0119  0.0036  0.0059  0.0000  0.0000  0.0000  0.0000  0.0000 </r>
       </set>
       <set comment="band 16">
        <r>  0.0248  0.0073  0.0005  0.0099  0.0000  0.0000  0.0000  0.0000  0.0000 </r>
        <r>  0.0248  0.0075  0.0005  0.0097  0.0000  0.0000  0.0000  0.0000  0.0000 </r>
       </set>
      </set>
      <set comment="kpoint 27">
       <set comment="band 1">
        <r>  0.2035  0.0124  0.0120  0.0013  0.0000  0.0000  0.0000  0.0000  0.0000 </r>
        <r>  0.2035  0.0124  0.0120  0.0013  0.0000  0.0000  0.0000  0.0000  0.0000 </r>
       </set>
       <set comment="band 2">
        <r>  0.1823  0.0281  0.0295  0.0081  0.0000  0.0000  0.0000  0.0000  0.0000 </r>
        <r>  0.1823  0.0281  0.0295  0.0081  0.0000  0.0000  0.0000  0.0000  0.0000 </r>
       </set>
       <set comment="band 3">
        <r>  0.0083  0.0145  0.0761  0.0752  0.0000  0.0000  0.0000  0.0000  0.0000 </r>
        <r>  0.0083  0.0145  0.0761  0.0752  0.0000  0.0000  0.0000  0.0000  0.0000 </r>
       </set>
       <set comment="band 4">
        <r>  0.0007  0.0790  0.0255  0.0759  0.0000  0.0000  0.0000  0.0000  0.0000 </r>
        <r>  0.0007  0.0790  0.0255  0.0759  0.0000  0.0000  0.0000  0.0000  0.0000 </r>
       </set>
       <set comment="band 5">
        <r>  0.0368  0.0538  0.0076  0.0226  0.0000  0.0000  0.0000  0.0000  0.0000 </r>
        <r>  0.0368  0.0538  0.0076  0.0226  0.0000  0.0000  0.0000  0.0000  0.0000 </r>
       </set>
       <set comment="band 6">
        <r>  0.0391  0.0055  0.0323  0.0157  0.0000  0.0000  0.0000  0.0000  0.0000 </r>
        <r>  0.0391  0.0055  0.0323  0.0157  0.0000  0.0000  0.0000  0.0000  0.0000 </r>
       </set>
       <set comment="band 7">
        <r>  0.0339  0.0525  0.0168  0.0489  0.0000  0.0000  0.0000  0.0000  0.0000 </r>
        <r>  0.0339  0.0525  0.0168  0.0489  0.0000  0.0000  0.0000  0.0000  0.0000 </r>
       </set>
       <set comment="band 8">
        <r>  0.0026  0.0438  0.0401  0.0767  0.0000  0.0000  0.0000  0.0000  0.0000 </r>
        <r>  0.0026  0.0438  0.0401  0.0767  0.0000  0.0000  0.0000  0.0000  0.0000 </r>
       </set>
       <set comment="band 9">
        <r>  0.0407  0.0329  0.0363  0.0031  0.0000  0.0000  0.0000  0.0000  0.0000 </r>
        <r>  0.0407  0.0329  0.0363  0.0031  0.0000  0.0000  0.0000  0.0000  0.0000 </r>
       </set>
       <set comment="band 10">
        <r>  0.0065  0.0157  0.0677  0.0280  0.0000  0.0000  0.0000  0.0000  0.0000 </r>
        <r>  0.0065  0.0157  0.0677  0.0280  0.0000  0.0000  0.0000  0.0000  0.0000 </r>
       </set>
       <set comment="band 11">
        <r>  0.0231  0.0175  0.0897  0.0508  0.0000  0.0000  0.0000  0.0000  0.0000 </r>
        <r>  0.0231  0.0175  0.0897  0.0508  0.0000  0.0000  0.0000  0.0000  0.0000 </r>
       </set>
       <set comment="band 12">
        <r>  0.0207  0.0140  0.0054  0.0083  0.0000  0.0000  0.0000  0.0000  0.0000 </r>
        <r>  0.0207  0.0140  0.0054  0.0083  0.0000  0.0000  0.0000  0.0000  0.0000 </r>
       </set>
       <set comment="band 13">
        <r>  0.0027  0.0778  0.0213  0.0037  0.0000  0.0000  0.0000  0.0000  0.0000 </r>
        <r>  0.0027  0.0778  0.0213  0.0037  0.0000  0.0000  0.0000  0.0000  0.0000 </r>
       </set>
       <set comment="band 14">
        <r>  0.0003  0.0090  0.0147  0.0227  0.0000  0.0000  0.0000  0.0000  0.0000 </r>
        <r>  0.0003  0.0090  0.0147  0.0227  0.0000  0.0000  0.0000  0.0000  0.0000 </r>
       </set>
       <set comment="band 15">
        <r>  0.0317  0.0123  0.0279  0.0058  0.0000  0.0000  0.0000  0.0000  0.0000 </r>
        <r>  0.0317  0.0123  0.0279  0.0058  0.0000  0.0000  0.0000  0.0000  0.0000 </r>
       </set>
       <set comment="band 16">
        <r>  0.0087  0.0095  0.0068  0.0053  0.0000  0.0000  0.0000  0.0000  0.0000 </r>
        <r>  0.0087  0.0095  0.0068  0.0053  0.0000  0.0000  0.0000  0.0000  0.0000 </r>
       </set>
      </set>
      <set comment="kpoint 28">
       <set comment="band 1">
        <r>  0.3925  0.0005  0.0004  0.0000  0.0000  0.0000  0.0000  0.0000  0.0000 </r>
        <r>  0.0038  0.0516  0.0282  0.0045  0.0000  0.0000  0.0000  0.0000  0.0000 </r>
       </set>
       <set comment="band 2">
        <r>  0.0038  0.0516  0.0280  0.0047  0.0000  0.0000  0.0000  0.0000  0.0000 </r>
        <r>  0.3925  0.0005  0.0002  0.0002  0.0000  0.0000  0.0000  0.0000  0.0000 </r>
       </set>
       <set comment="band 3">
        <r>  0.0005  0.0473  0.0311  0.1032  0.0000  0.0000  0.0000  0.0000  0.0000 </r>
        <r>  0.0045  0.0302  0.0237  0.1055  0.0000  0.0000  0.0000  0.0000  0.0000 </r>
       </set>
       <set comment="band 4">
        <r>  0.0045  0.0261  0.0826  0.0507  0.0000  0.0000  0.0000  0.0000  0.0000 </r>
        <r>  0.0005  0.0433  0.0900  0.0483  0.0000  0.0000  0.0000  0.0000  0.0000 </r>
       </set>
       <set comment="band 5">
        <r>  0.0482  0.0151  0.0076  0.0399  0.0000  0.0000  0.0000  0.0000  0.0000 </r>
        <r>  0.0310  0.0221  0.0100  0.0378  0.0000  0.0000  0.0000  0.0000  0.0000 </r>
       </set>
       <set comment="band 6">
        <r>  0.0310  0.0333  0.0366  0.0000  0.0000  0.0000  0.0000  0.0000  0.0000 </r>
        <r>  0.0482  0.0263  0.0342  0.0021  0.0000  0.0000  0.0000  0.0000  0.0000 </r>
       </set>
       <set comment="band 7">
        <r>  0.0141  0.0169  0.0738  0.0361  0.0000  0.0000  0.0000  0.0000  0.0000 </r>
        <r>  0.0278  0.0075  0.0733  0.0445  0.0000  0.0000  0.0000  0.0000  0.0000 </r>
       </set>
       <set comment="band 8">
        <r>  0.0278  0.0532  0.0102  0.0619  0.0000  0.0000  0.0000  0.0000  0.0000 </r>
        <r>  0.0141  0.0627  0.0107  0.0534  0.0000  0.0000  0.0000  0.0000  0.0000 </r>
       </set>
       <set comment="band 9">
        <r>  0.0002  0.0309  0.0680  0.0616  0.0000  0.0000  0.0000  0.0000  0.0000 </r>
        <r>  0.0008  0.0052  0.0433  0.0378  0.0000  0.0000  0.0000  0.0000  0.0000 </r>
       </set>
       <set comment="band 10">
        <r>  0.0008  0.0316  0.0143  0.0404  0.0000  0.0000  0.0000  0.0000  0.0000 </r>
        <r>  0.0002  0.0573  0.0390  0.0642  0.0000  0.0000  0.0000  0.0000  0.0000 </r>
       </set>
       <set comment="band 11">
        <r>  0.0020  0.1048  0.0599  0.0139  0.0000  0.0000  0.0000  0.0000  0.0000 </r>
        <r>  0.0469  0.0043  0.0029  0.0004  0.0000  0.0000  0.0000  0.0000  0.0000 </r>
       </set>
       <set comment="band 12">
        <r>  0.0469  0.0045  0.0022  0.0009  0.0000  0.0000  0.0000  0.0000  0.0000 </r>
        <r>  0.0020  0.1050  0.0591  0.0144  0.0000  0.0000  0.0000  0.0000  0.0000 </r>
       </set>
       <set comment="band 13">
        <r>  0.0031  0.0795  0.0771  0.0090  0.0000  0.0000  0.0000  0.0000  0.0000 </r>
        <r>  0.0205  0.0041  0.0450  0.0201  0.0000  0.0000  0.0000  0.0000  0.0000 </r>
       </set>
       <set comment="band 14">
        <r>  0.0205  0.0400  0.0011  0.0282  0.0000  0.0000  0.0000  0.0000  0.0000 </r>
        <r>  0.0031  0.1153  0.0332  0.0170  0.0000  0.0000  0.0000  0.0000  0.0000 </r>
       </set>
       <set comment="band 15">
        <r>  0.0019  0.0075  0.0087  0.0060  0.0000  0.0000  0.0000  0.0000  0.0000 </r>
        <r>  0.0038  0.0045  0.0053  0.0020  0.0000  0.0000  0.0000  0.0000  0.0000 </r>
       </set>
       <set comment="band 16">
        <r>  0.0038  0.0019  0.0026  0.0073  0.0000  0.0000  0.0000  0.0000  0.0000 </r>
        <r>  0.0019  0.0048  0.0061  0.0113  0.0000  0.0000  0.0000  0.0000  0.0000 </r>
       </set>
      </set>
      <set comment="kpoint 29">
       <set comment="band 1">
        <r>  0.4049  0.0003  0.0002  0.0002  0.0000  0.0000  0.0000  0.0000  0.0000 </r>
        <r>  0.0036  0.0337  0.0270  0.0202  0.0000  0.0000  0.0000  0.0000  0.0000 </r>
       </set>
       <set comment="band 2">
        <r>  0.0036  0.0337  0.0270  0.0202  0.0000  0.0000  0.0000  0.0000  0.0000 </r>
        <r>  0.4049  0.0003  0.0002  0.0002  0.0000  0.0000  0.0000  0.0000  0.0000 </r>
       </set>
       <set comment="band 3">
        <r>  0.0000  0.0892  0.0687  0.0205  0.0000  0.0000  0.0000  0.0000  0.0000 </r>
        <r>  0.0000  0.0444  0.0563  0.0405  0.0000  0.0000  0.0000  0.0000  0.0000 </r>
       </set>
       <set comment="band 4">
        <r>  0.0000  0.0095  0.0378  0.0939  0.0000  0.0000  0.0000  0.0000  0.0000 </r>
        <r>  0.0000  0.0543  0.0502  0.0739  0.0000  0.0000  0.0000  0.0000  0.0000 </r>
       </set>
       <set comment="band 5">
        <r>  0.0000  0.0277  0.0558  0.0843  0.0000  0.0000  0.0000  0.0000  0.0000 </r>
        <r>  0.0000  0.0003  0.0009  0.0020  0.0000  0.0000  0.0000  0.0000  0.0000 </r>
       </set>
       <set comment="band 6">
        <r>  0.0000  0.0009  0.0012  0.0012  0.0000  0.0000  0.0000  0.0000  0.0000 </r>
        <r>  0.0000  0.0283  0.0561  0.0835  0.0000  0.0000  0.0000  0.0000  0.0000 </r>
       </set>
       <set comment="band 7">
        <r>  0.0102  0.0806  0.0645  0.0484  0.0000  0.0000  0.0000  0.0000  0.0000 </r>
        <r>  0.1130  0.0073  0.0058  0.0044  0.0000  0.0000  0.0000  0.0000  0.0000 </r>
       </set>
       <set comment="band 8">
        <r>  0.1130  0.0073  0.0058  0.0044  0.0000  0.0000  0.0000  0.0000  0.0000 </r>
        <r>  0.0102  0.0806  0.0645  0.0484  0.0000  0.0000  0.0000  0.0000  0.0000 </r>
       </set>
       <set comment="band 9">
        <r>  0.0000  0.0420  0.0445  0.0788  0.0000  0.0000  0.0000  0.0000  0.0000 </r>
        <r>  0.0000  0.0069  0.0244  0.0739  0.0000  0.0000  0.0000  0.0000  0.0000 </r>
       </set>
       <set comment="band 10">
        <r>  0.0000  0.0513  0.0457  0.0082  0.0000  0.0000  0.0000  0.0000  0.0000 </r>
        <r>  0.0000  0.0865  0.0657  0.0132  0.0000  0.0000  0.0000  0.0000  0.0000 </r>
       </set>
       <set comment="band 11">
        <r>  0.0058  0.0762  0.0609  0.0457  0.0000  0.0000  0.0000  0.0000  0.0000 </r>
        <r>  0.0449  0.0099  0.0079  0.0059  0.0000  0.0000  0.0000  0.0000  0.0000 </r>
       </set>
       <set comment="band 12">
        <r>  0.0449  0.0099  0.0079  0.0059  0.0000  0.0000  0.0000  0.0000  0.0000 </r>
        <r>  0.0058  0.0762  0.0609  0.0457  0.0000  0.0000  0.0000  0.0000  0.0000 </r>
       </set>
       <set comment="band 13">
        <r>  0.0000  0.0221  0.0177  0.0148  0.0000  0.0000  0.0000  0.0000  0.0000 </r>
        <r>  0.0000  0.0004  0.0012  0.0036  0.0000  0.0000  0.0000  0.0000  0.0000 </r>
       </set>
       <set comment="band 14">
        <r>  0.0000  0.0017  0.0023  0.0013  0.0000  0.0000  0.0000  0.0000  0.0000 </r>
        <r>  0.0000  0.0234  0.0187  0.0125  0.0000  0.0000  0.0000  0.0000  0.0000 </r>
       </set>
       <set comment="band 15">
        <r>  0.0344  0.0082  0.0066  0.0049  0.0000  0.0000  0.0000  0.0000  0.0000 </r>
        <r>  0.0253  0.0111  0.0090  0.0067  0.0000  0.0000  0.0000  0.0000  0.0000 </r>
       </set>
       <set comment="band 16">
        <r>  0.0253  0.0111  0.0091  0.0065  0.0000  0.0000  0.0000  0.0000  0.0000 </r>
        <r>  0.0344  0.0082  0.0064  0.0051  0.0000  0.0000  0.0000  0.0000  0.0000 </r>
       </set>
      </set>
     </set>
    </set>
   </array>
  </projected>
 </calculation>
 <structure name="finalpos" >
  <crystal>
   <varray name="basis" >
    <v>       3.86745680       0.00000000       0.00000000 </v>
    <v>       1.93372840       3.34931684       0.00000002 </v>
    <v>      -0.00000000      -2.23287586       3.15776572 </v>
   </varray>
   <i name="volume">     40.90360739 </i>
   <varray name="rec_basis" >
    <v>       0.25856785      -0.14928417      -0.10555977 </v>
    <v>      -0.00000000       0.29856835       0.21111954 </v>
    <v>      -0.00000000      -0.00000000       0.31667960 </v>
   </varray>
  </crystal>
  <varray name="positions" >
   <v>      -0.00000000       0.00000000      -0.00000000 </v>
   <v>       0.75000000       0.50000000       0.75000000 </v>
  </varray>
 </structure>
</modeling>
