    2    2   99    2
  0.2002240E+02  0.3840198E-09  0.3840199E-09  0.3840198E-09  0.5000000E-15
  1.000000000000000E-004
  CAR 
 unknown system                          
      8     29     12
 
  0.0000000E+00  0.0000000E+00  0.0000000E+00  0.1953125E-02
    1       -6.199442     -6.198326   1.000000   1.000000
    2        5.613257      5.614446   1.000000   1.000000
    3        5.613261      5.614450   1.000000   1.000000
    4        5.613262      5.614451   1.000000   1.000000
    5        8.169503      8.170545   0.000000   0.000000
    6        8.169505      8.170547   0.000000   0.000000
    7        8.169507      8.170549   0.000000   0.000000
    8        8.743285      8.744792   0.000000   0.000000
    9       13.322037     13.322402   0.000000   0.000000
   10       13.322048     13.322413   0.000000   0.000000
   11       13.491553     13.491824   0.000000   0.000000
   12       16.794496     16.794918   0.000000   0.000000
 
  0.1250000E+00  0.0000000E+00 -0.6938894E-17  0.1562500E-01
    1       -5.999023     -5.997903   1.000000   1.000000
    2        4.022546      4.023738   1.000000   1.000000
    3        5.330911      5.332104   1.000000   1.000000
    4        5.330914      5.332107   1.000000   1.000000
    5        8.055246      8.056331   0.000000   0.000000
    6        8.584897      8.585940   0.000000   0.000000
    7        8.584898      8.585941   0.000000   0.000000
    8       10.143242     10.144601   0.000000   0.000000
    9       12.849342     12.849700   0.000000   0.000000
   10       12.849351     12.849709   0.000000   0.000000
   11       14.266878     14.267252   0.000000   0.000000
   12       16.241487     16.241815   0.000000   0.000000
 
  0.2500000E+00  0.0000000E+00 -0.1387779E-16  0.1562500E-01
    1       -5.414791     -5.413655   1.000000   1.000000
    2        1.727514      1.728676   1.000000   1.000000
    3        4.868335      4.869545   1.000000   1.000000
    4        4.868339      4.869549   1.000000   1.000000
    5        7.571580      7.572615   0.000000   0.000000
    6        9.102779      9.103746   0.000000   0.000000
    7        9.102782      9.103749   0.000000   0.000000
    8       12.362047     12.363287   0.000000   0.000000
    9       12.800303     12.800699   0.000000   0.000000
   10       12.800306     12.800702   0.000000   0.000000
   11       14.543386     14.543714   0.000000   0.000000
   12       17.324342     17.324854   0.000000   0.000000
 
  0.3750000E+00  0.0000000E+00  0.2775558E-16  0.1562500E-01
    1       -4.540593     -4.539425   1.000000   1.000000
    2       -0.256259     -0.255142   1.000000   1.000000
    3        4.545624      4.546852   1.000000   1.000000
    4        4.545629      4.546857   1.000000   1.000000
    5        7.207074      7.208080   0.000000   0.000000
    6        9.066093      9.066919   0.000000   0.000000
    7        9.066099      9.066925   0.000000   0.000000
    8       13.451193     13.451705   0.000000   0.000000
    9       14.151830     14.152301   0.000000   0.000000
   10       14.151833     14.152304   0.000000   0.000000
   11       15.123681     15.124568   0.000000   0.000000
   12       19.233043     19.233630   0.000000   0.000000
 
  0.5000000E+00  0.0000000E+00 -0.2775558E-16  0.7812500E-02
    1       -3.921613     -3.920405   1.000000   1.000000
    2       -1.253869     -1.252796   1.000000   1.000000
    3        4.435016      4.436252   1.000000   1.000000
    4        4.435021      4.436257   1.000000   1.000000
    5        7.078929      7.079927   0.000000   0.000000
    6        8.962595      8.963373   0.000000   0.000000
    7        8.962601      8.963379   0.000000   0.000000
    8       13.316170     13.316524   0.000000   0.000000
    9       16.107673     16.107913   0.000000   0.000000
   10       16.107682     16.107921   0.000000   0.000000
   11       16.794154     16.794150   0.000000   0.000000
   12       16.831098     16.831894   0.000000   0.000000
 
  0.0000000E+00  0.1250000E+00  0.1387779E-16  0.1171875E-01
    1       -5.931454     -5.930331   1.000000   1.000000
    2        4.260775      4.262026   1.000000   1.000000
    3        4.826957      4.828129   1.000000   1.000000
    4        4.826957      4.828129   1.000000   1.000000
    5        7.628712      7.629635   0.000000   0.000000
    6        9.284189      9.285240   0.000000   0.000000
    7        9.284190      9.285241   0.000000   0.000000
    8        9.830620      9.831993   0.000000   0.000000
    9       12.097234     12.097679   0.000000   0.000000
   10       13.620244     13.620607   0.000000   0.000000
   11       14.561272     14.561664   0.000000   0.000000
   12       17.260897     17.261310   0.000000   0.000000
 
  0.2500000E+00  0.1250000E+00  0.0000000E+00  0.2343750E-01
    1       -5.669037     -5.667908   1.000000   1.000000
    2        2.938862      2.940083   1.000000   1.000000
    3        4.024708      4.025824   1.000000   1.000000
    4        5.323519      5.324741   1.000000   1.000000
    5        8.580550      8.581706   0.000000   0.000000
    6        8.721777      8.722812   0.000000   0.000000
    7        8.943829      8.944733   0.000000   0.000000
    8       11.041799     11.042923   0.000000   0.000000
    9       11.969376     11.969710   0.000000   0.000000
   10       13.577996     13.578576   0.000000   0.000000
   11       15.268861     15.269348   0.000000   0.000000
   12       16.727322     16.727583   0.000000   0.000000
 
  0.3750000E+00  0.1250000E+00  0.1387779E-16  0.4687500E-01
    1       -4.973118     -4.971969   1.000000   1.000000
    2        1.032480      1.033658   1.000000   1.000000
    3        3.347419      3.348539   1.000000   1.000000
    4        4.851994      4.853224   1.000000   1.000000
    5        8.268080      8.269121   0.000000   0.000000
    6        9.274126      9.275086   0.000000   0.000000
    7        9.448614      9.449435   0.000000   0.000000
    8       11.823584     11.824489   0.000000   0.000000
    9       12.089411     12.089793   0.000000   0.000000
   10       15.357869     15.358418   0.000000   0.000000
   11       15.570305     15.571015   0.000000   0.000000
   12       17.914870     17.915419   0.000000   0.000000
 
  0.5000000E+00  0.1250000E+00 -0.1387779E-16  0.4687500E-01
    1       -4.071778     -4.070590   1.000000   1.000000
    2       -0.682425     -0.681304   1.000000   1.000000
    3        3.193117      3.194256   1.000000   1.000000
    4        4.370939      4.372163   1.000000   1.000000
    5        7.925167      7.926125   0.000000   0.000000
    6        9.220903      9.221685   0.000000   0.000000
    7        9.476924      9.477749   0.000000   0.000000
    8       13.440023     13.440848   0.000000   0.000000
    9       13.671438     13.671922   0.000000   0.000000
   10       14.747561     14.748075   0.000000   0.000000
   11       16.689170     16.689721   0.000000   0.000000
   12       17.893015     17.893770   0.000000   0.000000
 
 -0.3750000E+00  0.1250000E+00 -0.8326673E-16  0.4687500E-01
    1       -3.834627     -3.833423   1.000000   1.000000
    2       -1.043480     -1.042377   1.000000   1.000000
    3        3.368204      3.369358   1.000000   1.000000
    4        4.081788      4.082999   1.000000   1.000000
    5        7.776028      7.776921   0.000000   0.000000
    6        9.101629      9.102471   0.000000   0.000000
    7        9.706422      9.707224   0.000000   0.000000
    8       12.917130     12.917873   0.000000   0.000000
    9       14.556597     14.556999   0.000000   0.000000
   10       16.029011     16.029374   0.000000   0.000000
   11       17.013643     17.014366   0.000000   0.000000
   12       17.149909     17.150582   0.000000   0.000000
 
 -0.2500000E+00  0.1250000E+00  0.2775558E-16  0.4687500E-01
    1       -4.673221     -4.672062   1.000000   1.000000
    2        0.386400      0.387560   1.000000   1.000000
    3        3.805094      3.806257   1.000000   1.000000
    4        4.059852      4.061045   1.000000   1.000000
    5        7.841265      7.842135   0.000000   0.000000
    6        9.205115      9.206108   0.000000   0.000000
    7       10.054262     10.055135   0.000000   0.000000
    8       11.052510     11.053163   0.000000   0.000000
    9       14.882057     14.882501   0.000000   0.000000
   10       14.893674     14.894259   0.000000   0.000000
   11       15.402259     15.403070   0.000000   0.000000
   12       18.888272     18.885077   0.000000   0.000000
 
 -0.1250000E+00  0.1250000E+00 -0.2775558E-16  0.4687500E-01
    1       -5.471506     -5.470372   1.000000   1.000000
    2        2.407704      2.408915   1.000000   1.000000
    3        4.324720      4.325897   1.000000   1.000000
    4        4.388285      4.389460   1.000000   1.000000
    5        7.758277      7.759164   0.000000   0.000000
    6        9.236806      9.237976   0.000000   0.000000
    7       10.039763     10.040771   0.000000   0.000000
    8       10.351924     10.352559   0.000000   0.000000
    9       12.971909     12.972911   0.000000   0.000000
   10       13.781337     13.781717   0.000000   0.000000
   11       15.548547     15.548994   0.000000   0.000000
   12       17.110181     17.110527   0.000000   0.000000
 
  0.0000000E+00  0.2500000E+00  0.2775558E-16  0.1171875E-01
    1       -5.137199     -5.136058   1.000000   1.000000
    2        2.094746      2.096022   1.000000   1.000000
    3        3.765149      3.766319   1.000000   1.000000
    4        3.765150      3.766319   1.000000   1.000000
    5        6.765275      6.766052   0.000000   0.000000
    6        8.749298      8.749944   0.000000   0.000000
    7       11.301655     11.302681   0.000000   0.000000
    8       11.301655     11.302681   0.000000   0.000000
    9       13.478987     13.480155   0.000000   0.000000
   10       14.513162     14.513516   0.000000   0.000000
   11       16.914070     16.914634   0.000000   0.000000
   12       18.529505     18.529769   0.000000   0.000000
 
  0.5000000E+00  0.2500000E+00  0.0000000E+00  0.2343750E-01
    1       -4.195982     -4.194807   1.000000   1.000000
    2        0.174383      0.175607   1.000000   1.000000
    3        1.945368      1.946390   1.000000   1.000000
    4        4.311248      4.312462   1.000000   1.000000
    5        8.050936      8.051757   0.000000   0.000000
    6       10.360952     10.361972   0.000000   0.000000
    7       10.696432     10.697172   0.000000   0.000000
    8       11.653210     11.654254   0.000000   0.000000
    9       12.067332     12.067656   0.000000   0.000000
   10       15.133558     15.134422   0.000000   0.000000
   11       18.106608     18.107064   0.000000   0.000000
   12       18.641668     18.642141   0.000000   0.000000
 
 -0.3750000E+00  0.2500000E+00  0.0000000E+00  0.4687500E-01
    1       -3.339255     -3.338040   1.000000   1.000000
    2       -0.959311     -0.958132   1.000000   1.000000
    3        1.704634      1.705664   1.000000   1.000000
    4        3.765224      3.766422   1.000000   1.000000
    5        7.469612      7.470326   0.000000   0.000000
    6       11.014205     11.015001   0.000000   0.000000
    7       11.055065     11.055941   0.000000   0.000000
    8       12.495839     12.496675   0.000000   0.000000
    9       13.504566     13.505600   0.000000   0.000000
   10       13.560563     13.561018   0.000000   0.000000
   11       18.091473     18.091762   0.000000   0.000000
   12       20.293692     20.305017   0.000000   0.000000
 
 -0.2500000E+00  0.2500000E+00 -0.5551115E-16  0.4687500E-01
    1       -3.536313     -3.535115   1.000000   1.000000
    2       -0.709489     -0.708291   1.000000   1.000000
    3        2.151831      2.152889   1.000000   1.000000
    4        3.454098      3.455283   1.000000   1.000000
    5        7.155679      7.156363   0.000000   0.000000
    6       10.045224     10.045906   0.000000   0.000000
    7       11.258191     11.259233   0.000000   0.000000
    8       11.489388     11.490219   0.000000   0.000000
    9       15.698228     15.699048   0.000000   0.000000
   10       16.072717     16.073168   0.000000   0.000000
   11       17.660899     17.661423   0.000000   0.000000
   12       18.132052     18.133075   0.000000   0.000000
 
 -0.1250000E+00  0.2500000E+00  0.0000000E+00  0.4687500E-01
    1       -4.440900     -4.439740   1.000000   1.000000
    2        0.698303      0.699555   1.000000   1.000000
    3        2.999514      3.000622   1.000000   1.000000
    4        3.452175      3.453351   1.000000   1.000000
    5        6.984798      6.985543   0.000000   0.000000
    6        8.516732      8.517378   0.000000   0.000000
    7       11.520577     11.521590   0.000000   0.000000
    8       11.819166     11.820087   0.000000   0.000000
    9       15.536039     15.536448   0.000000   0.000000
   10       15.580881     15.582092   0.000000   0.000000
   11       17.159773     17.160338   0.000000   0.000000
   12       18.697721     18.698128   0.000000   0.000000
 
  0.0000000E+00  0.3750000E+00 -0.5551115E-16  0.1171875E-01
    1       -3.849058     -3.847885   1.000000   1.000000
    2       -0.098552     -0.097295   1.000000   1.000000
    3        3.061261      3.062434   1.000000   1.000000
    4        3.061262      3.062435   1.000000   1.000000
    5        6.264535      6.265210   0.000000   0.000000
    6        7.190026      7.190595   0.000000   0.000000
    7       13.548844     13.549834   0.000000   0.000000
    8       13.548844     13.549835   0.000000   0.000000
    9       15.995230     15.995569   0.000000   0.000000
   10       16.092365     16.093652   0.000000   0.000000
   11       18.495800     18.496248   0.000000   0.000000
   12       18.496202     18.496266   0.000000   0.000000
 
 -0.2500000E+00  0.3750000E+00  0.5551115E-16  0.2343750E-01
    1       -2.547005     -2.545768   1.000000   1.000000
    2       -1.549875     -1.548657   1.000000   1.000000
    3        1.414311      1.415296   1.000000   1.000000
    4        3.238211      3.239394   1.000000   1.000000
    5        6.848232      6.848872   0.000000   0.000000
    6        9.725475      9.726188   0.000000   0.000000
    7       12.992331     12.993368   0.000000   0.000000
    8       13.528566     13.529300   0.000000   0.000000
    9       13.693714     13.694948   0.000000   0.000000
   10       14.093501     14.093802   0.000000   0.000000
   11       20.111924     20.113099   0.000000   0.000000
   12       20.377484     20.377638   0.000000   0.000000
 
 -0.1250000E+00  0.3750000E+00  0.0000000E+00  0.4687500E-01
    1       -2.970028     -2.968828   1.000000   1.000000
    2       -1.164808     -1.163567   1.000000   1.000000
    3        2.256145      2.257214   1.000000   1.000000
    4        2.986068      2.987244   1.000000   1.000000
    5        6.545071      6.545702   0.000000   0.000000
    6        7.598889      7.599567   0.000000   0.000000
    7       13.786058     13.786963   0.000000   0.000000
    8       13.841574     13.842579   0.000000   0.000000
    9       16.229813     16.230669   0.000000   0.000000
   10       16.331571     16.332040   0.000000   0.000000
   11       17.828030     17.828436   0.000000   0.000000
   12       18.247891     18.249081   0.000000   0.000000
 
  0.0000000E+00  0.5000000E+00  0.5551115E-16  0.5859375E-02
    1       -2.132142     -2.130926   1.000000   1.000000
    2       -2.132133     -2.130918   1.000000   1.000000
    3        2.819818      2.820993   1.000000   1.000000
    4        2.819818      2.820993   1.000000   1.000000
    5        6.365805      6.366408   0.000000   0.000000
    6        6.365806      6.366409   0.000000   0.000000
    7       15.546583     15.547924   0.000000   0.000000
    8       15.546583     15.547925   0.000000   0.000000
    9       16.519854     16.520020   0.000000   0.000000
   10       16.519854     16.520020   0.000000   0.000000
   11       18.054907     18.055238   0.000000   0.000000
   12       18.054909     18.055425   0.000000   0.000000
 
  0.3750000E+00  0.1250000E+00  0.1250000E+00  0.4687500E-01
    1       -4.894960     -4.893810   1.000000   1.000000
    2        1.345276      1.346518   1.000000   1.000000
    3        2.962021      2.963102   1.000000   1.000000
    4        4.213432      4.214618   1.000000   1.000000
    5        8.056529      8.057391   0.000000   0.000000
    6        9.439249      9.440321   0.000000   0.000000
    7        9.816780      9.817354   0.000000   0.000000
    8       11.053333     11.054303   0.000000   0.000000
    9       13.325405     13.326092   0.000000   0.000000
   10       15.716873     15.717719   0.000000   0.000000
   11       16.577319     16.577985   0.000000   0.000000
   12       17.646015     17.646234   0.000000   0.000000
 
  0.5000000E+00  0.1250000E+00  0.1250000E+00  0.9375000E-01
    1       -4.025769     -4.024588   1.000000   1.000000
    2       -0.173829     -0.172634   1.000000   1.000000
    3        2.358133      2.359210   1.000000   1.000000
    4        3.726227      3.727384   1.000000   1.000000
    5        8.477681      8.478506   0.000000   0.000000
    6        9.142951      9.143783   0.000000   0.000000
    7       10.590736     10.591529   0.000000   0.000000
    8       11.491002     11.491854   0.000000   0.000000
    9       14.543203     14.543888   0.000000   0.000000
   10       15.239209     15.239967   0.000000   0.000000
   11       17.515563     17.515894   0.000000   0.000000
   12       18.360220     18.361105   0.000000   0.000000
 
 -0.3750000E+00  0.1250000E+00  0.1250000E+00  0.4687500E-01
    1       -3.391871     -3.390653   1.000000   1.000000
    2       -1.092961     -1.091817   1.000000   1.000000
    3        2.226745      2.227829   1.000000   1.000000
    4        3.503299      3.504443   1.000000   1.000000
    5        8.636536      8.637468   0.000000   0.000000
    6        8.760164      8.760827   0.000000   0.000000
    7       11.459329     11.460242   0.000000   0.000000
    8       12.679344     12.679929   0.000000   0.000000
    9       12.919428     12.920372   0.000000   0.000000
   10       16.120789     16.121190   0.000000   0.000000
   11       17.165082     17.165885   0.000000   0.000000
   12       17.886992     17.887481   0.000000   0.000000
 
 -0.3750000E+00  0.2500000E+00  0.1250000E+00  0.4687500E-01
    1       -3.146130     -3.144917   1.000000   1.000000
    2       -0.904228     -0.902994   1.000000   1.000000
    3        1.484286      1.485280   1.000000   1.000000
    4        3.088778      3.089887   1.000000   1.000000
    5        8.478137      8.478888   0.000000   0.000000
    6       10.127701     10.128496   0.000000   0.000000
    7       10.778987     10.779786   0.000000   0.000000
    8       12.575820     12.576589   0.000000   0.000000
    9       13.378203     13.379169   0.000000   0.000000
   10       14.758968     14.759681   0.000000   0.000000
   11       19.548473     19.548973   0.000000   0.000000
   12       19.752734     19.753715   0.000000   0.000000
 
 -0.2500000E+00  0.2500000E+00  0.1250000E+00  0.9375000E-01
    1       -2.802570     -2.801347   1.000000   1.000000
    2       -1.261986     -1.260755   1.000000   1.000000
    3        1.646591      1.647598   1.000000   1.000000
    4        2.722301      2.723389   1.000000   1.000000
    5        8.008891      8.009613   0.000000   0.000000
    6        9.882558      9.883228   0.000000   0.000000
    7       10.825148     10.826080   0.000000   0.000000
    8       12.964207     12.965102   0.000000   0.000000
    9       13.920251     13.921047   0.000000   0.000000
   10       16.572296     16.572977   0.000000   0.000000
   11       17.683723     17.684510   0.000000   0.000000
   12       19.798671     19.799147   0.000000   0.000000
 
 -0.1250000E+00  0.2500000E+00  0.1250000E+00  0.4687500E-01
    1       -3.655828     -3.654644   1.000000   1.000000
    2       -0.313756     -0.312500   1.000000   1.000000
    3        2.326473      2.327540   1.000000   1.000000
    4        2.918172      2.919278   1.000000   1.000000
    5        7.569538      7.570309   0.000000   0.000000
    6        8.272665      8.273306   0.000000   0.000000
    7       11.297618     11.298538   0.000000   0.000000
    8       13.500257     13.501227   0.000000   0.000000
    9       15.667581     15.668317   0.000000   0.000000
   10       15.722154     15.722872   0.000000   0.000000
   11       18.295477     18.296498   0.000000   0.000000
   12       18.800212     18.800537   0.000000   0.000000
 
 -0.1250000E+00  0.3750000E+00  0.1250000E+00  0.2343750E-01
    1       -2.058448     -2.057221   1.000000   1.000000
    2       -2.058440     -2.057212   1.000000   1.000000
    3        2.275138      2.276207   1.000000   1.000000
    4        2.275139      2.276208   1.000000   1.000000
    5        7.599877      7.600573   0.000000   0.000000
    6        7.599878      7.600574   0.000000   0.000000
    7       13.363931     13.364825   0.000000   0.000000
    8       13.363932     13.364826   0.000000   0.000000
    9       16.065581     16.066315   0.000000   0.000000
   10       16.065581     16.066315   0.000000   0.000000
   11       18.332398     18.333140   0.000000   0.000000
   12       18.332400     18.333142   0.000000   0.000000
 
 -0.2500000E+00  0.2500000E+00  0.2500000E+00  0.1171875E-01
    1       -1.977696     -1.976453   1.000000   1.000000
    2       -1.977687     -1.976444   1.000000   1.000000
    3        1.853532      1.854541   1.000000   1.000000
    4        1.853532      1.854542   1.000000   1.000000
    5        9.884036      9.884622   0.000000   0.000000
    6        9.884038      9.884624   0.000000   0.000000
    7       10.543741     10.544749   0.000000   0.000000
    8       10.543743     10.544751   0.000000   0.000000
    9       16.063187     16.063979   0.000000   0.000000
   10       16.063188     16.063980   0.000000   0.000000
   11       18.481608     18.482406   0.000000   0.000000
   12       18.481610     18.482408   0.000000   0.000000
