PROCAR lm decomposed
# of k-points:   29         # of bands:  12         # of ions:   2

 k-point    1 :    0.00000000 0.00000000 0.00000000     weight = 0.00195312

band   1 # energy   -6.19944205 # occ.  1.00000000
 
ion      s     py     pz     px    dxy    dyz    dz2    dxz    dx2    tot
  1  0.212  0.000  0.000  0.000  0.000  0.000  0.000  0.000  0.000  0.212
  2  0.212  0.000  0.000  0.000  0.000  0.000  0.000  0.000  0.000  0.212
tot  0.424  0.000  0.000  0.000  0.000  0.000  0.000  0.000  0.000  0.424
 
band   2 # energy    5.61325710 # occ.  1.00000000
 
ion      s     py     pz     px    dxy    dyz    dz2    dxz    dx2    tot
  1  0.000  0.157  0.057  0.000  0.000  0.000  0.000  0.000  0.000  0.214
  2  0.000  0.157  0.057  0.000  0.000  0.000  0.000  0.000  0.000  0.214
tot  0.000  0.314  0.114  0.000  0.000  0.000  0.000  0.000  0.000  0.428
 
band   3 # energy    5.61326095 # occ.  1.00000000
 
ion      s     py     pz     px    dxy    dyz    dz2    dxz    dx2    tot
  1  0.000  0.057  0.157  0.000  0.000  0.000  0.000  0.000  0.000  0.214
  2  0.000  0.057  0.157  0.000  0.000  0.000  0.000  0.000  0.000  0.214
tot  0.000  0.114  0.313  0.001  0.000  0.000  0.000  0.000  0.000  0.428
 
band   4 # energy    5.61326157 # occ.  1.00000000
 
ion      s     py     pz     px    dxy    dyz    dz2    dxz    dx2    tot
  1  0.000  0.000  0.000  0.213  0.000  0.000  0.000  0.000  0.000  0.214
  2  0.000  0.000  0.000  0.213  0.000  0.000  0.000  0.000  0.000  0.214
tot  0.000  0.000  0.000  0.427  0.000  0.000  0.000  0.000  0.000  0.428
 
band   5 # energy    8.16950346 # occ.  0.00000000
 
ion      s     py     pz     px    dxy    dyz    dz2    dxz    dx2    tot
  1  0.000  0.000  0.000  0.151  0.000  0.000  0.000  0.000  0.000  0.151
  2  0.000  0.000  0.000  0.151  0.000  0.000  0.000  0.000  0.000  0.151
tot  0.000  0.000  0.000  0.301  0.000  0.000  0.000  0.000  0.000  0.301
 
band   6 # energy    8.16950498 # occ.  0.00000000
 
ion      s     py     pz     px    dxy    dyz    dz2    dxz    dx2    tot
  1  0.000  0.010  0.141  0.000  0.000  0.000  0.000  0.000  0.000  0.151
  2  0.000  0.010  0.141  0.000  0.000  0.000  0.000  0.000  0.000  0.151
tot  0.000  0.020  0.281  0.000  0.000  0.000  0.000  0.000  0.000  0.301
 
band   7 # energy    8.16950678 # occ.  0.00000000
 
ion      s     py     pz     px    dxy    dyz    dz2    dxz    dx2    tot
  1  0.000  0.141  0.010  0.000  0.000  0.000  0.000  0.000  0.000  0.151
  2  0.000  0.141  0.010  0.000  0.000  0.000  0.000  0.000  0.000  0.151
tot  0.000  0.281  0.020  0.000  0.000  0.000  0.000  0.000  0.000  0.301
 
band   8 # energy    8.74328484 # occ.  0.00000000
 
ion      s     py     pz     px    dxy    dyz    dz2    dxz    dx2    tot
  1  0.359  0.000  0.000  0.000  0.000  0.000  0.000  0.000  0.000  0.359
  2  0.359  0.000  0.000  0.000  0.000  0.000  0.000  0.000  0.000  0.359
tot  0.717  0.000  0.000  0.000  0.000  0.000  0.000  0.000  0.000  0.717
 
band   9 # energy   13.32203698 # occ.  0.00000000
 
ion      s     py     pz     px    dxy    dyz    dz2    dxz    dx2    tot
  1  0.000  0.000  0.000  0.000  0.000  0.000  0.000  0.000  0.000  0.000
  2  0.000  0.000  0.000  0.000  0.000  0.000  0.000  0.000  0.000  0.000
tot  0.000  0.000  0.000  0.000  0.000  0.000  0.000  0.000  0.000  0.000
 
band  10 # energy   13.32204794 # occ.  0.00000000
 
ion      s     py     pz     px    dxy    dyz    dz2    dxz    dx2    tot
  1  0.000  0.000  0.000  0.000  0.000  0.000  0.000  0.000  0.000  0.000
  2  0.000  0.000  0.000  0.000  0.000  0.000  0.000  0.000  0.000  0.000
tot  0.000  0.000  0.000  0.000  0.000  0.000  0.000  0.000  0.000  0.000
 
band  11 # energy   13.49155268 # occ.  0.00000000
 
ion      s     py     pz     px    dxy    dyz    dz2    dxz    dx2    tot
  1  0.100  0.000  0.000  0.000  0.000  0.000  0.000  0.000  0.000  0.100
  2  0.100  0.000  0.000  0.000  0.000  0.000  0.000  0.000  0.000  0.100
tot  0.201  0.000  0.000  0.000  0.000  0.000  0.000  0.000  0.000  0.201
 
band  12 # energy   16.79449574 # occ.  0.00000000
 
ion      s     py     pz     px    dxy    dyz    dz2    dxz    dx2    tot
  1  0.000  0.008  0.018  0.013  0.000  0.000  0.000  0.000  0.000  0.039
  2  0.000  0.008  0.018  0.013  0.000  0.000  0.000  0.000  0.000  0.039
tot  0.000  0.015  0.036  0.027  0.000  0.000  0.000  0.000  0.000  0.078
 

 k-point    2 :    0.12500000 0.00000000-0.00000000     weight = 0.01562500

band   1 # energy   -5.99902325 # occ.  1.00000000
 
ion      s     py     pz     px    dxy    dyz    dz2    dxz    dx2    tot
  1  0.211  0.000  0.000  0.001  0.000  0.000  0.000  0.000  0.000  0.213
  2  0.211  0.000  0.000  0.001  0.000  0.000  0.000  0.000  0.000  0.213
tot  0.422  0.001  0.000  0.003  0.000  0.000  0.000  0.000  0.000  0.426
 
band   2 # energy    4.02254649 # occ.  1.00000000
 
ion      s     py     pz     px    dxy    dyz    dz2    dxz    dx2    tot
  1  0.064  0.034  0.017  0.103  0.000  0.000  0.000  0.000  0.000  0.219
  2  0.064  0.034  0.017  0.103  0.000  0.000  0.000  0.000  0.000  0.219
tot  0.128  0.069  0.034  0.207  0.000  0.000  0.000  0.000  0.000  0.438
 
band   3 # energy    5.33091129 # occ.  1.00000000
 
ion      s     py     pz     px    dxy    dyz    dz2    dxz    dx2    tot
  1  0.000  0.106  0.035  0.070  0.000  0.000  0.000  0.000  0.000  0.211
  2  0.000  0.106  0.035  0.070  0.000  0.000  0.000  0.000  0.000  0.211
tot  0.000  0.213  0.070  0.140  0.000  0.000  0.000  0.000  0.000  0.422
 
band   4 # energy    5.33091424 # occ.  1.00000000
 
ion      s     py     pz     px    dxy    dyz    dz2    dxz    dx2    tot
  1  0.000  0.058  0.153  0.000  0.000  0.000  0.000  0.000  0.000  0.211
  2  0.000  0.058  0.153  0.000  0.000  0.000  0.000  0.000  0.000  0.211
tot  0.000  0.116  0.305  0.001  0.000  0.000  0.000  0.000  0.000  0.422
 
band   5 # energy    8.05524566 # occ.  0.00000000
 
ion      s     py     pz     px    dxy    dyz    dz2    dxz    dx2    tot
  1  0.110  0.020  0.010  0.059  0.000  0.000  0.000  0.000  0.000  0.198
  2  0.110  0.020  0.010  0.059  0.000  0.000  0.000  0.000  0.000  0.198
tot  0.220  0.039  0.020  0.118  0.000  0.000  0.000  0.000  0.000  0.396
 
band   6 # energy    8.58489714 # occ.  0.00000000
 
ion      s     py     pz     px    dxy    dyz    dz2    dxz    dx2    tot
  1  0.000  0.001  0.126  0.027  0.000  0.000  0.000  0.000  0.000  0.154
  2  0.000  0.001  0.126  0.027  0.000  0.000  0.000  0.000  0.000  0.154
tot  0.000  0.002  0.252  0.054  0.000  0.000  0.000  0.000  0.000  0.308
 
band   7 # energy    8.58489809 # occ.  0.00000000
 
ion      s     py     pz     px    dxy    dyz    dz2    dxz    dx2    tot
  1  0.000  0.119  0.011  0.024  0.000  0.000  0.000  0.000  0.000  0.154
  2  0.000  0.119  0.011  0.024  0.000  0.000  0.000  0.000  0.000  0.154
tot  0.000  0.237  0.022  0.049  0.000  0.000  0.000  0.000  0.000  0.308
 
band   8 # energy   10.14324221 # occ.  0.00000000
 
ion      s     py     pz     px    dxy    dyz    dz2    dxz    dx2    tot
  1  0.196  0.022  0.011  0.066  0.000  0.000  0.000  0.000  0.000  0.295
  2  0.196  0.022  0.011  0.066  0.000  0.000  0.000  0.000  0.000  0.295
tot  0.392  0.044  0.022  0.132  0.000  0.000  0.000  0.000  0.000  0.590
 
band   9 # energy   12.84934207 # occ.  0.00000000
 
ion      s     py     pz     px    dxy    dyz    dz2    dxz    dx2    tot
  1  0.000  0.001  0.000  0.001  0.000  0.000  0.000  0.000  0.000  0.002
  2  0.000  0.001  0.000  0.001  0.000  0.000  0.000  0.000  0.000  0.002
tot  0.000  0.002  0.001  0.001  0.000  0.000  0.000  0.000  0.000  0.004
 
band  10 # energy   12.84935087 # occ.  0.00000000
 
ion      s     py     pz     px    dxy    dyz    dz2    dxz    dx2    tot
  1  0.000  0.001  0.001  0.000  0.000  0.000  0.000  0.000  0.000  0.002
  2  0.000  0.001  0.001  0.000  0.000  0.000  0.000  0.000  0.000  0.002
tot  0.000  0.001  0.002  0.000  0.000  0.000  0.000  0.000  0.000  0.004
 
band  11 # energy   14.26687790 # occ.  0.00000000
 
ion      s     py     pz     px    dxy    dyz    dz2    dxz    dx2    tot
  1  0.077  0.007  0.004  0.021  0.000  0.000  0.000  0.000  0.000  0.109
  2  0.077  0.007  0.004  0.021  0.000  0.000  0.000  0.000  0.000  0.109
tot  0.155  0.014  0.007  0.043  0.000  0.000  0.000  0.000  0.000  0.219
 
band  12 # energy   16.24148680 # occ.  0.00000000
 
ion      s     py     pz     px    dxy    dyz    dz2    dxz    dx2    tot
  1  0.015  0.005  0.002  0.015  0.000  0.000  0.000  0.000  0.000  0.037
  2  0.015  0.005  0.002  0.015  0.000  0.000  0.000  0.000  0.000  0.037
tot  0.030  0.010  0.005  0.029  0.000  0.000  0.000  0.000  0.000  0.074
 

 k-point    3 :    0.25000000 0.00000000-0.00000000     weight = 0.01562500

band   1 # energy   -5.41479117 # occ.  1.00000000
 
ion      s     py     pz     px    dxy    dyz    dz2    dxz    dx2    tot
  1  0.209  0.002  0.001  0.005  0.000  0.000  0.000  0.000  0.000  0.217
  2  0.209  0.002  0.001  0.005  0.000  0.000  0.000  0.000  0.000  0.217
tot  0.419  0.003  0.002  0.010  0.000  0.000  0.000  0.000  0.000  0.434
 
band   2 # energy    1.72751400 # occ.  1.00000000
 
ion      s     py     pz     px    dxy    dyz    dz2    dxz    dx2    tot
  1  0.097  0.026  0.013  0.078  0.000  0.000  0.000  0.000  0.000  0.214
  2  0.097  0.026  0.013  0.078  0.000  0.000  0.000  0.000  0.000  0.214
tot  0.194  0.052  0.026  0.156  0.000  0.000  0.000  0.000  0.000  0.428
 
band   3 # energy    4.86833541 # occ.  1.00000000
 
ion      s     py     pz     px    dxy    dyz    dz2    dxz    dx2    tot
  1  0.000  0.104  0.037  0.070  0.000  0.000  0.000  0.000  0.000  0.211
  2  0.000  0.104  0.037  0.070  0.000  0.000  0.000  0.000  0.000  0.211
tot  0.000  0.208  0.074  0.140  0.000  0.000  0.000  0.000  0.000  0.422
 
band   4 # energy    4.86833937 # occ.  1.00000000
 
ion      s     py     pz     px    dxy    dyz    dz2    dxz    dx2    tot
  1  0.000  0.060  0.151  0.000  0.000  0.000  0.000  0.000  0.000  0.211
  2  0.000  0.060  0.151  0.000  0.000  0.000  0.000  0.000  0.000  0.211
tot  0.000  0.120  0.302  0.001  0.000  0.000  0.000  0.000  0.000  0.422
 
band   5 # energy    7.57157964 # occ.  0.00000000
 
ion      s     py     pz     px    dxy    dyz    dz2    dxz    dx2    tot
  1  0.156  0.011  0.005  0.032  0.000  0.000  0.000  0.000  0.000  0.205
  2  0.156  0.011  0.005  0.032  0.000  0.000  0.000  0.000  0.000  0.205
tot  0.312  0.022  0.011  0.065  0.000  0.000  0.000  0.000  0.000  0.409
 
band   6 # energy    9.10277908 # occ.  0.00000000
 
ion      s     py     pz     px    dxy    dyz    dz2    dxz    dx2    tot
  1  0.000  0.043  0.051  0.045  0.000  0.000  0.000  0.000  0.000  0.139
  2  0.000  0.043  0.051  0.045  0.000  0.000  0.000  0.000  0.000  0.139
tot  0.000  0.085  0.102  0.090  0.000  0.000  0.000  0.000  0.000  0.277
 
band   7 # energy    9.10278206 # occ.  0.00000000
 
ion      s     py     pz     px    dxy    dyz    dz2    dxz    dx2    tot
  1  0.000  0.065  0.072  0.001  0.000  0.000  0.000  0.000  0.000  0.139
  2  0.000  0.065  0.072  0.001  0.000  0.000  0.000  0.000  0.000  0.139
tot  0.000  0.130  0.144  0.003  0.000  0.000  0.000  0.000  0.000  0.278
 
band   8 # energy   12.36204743 # occ.  0.00000000
 
ion      s     py     pz     px    dxy    dyz    dz2    dxz    dx2    tot
  1  0.111  0.034  0.017  0.101  0.000  0.000  0.000  0.000  0.000  0.262
  2  0.111  0.034  0.017  0.101  0.000  0.000  0.000  0.000  0.000  0.262
tot  0.222  0.067  0.034  0.201  0.000  0.000  0.000  0.000  0.000  0.524
 
band   9 # energy   12.80030298 # occ.  0.00000000
 
ion      s     py     pz     px    dxy    dyz    dz2    dxz    dx2    tot
  1  0.000  0.006  0.004  0.005  0.000  0.000  0.000  0.000  0.000  0.016
  2  0.000  0.006  0.004  0.005  0.000  0.000  0.000  0.000  0.000  0.016
tot  0.000  0.013  0.009  0.011  0.000  0.000  0.000  0.000  0.000  0.032
 
band  10 # energy   12.80030613 # occ.  0.00000000
 
ion      s     py     pz     px    dxy    dyz    dz2    dxz    dx2    tot
  1  0.000  0.006  0.010  0.000  0.000  0.000  0.000  0.000  0.000  0.016
  2  0.000  0.006  0.010  0.000  0.000  0.000  0.000  0.000  0.000  0.016
tot  0.000  0.012  0.020  0.000  0.000  0.000  0.000  0.000  0.000  0.032
 
band  11 # energy   14.54338602 # occ.  0.00000000
 
ion      s     py     pz     px    dxy    dyz    dz2    dxz    dx2    tot
  1  0.048  0.005  0.002  0.014  0.000  0.000  0.000  0.000  0.000  0.069
  2  0.048  0.005  0.002  0.014  0.000  0.000  0.000  0.000  0.000  0.069
tot  0.095  0.009  0.005  0.028  0.000  0.000  0.000  0.000  0.000  0.138
 
band  12 # energy   17.32434201 # occ.  0.00000000
 
ion      s     py     pz     px    dxy    dyz    dz2    dxz    dx2    tot
  1  0.036  0.016  0.008  0.049  0.000  0.000  0.000  0.000  0.000  0.109
  2  0.036  0.016  0.008  0.049  0.000  0.000  0.000  0.000  0.000  0.109
tot  0.073  0.032  0.016  0.097  0.000  0.000  0.000  0.000  0.000  0.218
 

 k-point    4 :    0.37500000 0.00000000 0.00000000     weight = 0.01562500

band   1 # energy   -4.54059316 # occ.  1.00000000
 
ion      s     py     pz     px    dxy    dyz    dz2    dxz    dx2    tot
  1  0.212  0.003  0.002  0.009  0.000  0.000  0.000  0.000  0.000  0.226
  2  0.212  0.003  0.002  0.009  0.000  0.000  0.000  0.000  0.000  0.226
tot  0.424  0.006  0.003  0.018  0.000  0.000  0.000  0.000  0.000  0.451
 
band   2 # energy   -0.25625922 # occ.  1.00000000
 
ion      s     py     pz     px    dxy    dyz    dz2    dxz    dx2    tot
  1  0.108  0.021  0.011  0.064  0.000  0.000  0.000  0.000  0.000  0.204
  2  0.108  0.021  0.011  0.064  0.000  0.000  0.000  0.000  0.000  0.204
tot  0.215  0.043  0.021  0.128  0.000  0.000  0.000  0.000  0.000  0.408
 
band   3 # energy    4.54562374 # occ.  1.00000000
 
ion      s     py     pz     px    dxy    dyz    dz2    dxz    dx2    tot
  1  0.000  0.105  0.038  0.071  0.000  0.000  0.000  0.000  0.000  0.214
  2  0.000  0.105  0.038  0.071  0.000  0.000  0.000  0.000  0.000  0.214
tot  0.000  0.210  0.076  0.142  0.000  0.000  0.000  0.000  0.000  0.428
 
band   4 # energy    4.54562852 # occ.  1.00000000
 
ion      s     py     pz     px    dxy    dyz    dz2    dxz    dx2    tot
  1  0.000  0.062  0.152  0.000  0.000  0.000  0.000  0.000  0.000  0.214
  2  0.000  0.062  0.152  0.000  0.000  0.000  0.000  0.000  0.000  0.214
tot  0.000  0.123  0.304  0.001  0.000  0.000  0.000  0.000  0.000  0.428
 
band   5 # energy    7.20707447 # occ.  0.00000000
 
ion      s     py     pz     px    dxy    dyz    dz2    dxz    dx2    tot
  1  0.178  0.006  0.003  0.018  0.000  0.000  0.000  0.000  0.000  0.205
  2  0.178  0.006  0.003  0.018  0.000  0.000  0.000  0.000  0.000  0.205
tot  0.355  0.012  0.006  0.037  0.000  0.000  0.000  0.000  0.000  0.411
 
band   6 # energy    9.06609315 # occ.  0.00000000
 
ion      s     py     pz     px    dxy    dyz    dz2    dxz    dx2    tot
  1  0.000  0.039  0.032  0.035  0.000  0.000  0.000  0.000  0.000  0.106
  2  0.000  0.039  0.032  0.035  0.000  0.000  0.000  0.000  0.000  0.106
tot  0.000  0.078  0.064  0.070  0.000  0.000  0.000  0.000  0.000  0.212
 
band   7 # energy    9.06609863 # occ.  0.00000000
 
ion      s     py     pz     px    dxy    dyz    dz2    dxz    dx2    tot
  1  0.000  0.044  0.062  0.000  0.000  0.000  0.000  0.000  0.000  0.106
  2  0.000  0.044  0.062  0.000  0.000  0.000  0.000  0.000  0.000  0.106
tot  0.000  0.087  0.124  0.001  0.000  0.000  0.000  0.000  0.000  0.212
 
band   8 # energy   13.45119317 # occ.  0.00000000
 
ion      s     py     pz     px    dxy    dyz    dz2    dxz    dx2    tot
  1  0.004  0.019  0.010  0.058  0.000  0.000  0.000  0.000  0.000  0.091
  2  0.004  0.019  0.010  0.058  0.000  0.000  0.000  0.000  0.000  0.091
tot  0.008  0.039  0.019  0.117  0.000  0.000  0.000  0.000  0.000  0.183
 
band   9 # energy   14.15183028 # occ.  0.00000000
 
ion      s     py     pz     px    dxy    dyz    dz2    dxz    dx2    tot
  1  0.000  0.008  0.032  0.000  0.000  0.000  0.000  0.000  0.000  0.040
  2  0.000  0.008  0.032  0.000  0.000  0.000  0.000  0.000  0.000  0.040
tot  0.000  0.016  0.064  0.001  0.000  0.000  0.000  0.000  0.000  0.080
 
band  10 # energy   14.15183308 # occ.  0.00000000
 
ion      s     py     pz     px    dxy    dyz    dz2    dxz    dx2    tot
  1  0.000  0.023  0.004  0.013  0.000  0.000  0.000  0.000  0.000  0.040
  2  0.000  0.023  0.004  0.013  0.000  0.000  0.000  0.000  0.000  0.040
tot  0.000  0.047  0.008  0.026  0.000  0.000  0.000  0.000  0.000  0.081
 
band  11 # energy   15.12368086 # occ.  0.00000000
 
ion      s     py     pz     px    dxy    dyz    dz2    dxz    dx2    tot
  1  0.100  0.022  0.011  0.067  0.000  0.000  0.000  0.000  0.000  0.202
  2  0.100  0.022  0.011  0.067  0.000  0.000  0.000  0.000  0.000  0.202
tot  0.201  0.045  0.022  0.135  0.000  0.000  0.000  0.000  0.000  0.403
 
band  12 # energy   19.23304297 # occ.  0.00000000
 
ion      s     py     pz     px    dxy    dyz    dz2    dxz    dx2    tot
  1  0.000  0.004  0.055  0.004  0.000  0.000  0.000  0.000  0.000  0.064
  2  0.000  0.007  0.050  0.006  0.000  0.000  0.000  0.000  0.000  0.064
tot  0.000  0.012  0.105  0.010  0.000  0.000  0.000  0.000  0.000  0.127
 

 k-point    5 :    0.50000000 0.00000000-0.00000000     weight = 0.00781250

band   1 # energy   -3.92161306 # occ.  1.00000000
 
ion      s     py     pz     px    dxy    dyz    dz2    dxz    dx2    tot
  1  0.224  0.003  0.001  0.009  0.000  0.000  0.000  0.000  0.000  0.237
  2  0.224  0.003  0.001  0.009  0.000  0.000  0.000  0.000  0.000  0.237
tot  0.447  0.006  0.003  0.018  0.000  0.000  0.000  0.000  0.000  0.474
 
band   2 # energy   -1.25386932 # occ.  1.00000000
 
ion      s     py     pz     px    dxy    dyz    dz2    dxz    dx2    tot
  1  0.100  0.020  0.010  0.061  0.000  0.000  0.000  0.000  0.000  0.192
  2  0.100  0.020  0.010  0.061  0.000  0.000  0.000  0.000  0.000  0.192
tot  0.199  0.041  0.020  0.123  0.000  0.000  0.000  0.000  0.000  0.384
 
band   3 # energy    4.43501583 # occ.  1.00000000
 
ion      s     py     pz     px    dxy    dyz    dz2    dxz    dx2    tot
  1  0.000  0.106  0.038  0.072  0.000  0.000  0.000  0.000  0.000  0.215
  2  0.000  0.106  0.038  0.072  0.000  0.000  0.000  0.000  0.000  0.215
tot  0.000  0.211  0.077  0.143  0.000  0.000  0.000  0.000  0.000  0.431
 
band   4 # energy    4.43502093 # occ.  1.00000000
 
ion      s     py     pz     px    dxy    dyz    dz2    dxz    dx2    tot
  1  0.000  0.062  0.153  0.000  0.000  0.000  0.000  0.000  0.000  0.215
  2  0.000  0.062  0.153  0.000  0.000  0.000  0.000  0.000  0.000  0.215
tot  0.000  0.124  0.306  0.001  0.000  0.000  0.000  0.000  0.000  0.431
 
band   5 # energy    7.07892929 # occ.  0.00000000
 
ion      s     py     pz     px    dxy    dyz    dz2    dxz    dx2    tot
  1  0.185  0.005  0.002  0.014  0.000  0.000  0.000  0.000  0.000  0.206
  2  0.185  0.005  0.002  0.014  0.000  0.000  0.000  0.000  0.000  0.206
tot  0.370  0.009  0.005  0.028  0.000  0.000  0.000  0.000  0.000  0.411
 
band   6 # energy    8.96259494 # occ.  0.00000000
 
ion      s     py     pz     px    dxy    dyz    dz2    dxz    dx2    tot
  1  0.000  0.036  0.028  0.031  0.000  0.000  0.000  0.000  0.000  0.095
  2  0.000  0.036  0.028  0.031  0.000  0.000  0.000  0.000  0.000  0.095
tot  0.000  0.072  0.055  0.063  0.000  0.000  0.000  0.000  0.000  0.190
 
band   7 # energy    8.96260094 # occ.  0.00000000
 
ion      s     py     pz     px    dxy    dyz    dz2    dxz    dx2    tot
  1  0.000  0.038  0.057  0.000  0.000  0.000  0.000  0.000  0.000  0.095
  2  0.000  0.038  0.057  0.000  0.000  0.000  0.000  0.000  0.000  0.095
tot  0.000  0.076  0.114  0.000  0.000  0.000  0.000  0.000  0.000  0.190
 
band   8 # energy   13.31617005 # occ.  0.00000000
 
ion      s     py     pz     px    dxy    dyz    dz2    dxz    dx2    tot
  1  0.005  0.012  0.006  0.036  0.000  0.000  0.000  0.000  0.000  0.060
  2  0.005  0.012  0.006  0.036  0.000  0.000  0.000  0.000  0.000  0.060
tot  0.011  0.024  0.012  0.073  0.000  0.000  0.000  0.000  0.000  0.120
 
band   9 # energy   16.10767323 # occ.  0.00000000
 
ion      s     py     pz     px    dxy    dyz    dz2    dxz    dx2    tot
  1  0.000  0.000  0.000  0.000  0.000  0.000  0.000  0.000  0.000  0.000
  2  0.000  0.000  0.000  0.000  0.000  0.000  0.000  0.000  0.000  0.000
tot  0.000  0.000  0.000  0.000  0.000  0.000  0.000  0.000  0.000  0.001
 
band  10 # energy   16.10768155 # occ.  0.00000000
 
ion      s     py     pz     px    dxy    dyz    dz2    dxz    dx2    tot
  1  0.000  0.000  0.000  0.000  0.000  0.000  0.000  0.000  0.000  0.000
  2  0.000  0.000  0.000  0.000  0.000  0.000  0.000  0.000  0.000  0.000
tot  0.000  0.000  0.000  0.000  0.000  0.000  0.000  0.000  0.000  0.001
 
band  11 # energy   16.79415399 # occ.  0.00000000
 
ion      s     py     pz     px    dxy    dyz    dz2    dxz    dx2    tot
  1  0.037  0.031  0.009  0.109  0.000  0.000  0.000  0.000  0.000  0.186
  2  0.037  0.031  0.009  0.109  0.000  0.000  0.000  0.000  0.000  0.186
tot  0.074  0.061  0.018  0.218  0.000  0.000  0.000  0.000  0.000  0.371
 
band  12 # energy   16.83109774 # occ.  0.00000000
 
ion      s     py     pz     px    dxy    dyz    dz2    dxz    dx2    tot
  1  0.000  0.069  0.023  0.023  0.000  0.000  0.000  0.000  0.000  0.115
  2  0.000  0.069  0.023  0.023  0.000  0.000  0.000  0.000  0.000  0.115
tot  0.000  0.137  0.046  0.046  0.000  0.000  0.000  0.000  0.000  0.230
 

 k-point    6 :    0.00000000 0.12500000 0.00000000     weight = 0.01171875

band   1 # energy   -5.93145351 # occ.  1.00000000
 
ion      s     py     pz     px    dxy    dyz    dz2    dxz    dx2    tot
  1  0.211  0.002  0.001  0.000  0.000  0.000  0.000  0.000  0.000  0.213
  2  0.211  0.002  0.001  0.000  0.000  0.000  0.000  0.000  0.000  0.213
tot  0.421  0.004  0.002  0.000  0.000  0.000  0.000  0.000  0.000  0.427
 
band   2 # energy    4.26077506 # occ.  1.00000000
 
ion      s     py     pz     px    dxy    dyz    dz2    dxz    dx2    tot
  1  0.100  0.096  0.048  0.000  0.000  0.000  0.000  0.000  0.000  0.243
  2  0.100  0.096  0.048  0.000  0.000  0.000  0.000  0.000  0.000  0.243
tot  0.200  0.191  0.096  0.000  0.000  0.000  0.000  0.000  0.000  0.487
 
band   3 # energy    4.82695734 # occ.  1.00000000
 
ion      s     py     pz     px    dxy    dyz    dz2    dxz    dx2    tot
  1  0.000  0.006  0.012  0.184  0.000  0.000  0.000  0.000  0.000  0.202
  2  0.000  0.006  0.012  0.184  0.000  0.000  0.000  0.000  0.000  0.202
tot  0.000  0.012  0.023  0.368  0.000  0.000  0.000  0.000  0.000  0.403
 
band   4 # energy    4.82695737 # occ.  1.00000000
 
ion      s     py     pz     px    dxy    dyz    dz2    dxz    dx2    tot
  1  0.000  0.061  0.123  0.018  0.000  0.000  0.000  0.000  0.000  0.202
  2  0.000  0.061  0.123  0.018  0.000  0.000  0.000  0.000  0.000  0.202
tot  0.000  0.123  0.246  0.035  0.000  0.000  0.000  0.000  0.000  0.403
 
band   5 # energy    7.62871234 # occ.  0.00000000
 
ion      s     py     pz     px    dxy    dyz    dz2    dxz    dx2    tot
  1  0.020  0.079  0.039  0.000  0.000  0.000  0.000  0.000  0.000  0.138
  2  0.020  0.079  0.039  0.000  0.000  0.000  0.000  0.000  0.000  0.138
tot  0.040  0.157  0.079  0.000  0.000  0.000  0.000  0.000  0.000  0.276
 
band   6 # energy    9.28418915 # occ.  0.00000000
 
ion      s     py     pz     px    dxy    dyz    dz2    dxz    dx2    tot
  1  0.000  0.000  0.000  0.163  0.000  0.000  0.000  0.000  0.000  0.163
  2  0.000  0.000  0.000  0.163  0.000  0.000  0.000  0.000  0.000  0.163
tot  0.000  0.000  0.000  0.326  0.000  0.000  0.000  0.000  0.000  0.326
 
band   7 # energy    9.28419012 # occ.  0.00000000
 
ion      s     py     pz     px    dxy    dyz    dz2    dxz    dx2    tot
  1  0.000  0.054  0.109  0.000  0.000  0.000  0.000  0.000  0.000  0.163
  2  0.000  0.054  0.109  0.000  0.000  0.000  0.000  0.000  0.000  0.163
tot  0.000  0.109  0.217  0.000  0.000  0.000  0.000  0.000  0.000  0.326
 
band   8 # energy    9.83062015 # occ.  0.00000000
 
ion      s     py     pz     px    dxy    dyz    dz2    dxz    dx2    tot
  1  0.223  0.051  0.026  0.000  0.000  0.000  0.000  0.000  0.000  0.300
  2  0.223  0.051  0.026  0.000  0.000  0.000  0.000  0.000  0.000  0.300
tot  0.446  0.103  0.051  0.000  0.000  0.000  0.000  0.000  0.000  0.600
 
band   9 # energy   12.09723368 # occ.  0.00000000
 
ion      s     py     pz     px    dxy    dyz    dz2    dxz    dx2    tot
  1  0.034  0.002  0.001  0.000  0.000  0.000  0.000  0.000  0.000  0.037
  2  0.034  0.002  0.001  0.000  0.000  0.000  0.000  0.000  0.000  0.037
tot  0.069  0.003  0.002  0.000  0.000  0.000  0.000  0.000  0.000  0.074
 
band  10 # energy   13.62024428 # occ.  0.00000000
 
ion      s     py     pz     px    dxy    dyz    dz2    dxz    dx2    tot
  1  0.000  0.000  0.000  0.000  0.000  0.000  0.000  0.000  0.000  0.000
  2  0.000  0.000  0.000  0.000  0.000  0.000  0.000  0.000  0.000  0.000
tot  0.000  0.000  0.000  0.000  0.000  0.000  0.000  0.000  0.000  0.000
 
band  11 # energy   14.56127242 # occ.  0.00000000
 
ion      s     py     pz     px    dxy    dyz    dz2    dxz    dx2    tot
  1  0.075  0.025  0.013  0.000  0.000  0.000  0.000  0.000  0.000  0.113
  2  0.075  0.025  0.013  0.000  0.000  0.000  0.000  0.000  0.000  0.113
tot  0.150  0.051  0.025  0.000  0.000  0.000  0.000  0.000  0.000  0.226
 
band  12 # energy   17.26089655 # occ.  0.00000000
 
ion      s     py     pz     px    dxy    dyz    dz2    dxz    dx2    tot
  1  0.000  0.002  0.005  0.029  0.000  0.000  0.000  0.000  0.000  0.036
  2  0.000  0.002  0.005  0.029  0.000  0.000  0.000  0.000  0.000  0.036
tot  0.000  0.004  0.009  0.058  0.000  0.000  0.000  0.000  0.000  0.072
 

 k-point    7 :    0.25000000 0.12500000 0.00000000     weight = 0.02343750

band   1 # energy   -5.66903732 # occ.  1.00000000
 
ion      s     py     pz     px    dxy    dyz    dz2    dxz    dx2    tot
  1  0.210  0.000  0.000  0.005  0.000  0.000  0.000  0.000  0.000  0.215
  2  0.210  0.000  0.000  0.005  0.000  0.000  0.000  0.000  0.000  0.215
tot  0.419  0.000  0.000  0.011  0.000  0.000  0.000  0.000  0.000  0.430
 
band   2 # energy    2.93886151 # occ.  1.00000000
 
ion      s     py     pz     px    dxy    dyz    dz2    dxz    dx2    tot
  1  0.104  0.019  0.010  0.099  0.000  0.000  0.000  0.000  0.000  0.232
  2  0.104  0.019  0.010  0.099  0.000  0.000  0.000  0.000  0.000  0.232
tot  0.208  0.039  0.019  0.198  0.000  0.000  0.000  0.000  0.000  0.464
 
band   3 # energy    4.02470813 # occ.  1.00000000
 
ion      s     py     pz     px    dxy    dyz    dz2    dxz    dx2    tot
  1  0.007  0.082  0.041  0.057  0.000  0.000  0.000  0.000  0.000  0.187
  2  0.007  0.082  0.041  0.057  0.000  0.000  0.000  0.000  0.000  0.187
tot  0.014  0.165  0.082  0.114  0.000  0.000  0.000  0.000  0.000  0.375
 
band   4 # energy    5.32351910 # occ.  1.00000000
 
ion      s     py     pz     px    dxy    dyz    dz2    dxz    dx2    tot
  1  0.000  0.073  0.145  0.000  0.000  0.000  0.000  0.000  0.000  0.218
  2  0.000  0.073  0.145  0.000  0.000  0.000  0.000  0.000  0.000  0.218
tot  0.000  0.145  0.291  0.000  0.000  0.000  0.000  0.000  0.000  0.436
 
band   5 # energy    8.58054981 # occ.  0.00000000
 
ion      s     py     pz     px    dxy    dyz    dz2    dxz    dx2    tot
  1  0.109  0.066  0.033  0.000  0.000  0.000  0.000  0.000  0.000  0.208
  2  0.109  0.066  0.033  0.000  0.000  0.000  0.000  0.000  0.000  0.208
tot  0.217  0.133  0.066  0.000  0.000  0.000  0.000  0.000  0.000  0.416
 
band   6 # energy    8.72177735 # occ.  0.00000000
 
ion      s     py     pz     px    dxy    dyz    dz2    dxz    dx2    tot
  1  0.000  0.050  0.100  0.000  0.000  0.000  0.000  0.000  0.000  0.150
  2  0.000  0.050  0.100  0.000  0.000  0.000  0.000  0.000  0.000  0.150
tot  0.000  0.100  0.200  0.000  0.000  0.000  0.000  0.000  0.000  0.300
 
band   7 # energy    8.94382937 # occ.  0.00000000
 
ion      s     py     pz     px    dxy    dyz    dz2    dxz    dx2    tot
  1  0.025  0.058  0.029  0.043  0.000  0.000  0.000  0.000  0.000  0.154
  2  0.025  0.058  0.029  0.043  0.000  0.000  0.000  0.000  0.000  0.154
tot  0.050  0.116  0.058  0.085  0.000  0.000  0.000  0.000  0.000  0.309
 
band   8 # energy   11.04179929 # occ.  0.00000000
 
ion      s     py     pz     px    dxy    dyz    dz2    dxz    dx2    tot
  1  0.102  0.004  0.002  0.111  0.000  0.000  0.000  0.000  0.000  0.218
  2  0.102  0.004  0.002  0.111  0.000  0.000  0.000  0.000  0.000  0.218
tot  0.204  0.007  0.004  0.222  0.000  0.000  0.000  0.000  0.000  0.437
 
band   9 # energy   11.96937646 # occ.  0.00000000
 
ion      s     py     pz     px    dxy    dyz    dz2    dxz    dx2    tot
  1  0.000  0.000  0.000  0.000  0.000  0.000  0.000  0.000  0.000  0.000
  2  0.000  0.000  0.000  0.000  0.000  0.000  0.000  0.000  0.000  0.000
tot  0.000  0.000  0.000  0.000  0.000  0.000  0.000  0.000  0.000  0.000
 
band  10 # energy   13.57799615 # occ.  0.00000000
 
ion      s     py     pz     px    dxy    dyz    dz2    dxz    dx2    tot
  1  0.038  0.010  0.005  0.018  0.000  0.000  0.000  0.000  0.000  0.071
  2  0.038  0.010  0.005  0.018  0.000  0.000  0.000  0.000  0.000  0.071
tot  0.075  0.020  0.010  0.036  0.000  0.000  0.000  0.000  0.000  0.141
 
band  11 # energy   15.26886097 # occ.  0.00000000
 
ion      s     py     pz     px    dxy    dyz    dz2    dxz    dx2    tot
  1  0.053  0.008  0.004  0.055  0.000  0.000  0.000  0.000  0.000  0.120
  2  0.053  0.008  0.004  0.055  0.000  0.000  0.000  0.000  0.000  0.120
tot  0.106  0.016  0.008  0.111  0.000  0.000  0.000  0.000  0.000  0.241
 
band  12 # energy   16.72732163 # occ.  0.00000000
 
ion      s     py     pz     px    dxy    dyz    dz2    dxz    dx2    tot
  1  0.017  0.001  0.000  0.008  0.000  0.000  0.000  0.000  0.000  0.026