<?xml version="1.0" encoding="ISO-8859-1"?>
<modeling>
 <generator>
  <i name="program" type="string">vasp </i>
  <i name="version" type="string">5.4.1  </i>
  <i name="subversion" type="string">24Jun15 (build Feb 01 2016 23:38:11) complex                          parallel </i>
  <i name="platform" type="string">IFC91_impi </i>
  <i name="date" type="string">2016 03 21 </i>
  <i name="time" type="string">10:59:30 </i>
 </generator>
 <incar>
  <i type="string" name="PREC">accurate</i>
  <i type="string" name="ALGO"> Fast</i>
  <i type="int" name="ISPIN">     2</i>
  <i type="int" name="ICHARG">     1</i>
  <i type="int" name="NELM">   100</i>
  <i type="int" name="IBRION">     2</i>
  <i name="EDIFF">      0.00010000</i>
  <i type="int" name="NSW">    99</i>
  <i type="int" name="ISIF">     3</i>
  <i name="ENCUT">    520.00000000</i>
  <v name="MAGMOM">      0.60000000      0.60000000</v>
  <i type="string" name="LREAL"> Auto</i>
  <i type="int" name="ISMEAR">    -5</i>
  <i name="SIGMA">      0.05000000</i>
  <i type="logical" name="LWAVE"> F  </i>
  <i type="logical" name="LORBIT"> F  </i>
  <v type="int" name="KPOINT_BSE">    -1     0     0     0</v>
  <i type="int" name="NELM">   100</i>
 </incar>
 <kpoints>
  <generation param="Gamma">
   <v type="int" name="divisions">       8        8        8 </v>
   <v name="usershift">      0.00000000       0.00000000       0.00000000 </v>
   <v name="genvec1">      0.12500000       0.00000000      -0.00000000 </v>
   <v name="genvec2">      0.00000000       0.12500000       0.00000000 </v>
   <v name="genvec3">      0.00000000       0.00000000       0.12500000 </v>
   <v name="shift">      0.00000000       0.00000000       0.00000000 </v>
  </generation>
  <varray name="kpointlist" >
   <v>       0.00000000       0.00000000       0.00000000 </v>
   <v>       0.12500000       0.00000000      -0.00000000 </v>
   <v>       0.25000000       0.00000000      -0.00000000 </v>
   <v>       0.37500000       0.00000000       0.00000000 </v>
   <v>       0.50000000       0.00000000      -0.00000000 </v>
   <v>       0.00000000       0.12500000       0.00000000 </v>
   <v>       0.25000000       0.12500000       0.00000000 </v>
   <v>       0.37500000       0.12500000       0.00000000 </v>
   <v>       0.50000000       0.12500000      -0.00000000 </v>
   <v>      -0.37500000       0.12500000      -0.00000000 </v>
   <v>      -0.25000000       0.12500000       0.00000000 </v>
   <v>      -0.12500000       0.12500000      -0.00000000 </v>
   <v>       0.00000000       0.25000000       0.00000000 </v>
   <v>       0.50000000       0.25000000       0.00000000 </v>
   <v>      -0.37500000       0.25000000       0.00000000 </v>
   <v>      -0.25000000       0.25000000      -0.00000000 </v>
   <v>      -0.12500000       0.25000000       0.00000000 </v>
   <v>       0.00000000       0.37500000      -0.00000000 </v>
   <v>      -0.25000000       0.37500000       0.00000000 </v>
   <v>      -0.12500000       0.37500000       0.00000000 </v>
   <v>       0.00000000       0.50000000       0.00000000 </v>
   <v>       0.37500000       0.12500000       0.12500000 </v>
   <v>       0.50000000       0.12500000       0.12500000 </v>
   <v>      -0.37500000       0.12500000       0.12500000 </v>
   <v>      -0.37500000       0.25000000       0.12500000 </v>
   <v>      -0.25000000       0.25000000       0.12500000 </v>
   <v>      -0.12500000       0.25000000       0.12500000 </v>
   <v>      -0.12500000       0.37500000       0.12500000 </v>
   <v>      -0.25000000       0.25000000       0.25000000 </v>
  </varray>
  <varray name="weights" >
   <v>       0.00195312 </v>
   <v>       0.01562500 </v>
   <v>       0.01562500 </v>
   <v>       0.01562500 </v>
   <v>       0.00781250 </v>
   <v>       0.01171875 </v>
   <v>       0.02343750 </v>
   <v>       0.04687500 </v>
   <v>       0.04687500 </v>
   <v>       0.04687500 </v>
   <v>       0.04687500 </v>
   <v>       0.04687500 </v>
   <v>       0.01171875 </v>
   <v>       0.02343750 </v>
   <v>       0.04687500 </v>
   <v>       0.04687500 </v>
   <v>       0.04687500 </v>
   <v>       0.01171875 </v>
   <v>       0.02343750 </v>
   <v>       0.04687500 </v>
   <v>       0.00585938 </v>
   <v>       0.04687500 </v>
   <v>       0.09375000 </v>
   <v>       0.04687500 </v>
   <v>       0.04687500 </v>
   <v>       0.09375000 </v>
   <v>       0.04687500 </v>
   <v>       0.02343750 </v>
   <v>       0.01171875 </v>
  </varray>
  <varray name="tetrahedronlist"  type="int" >
   <v type="int" >        4        1        2        2        2 </v>
   <v type="int" >        8        1        2        2        6 </v>
   <v type="int" >        8        2        2        6       12 </v>
   <v type="int" >        4        2        2        2        6 </v>
   <v type="int" >        8        2        2        6        7 </v>
   <v type="int" >        8        2        2        7       12 </v>
   <v type="int" >        8        2        3        6        7 </v>
   <v type="int" >        4        2        6        7        7 </v>
   <v type="int" >        8        3        6        7       12 </v>
   <v type="int" >        8        6        7       12       12 </v>
   <v type="int" >        4        6        7        7       12 </v>
   <v type="int" >        8        3        4        8       12 </v>
   <v type="int" >       16        3        7        8       12 </v>
   <v type="int" >       12        7        8       12       12 </v>
   <v type="int" >        8        4        8       11       12 </v>
   <v type="int" >       16        8       11       12       22 </v>
   <v type="int" >        8        8       12       12       22 </v>
   <v type="int" >        8        4        5        9       11 </v>
   <v type="int" >       16        4        8        9       11 </v>
   <v type="int" >        8        8        9       11       22 </v>
   <v type="int" >        8        5        9       10       11 </v>
   <v type="int" >       16        9       10       11       23 </v>
   <v type="int" >        8        9       11       22       23 </v>
   <v type="int" >       12        4        5       10       10 </v>
   <v type="int" >       16        5        9       10       10 </v>
   <v type="int" >        8        9       10       10       23 </v>
   <v type="int" >       12        4        9       10       10 </v>
   <v type="int" >       16        9       10       10       24 </v>
   <v type="int" >        8       10       10       23       24 </v>
   <v type="int" >        8        3        4        9       11 </v>
   <v type="int" >       16        4        9       10       11 </v>
   <v type="int" >        8        9       10       11       24 </v>
   <v type="int" >        8        3        8        9       11 </v>
   <v type="int" >       16        8        9       11       23 </v>
   <v type="int" >        8        9       11       23       24 </v>
   <v type="int" >        8        2        3        8       12 </v>
   <v type="int" >       16        3        8       11       12 </v>
   <v type="int" >        8        8       11       12       23 </v>
   <v type="int" >        8        2        7        8       12 </v>
   <v type="int" >       16        7        8       12       22 </v>
   <v type="int" >        8        8       12       22       23 </v>
   <v type="int" >        8        1        2        6        7 </v>
   <v type="int" >       16        2        6        7       12 </v>
   <v type="int" >        8        6        7       12       22 </v>
   <v type="int" >        8        2        6       12       12 </v>
   <v type="int" >        8        6       12       12       13 </v>
   <v type="int" >        8       12       12       13       17 </v>
   <v type="int" >       12        2        7       12       12 </v>
   <v type="int" >        8        7       12       12       22 </v>
   <v type="int" >        8       12       12       17       22 </v>
   <v type="int" >        4        2        3        7        7 </v>
   <v type="int" >       16        2        3        7       12 </v>
   <v type="int" >        8        3        7       12       22 </v>
   <v type="int" >        4        3        7        7       12 </v>
   <v type="int" >        8        3        7        8       22 </v>
   <v type="int" >        8        7        8        8       12 </v>
   <v type="int" >        4        3        8        8       12 </v>
   <v type="int" >        8        8        8       12       22 </v>
   <v type="int" >        4        8        8       11       12 </v>
   <v type="int" >        8        8        9       14       22 </v>
   <v type="int" >        8        8        8       14       22 </v>
   <v type="int" >        8        8       11       14       22 </v>
   <v type="int" >        8        9       14       22       23 </v>
   <v type="int" >        8       14       22       23       23 </v>
   <v type="int" >        8       11       14       22       23 </v>
   <v type="int" >       16        9       10       15       23 </v>
   <v type="int" >       16        9       14       15       23 </v>
   <v type="int" >       12       14       15       23       23 </v>
   <v type="int" >       24       10       15       23       24 </v>
   <v type="int" >       16       15       23       24       25 </v>
   <v type="int" >        8       15       23       23       25 </v>
   <v type="int" >        8       10       11       16       24 </v>
   <v type="int" >       16       10       15       16       24 </v>
   <v type="int" >        8       15       16       24       25 </v>
   <v type="int" >        8       11       16       23       24 </v>
   <v type="int" >       16       16       23       24       26 </v>
   <v type="int" >       16       16       24       25       26 </v>
   <v type="int" >        8       11       12       17       23 </v>
   <v type="int" >       16       11       16       17       23 </v>
   <v type="int" >        8       16       17       23       26 </v>
   <v type="int" >        8       12       17       22       23 </v>
   <v type="int" >       16       17       22       23       27 </v>
   <v type="int" >        8       17       23       26       27 </v>
   <v type="int" >        8        6       12       13       22 </v>
   <v type="int" >       16       12       13       17       22 </v>
   <v type="int" >        8       13       17       22       27 </v>
   <v type="int" >        8       12       13       17       17 </v>
   <v type="int" >        8       13       17       17       18 </v>
   <v type="int" >        8       17       17       18       20 </v>
   <v type="int" >        8       12       17       17       22 </v>
   <v type="int" >        8       17       17       22       27 </v>
   <v type="int" >        8       17       17       20       27 </v>
   <v type="int" >        8        3       11       12       22 </v>
   <v type="int" >       16       11       12       17       22 </v>
   <v type="int" >        8       11       17       22       27 </v>
   <v type="int" >        8        3        8       11       22 </v>
   <v type="int" >       16        8       11       22       23 </v>
   <v type="int" >        8       11       22       23       27 </v>
   <v type="int" >        4        3        4        8        8 </v>
   <v type="int" >       16        3        4        8       11 </v>
   <v type="int" >        8        4        8       11       23 </v>
   <v type="int" >        4        4        8        8       11 </v>
   <v type="int" >        8        4        8        9       23 </v>
   <v type="int" >        8        8        9       11       14 </v>
   <v type="int" >        4        4        9        9       11 </v>
   <v type="int" >        8        9       11       14       23 </v>
   <v type="int" >        4        9        9       10       11 </v>
   <v type="int" >        8       14       15       15       23 </v>
   <v type="int" >        8       15       15       23       25 </v>
   <v type="int" >        8       15       16       19       25 </v>
   <v type="int" >        8       15       15       19       25 </v>
   <v type="int" >        8       15       19       24       25 </v>
   <v type="int" >        8       16       19       25       26 </v>
   <v type="int" >        8       19       25       26       26 </v>
   <v type="int" >        8       19       24       25       26 </v>
   <v type="int" >        8       16       17       20       26 </v>
   <v type="int" >       16       16       19       20       26 </v>
   <v type="int" >       12       19       20       26       26 </v>
   <v type="int" >        8       17       20       26       27 </v>
   <v type="int" >       16       20       26       27       28 </v>
   <v type="int" >       16       20       26       26       28 </v>
   <v type="int" >        8       13       17       18       27 </v>
   <v type="int" >       16       17       18       20       27 </v>
   <v type="int" >        8       18       20       27       28 </v>
   <v type="int" >        8       17       18       20       20 </v>
   <v type="int" >        8       18       20       20       21 </v>
   <v type="int" >       12       20       20       20       21 </v>
   <v type="int" >        8       17       20       20       27 </v>
   <v type="int" >        8       20       20       27       28 </v>
   <v type="int" >        8       20       20       20       28 </v>
   <v type="int" >        8       11       16       17       27 </v>
   <v type="int" >       16       16       17       20       27 </v>
   <v type="int" >        8       16       20       27       28 </v>
   <v type="int" >        8       11       16       23       27 </v>
   <v type="int" >       16       16       23       26       27 </v>
   <v type="int" >        8       16       26       27       28 </v>
   <v type="int" >        8        4       10       11       23 </v>
   <v type="int" >       16       10       11       16       23 </v>
   <v type="int" >        8       10       16       23       26 </v>
   <v type="int" >        8        4        9       10       23 </v>
   <v type="int" >       16        9       10       23       24 </v>
   <v type="int" >        8       10       23       24       26 </v>
   <v type="int" >        4        4        5        9        9 </v>
   <v type="int" >       16        4        5        9       10 </v>
   <v type="int" >       16        5        9       10       24 </v>
   <v type="int" >       12        5        9        9       10 </v>
   <v type="int" >        8        9       10       10       15 </v>
   <v type="int" >        4        5       10       10       10 </v>
   <v type="int" >        8       10       10       15       24 </v>
   <v type="int" >        4        9       10       10       10 </v>
   <v type="int" >        8       15       16       19       24 </v>
   <v type="int" >       16        9       10       16       24 </v>
   <v type="int" >        8       16       19       24       26 </v>
   <v type="int" >        8        9       16       23       24 </v>
   <v type="int" >        8       19       20       20       26 </v>
   <v type="int" >        8       16       20       23       26 </v>
   <v type="int" >       16       20       20       26       28 </v>
   <v type="int" >        8       20       23       26       27 </v>
   <v type="int" >        8       18       20       21       28 </v>
   <v type="int" >       16       20       20       21       28 </v>
   <v type="int" >        8       20       21       27       28 </v>
   <v type="int" >        8       16       19       20       28 </v>
   <v type="int" >        8       19       20       20       28 </v>
   <v type="int" >        8       19       20       27       28 </v>
   <v type="int" >        8       16       19       26       28 </v>
   <v type="int" >        8       19       26       26       28 </v>
   <v type="int" >        8       19       26       27       28 </v>
   <v type="int" >        8       10       15       16       26 </v>
   <v type="int" >       16       15       16       19       26 </v>
   <v type="int" >       12       15       19       26       26 </v>
   <v type="int" >        8       10       15       24       26 </v>
   <v type="int" >       16       15       24       25       26 </v>
   <v type="int" >       16       15       25       26       26 </v>
   <v type="int" >       16        9       10       15       24 </v>
   <v type="int" >        8        9       15       24       25 </v>
   <v type="int" >        8        9       23       24       25 </v>
   <v type="int" >        8        9       10       11       16 </v>
   <v type="int" >        4        4        9       11       11 </v>
   <v type="int" >        8        9       11       16       23 </v>
   <v type="int" >        4        8        9       11       11 </v>
   <v type="int" >        8       16       17       20       23 </v>
   <v type="int" >        8        8       11       17       23 </v>
   <v type="int" >        8       17       20       23       27 </v>
   <v type="int" >        8        8       17       22       23 </v>
   <v type="int" >        8       18       20       21       27 </v>
   <v type="int" >        8       17       18       22       27 </v>
   <v type="int" >        8       16       19       20       27 </v>
   <v type="int" >        8       16       17       22       27 </v>
   <v type="int" >        8       16       19       26       27 </v>
   <v type="int" >        8       16       22       23       27 </v>
   <v type="int" >        8       15       15       19       26 </v>
   <v type="int" >        8       15       16       23       26 </v>
   <v type="int" >        8       15       15       25       26 </v>
   <v type="int" >       24       15       23       24       26 </v>
   <v type="int" >        8        9       14       15       25 </v>
   <v type="int" >        8       14       15       15       25 </v>
   <v type="int" >        8       14       15       24       25 </v>
   <v type="int" >        8        9       14       23       25 </v>
   <v type="int" >        8       14       23       23       25 </v>
   <v type="int" >        8       14       23       24       25 </v>
   <v type="int" >       16        8        9       14       23 </v>
   <v type="int" >       12        8       14       23       23 </v>
   <v type="int" >        8        8       22       23       23 </v>
   <v type="int" >        4        3        4       11       11 </v>
   <v type="int" >        4        3        8       11       11 </v>
   <v type="int" >        8        8       11       12       17 </v>
   <v type="int" >        4        3        8       12       12 </v>
   <v type="int" >        8        8       12       17       22 </v>
   <v type="int" >        8       13       17       18       22 </v>
   <v type="int" >        8        7       12       13       22 </v>
   <v type="int" >        8       11       16       17       22 </v>
   <v type="int" >        8        7       11       12       22 </v>
   <v type="int" >        8       11       16       22       23 </v>
   <v type="int" >        8        7        8       11       22 </v>
   <v type="int" >        8       10       15       16       23 </v>
   <v type="int" >        8        8       10       11       23 </v>
   <v type="int" >        8        8        9       10       23 </v>
   <v type="int" >        8        9       14       15       24 </v>
   <v type="int" >        8        9        9       10       24 </v>
   <v type="int" >        8        9       14       23       24 </v>
   <v type="int" >        8        8        8       14       23 </v>
   <v type="int" >        8        8        8       22       23 </v>
   <v type="int" >        8        7        8        8       22 </v>
   <v type="int" >        4        2        3       12       12 </v>
   <v type="int" >        8        6        7       12       13 </v>
   <v type="int" >        4        2        6        6        7 </v>
   <v type="int" >        8        3        7       11       12 </v>
   <v type="int" >        8        3        7        8       11 </v>
   <v type="int" >        8        4        8       10       11 </v>
   <v type="int" >        8        4        8        9       10 </v>
   <v type="int" >        4        1        2        6        6 </v>
   <v type="int" >        4        6       12       12       12 </v>
   <v type="int" >        4       12       12       12       13 </v>
   <v type="int" >        8       12       12       13       22 </v>
   <v type="int" >        8       11       12       13       22 </v>
   <v type="int" >        4       12       13       22       22 </v>
   <v type="int" >        8       11       13       17       22 </v>
   <v type="int" >        8       13       17       17       22 </v>
   <v type="int" >        4       13       17       22       22 </v>
   <v type="int" >        8       10       11       17       23 </v>
   <v type="int" >       16       11       17       22       23 </v>
   <v type="int" >        8       17       17       22       23 </v>
   <v type="int" >        8       10       16       17       23 </v>
   <v type="int" >       16       16       17       23       27 </v>
   <v type="int" >        8       17       17       23       27 </v>
   <v type="int" >       16       10       16       23       24 </v>
   <v type="int" >        8       16       23       24       27 </v>
   <v type="int" >        8        9       15       16       24 </v>
   <v type="int" >       16       15       16       24       26 </v>
   <v type="int" >        8       16       24       26       27 </v>
   <v type="int" >        8        8        9       15       23 </v>
   <v type="int" >       16        9       15       23       24 </v>
   <v type="int" >        8        8       14       15       23 </v>
   <v type="int" >       16       14       15       23       25 </v>
   <v type="int" >       16       15       23       25       26 </v>
   <v type="int" >        8        7        8       14       22 </v>
   <v type="int" >       16        8       14       22       23 </v>
   <v type="int" >        8       14       22       23       25 </v>
   <v type="int" >        4       11       12       22       22 </v>
   <v type="int" >        4       11       17       22       22 </v>
   <v type="int" >        8       17       22       23       23 </v>
   <v type="int" >        4       11       17       23       23 </v>
   <v type="int" >        8       17       23       23       27 </v>
   <v type="int" >        4       16       17       23       23 </v>
   <v type="int" >        8       23       24       25       27 </v>
   <v type="int" >        8       23       23       25       27 </v>
   <v type="int" >        8       16       23       25       27 </v>
   <v type="int" >        8       24       25       26       27 </v>
   <v type="int" >        8       25       26       26       27 </v>
   <v type="int" >        8       16       25       26       27 </v>
   <v type="int" >        8       23       24       26       26 </v>
   <v type="int" >       16       24       25       26       26 </v>
   <v type="int" >       16       25       26       26       26 </v>
   <v type="int" >       16       23       25       26       26 </v>
   <v type="int" >       32       25       26       26       29 </v>
   <v type="int" >       24       26       26       26       29 </v>
   <v type="int" >        8       22       23       25       27 </v>
   <v type="int" >       16       23       25       26       27 </v>
   <v type="int" >        8       25       26       27       29 </v>
   <v type="int" >        8       22       23       23       27 </v>
   <v type="int" >        8       23       23       26       27 </v>
   <v type="int" >        8       23       23       25       26 </v>
   <v type="int" >        4       10       11       23       23 </v>
   <v type="int" >        4       10       16       23       23 </v>
   <v type="int" >        8       16       23       24       25 </v>
   <v type="int" >        4       10       16       24       24 </v>
   <v type="int" >        4       15       16       24       24 </v>
   <v type="int" >        8       15       24       26       26 </v>
   <v type="int" >        8       26       27       28       29 </v>
   <v type="int" >       16       26       26       28       29 </v>
   <v type="int" >       16       25       26       28       29 </v>
   <v type="int" >        8       23       26       26       27 </v>
   <v type="int" >        8       26       26       27       28 </v>
   <v type="int" >        8       26       26       26       28 </v>
   <v type="int" >       16       23       24       25       26 </v>
   <v type="int" >       16       24       25       26       29 </v>
   <v type="int" >        4        9       10       24       24 </v>
   <v type="int" >        4        9       15       24       24 </v>
   <v type="int" >        4        9       15       23       23 </v>
   <v type="int" >        8       25       26       27       28 </v>
   <v type="int" >        8       14       23       25       27 </v>
   <v type="int" >        8       25       25       26       29 </v>
   <v type="int" >        4        8        9       23       23 </v>
   <v type="int" >        8       14       22       23       27 </v>
   <v type="int" >        4        8       14       22       22 </v>
   <v type="int" >        8       24       25       25       26 </v>
   <v type="int" >        4        7        8       22       22 </v>
   <v type="int" >        4       13       17       17       17 </v>
   <v type="int" >        4       17       17       17       18 </v>
   <v type="int" >        8       17       17       18       27 </v>
   <v type="int" >        8       16       17       18       27 </v>
   <v type="int" >        4       17       18       27       27 </v>
   <v type="int" >        8       16       18       20       27 </v>
   <v type="int" >        8       18       20       20       27 </v>
   <v type="int" >        4       18       20       27       27 </v>
   <v type="int" >        8       15       16       20       26 </v>
   <v type="int" >       16       16       20       26       27 </v>
   <v type="int" >        8       20       20       26       27 </v>
   <v type="int" >        8       15       19       20       26 </v>
   <v type="int" >       16       19       20       26       28 </v>
   <v type="int" >        8       14       15       19       25 </v>
   <v type="int" >       16       15       19       25       26 </v>
   <v type="int" >        8       19       25       26       28 </v>
   <v type="int" >        4       16       17       27       27 </v>
   <v type="int" >        4       16       20       27       27 </v>
   <v type="int" >        8       20       26       26       27 </v>
   <v type="int" >        4       16       20       26       26 </v>
   <v type="int" >        8       19       26       28       29 </v>
   <v type="int" >        4       15       16       26       26 </v>
   <v type="int" >        8       19       25       26       29 </v>
   <v type="int" >        4       15       19       25       25 </v>
   <v type="int" >        4       14       15       25       25 </v>
   <v type="int" >        4       18       20       20       20 </v>
   <v type="int" >        8       19       20       21       28 </v>
   <v type="int" >        4       20       21       28       28 </v>
   <v type="int" >        4       19       20       28       28 </v>
  </varray>
  <i name="volumeweight">      0.00032552 </i>
 </kpoints>
 <parameters>
  <separator name="general" >
   <i type="string" name="SYSTEM">unknown system</i>
   <i type="logical" name="LCOMPAT"> F  </i>
  </separator>
  <separator name="electronic" >
   <i type="string" name="PREC">accura</i>
   <i name="ENMAX">    520.00000000</i>
   <i name="ENAUG">    322.06900000</i>
   <i name="EDIFF">      0.00010000</i>
   <i type="int" name="IALGO">    68</i>
   <i type="int" name="IWAVPR">    11</i>
   <i type="int" name="NBANDS">    12</i>
   <i name="NELECT">      8.00000000</i>
   <i type="int" name="TURBO">     0</i>
   <i type="int" name="IRESTART">     0</i>
   <i type="int" name="NREBOOT">     0</i>
   <i type="int" name="NMIN">     0</i>
   <i name="EREF">      0.00000000</i>
   <separator name="electronic smearing" >
    <i type="int" name="ISMEAR">    -5</i>
    <i name="SIGMA">      0.05000000</i>
    <i name="KSPACING">      0.50000000</i>
    <i type="logical" name="KGAMMA"> T  </i>
   </separator>
   <separator name="electronic projectors" >
    <i type="logical" name="LREAL"> T  </i>
    <v name="ROPT">     -0.00025000</v>
    <i type="int" name="LMAXPAW">  -100</i>
    <i type="int" name="LMAXMIX">     2</i>
    <i type="logical" name="NLSPLINE"> F  </i>
   </separator>
   <separator name="electronic startup" >
    <i type="int" name="ISTART">     0</i>
    <i type="int" name="ICHARG">     1</i>
    <i type="int" name="INIWAV">     1</i>
   </separator>
   <separator name="electronic spin" >
    <i type="int" name="ISPIN">     2</i>
    <i type="logical" name="LNONCOLLINEAR"> F  </i>
    <v name="MAGMOM">      0.60000000      0.60000000</v>
    <i name="NUPDOWN">     -1.00000000</i>
    <i type="logical" name="LSORBIT"> F  </i>
    <v name="SAXIS">      0.00000000      0.00000000      1.00000000</v>
    <i type="logical" name="LSPIRAL"> F  </i>
    <v name="QSPIRAL">      0.00000000      0.00000000      0.00000000</v>
    <i type="logical" name="LZEROZ"> F  </i>
   </separator>
   <separator name="electronic exchange-correlation" >
    <i type="logical" name="LASPH"> F  </i>
    <i type="logical" name="LMETAGGA"> F  </i>
   </separator>
   <separator name="electronic convergence" >
    <i type="int" name="NELM">   100</i>
    <i type="int" name="NELMDL">    -5</i>
    <i type="int" name="NELMIN">     2</i>
    <i name="ENINI">    520.00000000</i>
    <separator name="electronic convergence detail" >
     <i type="logical" name="LDIAG"> T  </i>
     <i type="logical" name="LSUBROT"> F  </i>
     <i name="WEIMIN">      0.00100000</i>
     <i name="EBREAK">      0.00000208</i>
     <i name="DEPER">      0.30000000</i>
     <i type="int" name="NRMM">     4</i>
     <i name="TIME">      0.40000000</i>
    </separator>
   </separator>
   <separator name="electronic mixer" >
    <i name="AMIX">      0.40000000</i>
    <i name="BMIX">      1.00000000</i>
    <i name="AMIN">      0.10000000</i>
    <i name="AMIX_MAG">      1.60000000</i>
    <i name="BMIX_MAG">      1.00000000</i>
    <separator name="electronic mixer details" >
     <i type="int" name="IMIX">     4</i>
     <i type="logical" name="MIXFIRST"> F  </i>
     <i type="int" name="MAXMIX">   -45</i>
     <i name="WC">    100.00000000</i>
     <i type="int" name="INIMIX">     1</i>
     <i type="int" name="MIXPRE">     1</i>
     <i type="int" name="MREMOVE">     5</i>
    </separator>
   </separator>
   <separator name="electronic dipolcorrection" >
    <i type="logical" name="LDIPOL"> F  </i>
    <i type="logical" name="LMONO"> F  </i>
    <i type="int" name="IDIPOL">     0</i>
    <i name="EPSILON">      1.00000000</i>
    <v name="DIPOL">   -100.00000000   -100.00000000   -100.00000000</v>
    <i name="EFIELD">      0.00000000</i>
   </separator>
  </separator>
  <separator name="grids" >
   <i type="int" name="NGX">    30</i>
   <i type="int" name="NGY">    30</i>
   <i type="int" name="NGZ">    30</i>
   <i type="int" name="NGXF">    60</i>
   <i type="int" name="NGYF">    60</i>
   <i type="int" name="NGZF">    60</i>
   <i type="logical" name="ADDGRID"> F  </i>
  </separator>
  <separator name="ionic" >
   <i type="int" name="NSW">    99</i>
   <i type="int" name="IBRION">     2</i>
   <i type="int" name="ISIF">     3</i>
   <i name="PSTRESS">      0.00000000</i>
   <i name="EDIFFG">      0.00100000</i>
   <i type="int" name="NFREE">     1</i>
   <i name="POTIM">      0.50000000</i>
   <i name="SMASS">     -3.00000000</i>
   <i name="SCALEE">      1.00000000</i>
  </separator>
  <separator name="ionic md" >
   <i name="TEBEG">      0.00010000</i>
   <i name="TEEND">      0.00010000</i>
   <i type="int" name="NBLOCK">     1</i>
   <i type="int" name="KBLOCK">    99</i>
   <i type="int" name="NPACO">   256</i>
   <i name="APACO">     16.00000000</i>
  </separator>
  <separator name="symmetry" >
   <i type="int" name="ISYM">     2</i>
   <i name="SYMPREC">      0.00001000</i>
  </separator>
  <separator name="dos" >
   <i type="logical" name="LORBIT"> F  </i>
   <v name="RWIGS">     -1.00000000</v>
   <i type="int" name="NEDOS">   301</i>
   <i name="EMIN">     10.00000000</i>
   <i name="EMAX">    -10.00000000</i>
   <i name="EFERMI">      0.00000000</i>
  </separator>
  <separator name="writing" >
   <i type="int" name="NWRITE">     2</i>
   <i type="logical" name="LWAVE"> F  </i>
   <i type="logical" name="LCHARG"> T  </i>
   <i type="logical" name="LPARD"> F  </i>
   <i type="logical" name="LVTOT"> F  </i>
   <i type="logical" name="LVHAR"> F  </i>
   <i type="logical" name="LELF"> F  </i>
   <i type="logical" name="LOPTICS"> F  </i>
   <v name="STM">      0.00000000      0.00000000      0.00000000      0.00000000      0.00000000      0.00000000      0.00000000</v>
  </separator>
  <separator name="performance" >
   <i type="int" name="NPAR">     4</i>
   <i type="int" name="NSIM">     4</i>
   <i type="int" name="NBLK">    -1</i>
   <i type="logical" name="LPLANE"> T  </i>
   <i type="logical" name="LSCALAPACK"> F  </i>
   <i type="logical" name="LSCAAWARE"> F  </i>
   <i type="logical" name="LSCALU"> F  </i>
   <i type="logical" name="LASYNC"> F  </i>
   <i type="logical" name="LORBITALREAL"> F  </i>
  </separator>
  <separator name="miscellaneous" >
   <i type="int" name="IDIOT">     3</i>
   <i type="logical" name="LMUSIC"> F  </i>
   <v name="POMASS">     28.08500000</v>
   <v name="DARWINR">      0.00000000</v>
   <v name="DARWINV">      1.00000000</v>
   <i type="logical" name="LCORR"> T  </i>
  </separator>
  <i type="logical" name="GGA_COMPAT"> T  </i>
  <i type="logical" name="LBERRY"> F  </i>
  <i type="int" name="ICORELEVEL">     0</i>
  <i type="logical" name="LDAU"> F  </i>
  <i type="int" name="I_CONSTRAINED_M">     0</i>
  <separator name="electronic exchange-correlation" >
   <i type="string" name="GGA">--</i>
   <i type="int" name="VOSKOWN">     0</i>
   <i type="logical" name="LHFCALC"> F  </i>
   <i type="string" name="PRECFOCK"></i>
   <i type="logical" name="LSYMGRAD"> F  </i>
   <i type="logical" name="LHFONE"> F  </i>
   <i type="logical" name="LRHFCALC"> F  </i>
   <i type="logical" name="LTHOMAS"> F  </i>
   <i type="logical" name="LMODELHF"> F  </i>
   <i name="ENCUT4O">     -1.00000000</i>
   <i type="int" name="EXXOEP">     0</i>
   <i type="int" name="FOURORBIT">     0</i>
   <i name="AEXX">      0.00000000</i>
   <i name="HFALPHA">      0.00000000</i>
   <i name="MCALPHA">      0.00000000</i>
   <i name="ALDAX">      1.00000000</i>
   <i name="AGGAX">      1.00000000</i>
   <i name="ALDAC">      1.00000000</i>
   <i name="AGGAC">      1.00000000</i>
   <i type="int" name="NKREDX">     1</i>
   <i type="int" name="NKREDY">     1</i>
   <i type="int" name="NKREDZ">     1</i>
   <i type="logical" name="SHIFTRED"> F  </i>
   <i type="logical" name="ODDONLY"> F  </i>
   <i type="logical" name="EVENONLY"> F  </i>
   <i type="int" name="LMAXFOCK">     0</i>
   <i type="int" name="NMAXFOCKAE">     0</i>
   <i type="logical" name="LFOCKAEDFT"> F  </i>
   <i name="HFSCREEN">      0.00000000</i>
   <i name="HFSCREENC">      0.00000000</i>
   <i type="int" name="NBANDSGWLOW">     0</i>
  </separator>
  <separator name="vdW DFT" >
   <i type="logical" name="LUSE_VDW"> F  </i>
   <i name="Zab_VDW">     -0.84910000</i>
   <i name="PARAM1">      0.12340000</i>
   <i name="PARAM2">      1.00000000</i>
   <i name="PARAM3">      0.00000000</i>
  </separator>
  <separator name="model GW" >
   <i type="int" name="MODEL_GW">     0</i>
   <i name="MODEL_EPS0">     12.01343768</i>
   <i name="MODEL_ALPHA">      1.00000000</i>
  </separator>
  <separator name="linear response parameters" >
   <i type="logical" name="LEPSILON"> F  </i>
   <i type="logical" name="LRPA"> F  </i>
   <i type="logical" name="LNABLA"> F  </i>
   <i type="logical" name="LVEL"> F  </i>
   <i type="int" name="KINTER">     0</i>
   <i name="CSHIFT">      0.10000000</i>
   <i name="OMEGAMAX">     -1.00000000</i>
   <i name="DEG_THRESHOLD">      0.00200000</i>
  </separator>
  <separator name="orbital magnetization" >
   <i type="logical" name="NUCIND"> F  </i>
   <v name="MAGPOS">      0.00000000      0.00000000      0.00000000</v>
   <i type="logical" name="LNICSALL"> T  </i>
   <i type="logical" name="ORBITALMAG"> F  </i>
   <i type="logical" name="LMAGBLOCH"> F  </i>
   <i type="logical" name="LCHIMAG"> F  </i>
   <i type="logical" name="LGAUGE"> T  </i>
   <i type="int" name="MAGATOM">     0</i>
   <v name="MAGDIPOL">      0.00000000      0.00000000      0.00000000</v>
   <v name="AVECCONST">      0.00000000      0.00000000      0.00000000</v>
  </separator>
  <separator name="response functions" >
   <i type="logical" name="LADDER"> F  </i>
   <i type="logical" name="LFXC"> F  </i>
   <i type="logical" name="LHARTREE"> T  </i>
   <i type="int" name="IBSE">     0</i>
   <v type="int" name="KPOINT">    -1     0     0     0</v>
   <i type="logical" name="LTCTE"> F  </i>
   <i type="logical" name="LTETE"> F  </i>
   <i type="logical" name="LTRIPLET"> F  </i>
   <i type="logical" name="LFXCEPS"> F  </i>
   <i type="logical" name="LFXHEG"> F  </i>
   <i type="int" name="NATURALO">     0</i>
   <i type="logical" name="L2ORDER"> F  </i>
   <i type="logical" name="LUSEW"> F  </i>
   <i name="ENCUTGW">     -2.00000000</i>
   <i name="ENCUTGWSOFT">     -2.00000000</i>
   <i name="ENCUTLF">     -1.00000000</i>
   <i type="int" name="LMAXMP2">    -1</i>
   <i name="SCISSOR">      0.00000000</i>
   <i type="int" name="NOMEGA">     0</i>
   <i type="int" name="NOMEGAR">     0</i>
   <i type="int" name="NBANDSGW">    -1</i>
   <i type="int" name="NBANDSO">    -1</i>
   <i type="int" name="NBANDSV">    -1</i>
   <i type="int" name="NELM">   100</i>
   <i type="int" name="NELMHF">     1</i>
   <i type="int" name="DIM">     3</i>
   <i type="int" name="ANTIRES">     0</i>
   <i name="OMEGAMAX">    -30.00000000</i>
   <i name="OMEGAMIN">    -30.00000000</i>
   <i name="OMEGATL">   -200.00000000</i>
   <i type="int" name="OMEGAGRID">     0</i>
   <i name="CSHIFT">     -0.10000000</i>
   <i type="logical" name="SELFENERGY"> F  </i>
   <i type="logical" name="LSPECTRAL"> F  </i>
   <i type="logical" name="LSPECTRALGW"> F  </i>
   <i type="logical" name="LSINGLES"> F  </i>
   <i type="logical" name="LFERMIGW"> F  </i>
   <i type="logical" name="ODDONLYGW"> F  </i>
   <i type="logical" name="EVENONLYGW"> F  </i>
   <i type="int" name="NKREDLFX">     1</i>
   <i type="int" name="NKREDLFY">     1</i>
   <i type="int" name="NKREDLFZ">     1</i>
   <i type="int" name="MAXMEM">  1800</i>
   <i type="int" name="TELESCOPE">     0</i>
   <i type="int" name="TAUPAR">     1</i>
   <i type="int" name="OMEGAPAR">    -1</i>
   <i name="LAMBDA">      1.00000000</i>
  </separator>
  <separator name="External order field" >
   <i name="OFIELD_KAPPA">      0.00000000</i>
   <v name="OFIELD_K">      0.00000000      0.00000000      0.00000000</v>
   <i name="OFIELD_Q6_NEAR">      0.00000000</i>
   <i name="OFIELD_Q6_FAR">      0.00000000</i>
   <i name="OFIELD_A">      0.00000000</i>
  </separator>
 </parameters>
 <atominfo>
  <atoms>       2 </atoms>
  <types>       1 </types>
  <array name="atoms" >
   <dimension dim="1">ion</dimension>
   <field type="string">element</field>
   <field type="int">atomtype</field>
   <set>
    <rc><c>Si</c><c>   1</c></rc>
    <rc><c>Si</c><c>   1</c></rc>
   </set>
  </array>
  <array name="atomtypes" >
   <dimension dim="1">type</dimension>
   <field type="int">atomspertype</field>
   <field type="string">element</field>
   <field>mass</field>
   <field>valence</field>
   <field type="string">pseudopotential</field>
   <set>
    <rc><c>   2</c><c>Si</c><c>     28.08500000</c><c>      4.00000000</c><c> PAW_PBE Si 05Jan2001                   </c></rc>
   </set>
  </array>
 </atominfo>
 <structure name="initialpos" >
  <crystal>
   <varray name="basis" >
    <v>       3.84019800       0.00000000       0.00000000 </v>
    <v>       1.92009900       3.32571000       0.00000000 </v>
    <v>       0.00000000      -2.21713800       3.13550900 </v>
   </varray>
   <i name="volume">     40.04479227 </i>
   <varray name="rec_basis" >
    <v>       0.26040324      -0.15034384      -0.10630907 </v>
    <v>       0.00000000       0.30068767       0.21261813 </v>
    <v>       0.00000000       0.00000000       0.31892749 </v>
   </varray>
  </crystal>
  <varray name="positions" >
   <v>       0.00000000       0.00000000       0.00000000 </v>
   <v>       0.75000000       0.50000000       0.75000000 </v>
  </varray>
 </structure>
 <calculation>
  <scstep>
   <time name="dav">    0.30    0.32</time>
   <time name="total">    0.35    0.40</time>
   <energy>
    <i name="alphaZ">      3.36254244 </i>
    <i name="ewald">   -228.52729335 </i>
    <i name="hartreedc">    -11.00822102 </i>
    <i name="XCdc">    -18.52396975 </i>
    <i name="pawpsdc">     65.91709927 </i>
    <i name="pawaedc">    -30.72587073 </i>
    <i name="eentropy">      0.00000000 </i>
    <i name="bandstr">     19.91131654 </i>
    <i name="atom">    206.13270273 </i>
    <i name="e_fr_energy">      6.53830613 </i>
    <i name="e_wo_entrp">      6.53830613 </i>
    <i name="e_0_energy">      6.53830613 </i>
   </energy>
  </scstep>
  <scstep>
   <time name="dav">    0.34    0.34</time>
   <time name="total">    0.36    0.36</time>
   <energy>
    <i name="e_fr_energy">    -10.29890142 </i>
    <i name="e_wo_entrp">    -10.29890142 </i>
    <i name="e_0_energy">    -10.29890142 </i>
   </energy>
  </scstep>
  <scstep>
   <time name="dav">    0.35    0.35</time>
   <time name="total">    0.35    0.35</time>
   <energy>
    <i name="e_fr_energy">    -10.83176646 </i>
    <i name="e_wo_entrp">    -10.83176646 </i>
    <i name="e_0_energy">    -10.83176646 </i>
   </energy>
  </scstep>
  <scstep>
   <time name="dav">    0.31    0.32</time>
   <time name="total">    0.32    0.32</time>
   <energy>
    <i name="e_fr_energy">    -10.83556285 </i>
    <i name="e_wo_entrp">    -10.83556285 </i>
    <i name="e_0_energy">    -10.83556285 </i>
   </energy>
  </scstep>
  <scstep>
   <time name="dav">    0.34    0.35</time>
   <time name="total">    0.37    0.39</time>
   <energy>
    <i name="e_fr_energy">    -10.83560168 </i>
    <i name="e_wo_entrp">    -10.83560168 </i>
    <i name="e_0_energy">    -10.83560168 </i>
   </energy>
  </scstep>
  <scstep>
   <time name="diag">    0.04    0.05</time>
   <time name="diis">    0.17    0.17</time>
   <time name="orth">    0.00    0.00</time>
   <time name="total">    0.26    0.27</time>
   <energy>
    <i name="e_fr_energy">    -10.88532316 </i>
    <i name="e_wo_entrp">    -10.88532316 </i>
    <i name="e_0_energy">    -10.88532316 </i>
   </energy>
  </scstep>
  <scstep>
   <time name="diag">    0.04    0.04</time>
   <time name="diis">    0.16    0.16</time>
   <time name="orth">    0.00    0.00</time>
   <time name="total">    0.25    0.25</time>
   <energy>
    <i name="e_fr_energy">    -10.82432039 </i>
    <i name="e_wo_entrp">    -10.82432039 </i>
    <i name="e_0_energy">    -10.82432039 </i>
   </energy>
  </scstep>
  <scstep>
   <time name="diag">    0.04    0.04</time>
   <time name="diis">    0.16    0.16</time>
   <time name="orth">    0.00    0.00</time>
   <time name="total">    0.25    0.25</time>
   <energy>
    <i name="e_fr_energy">    -10.84230797 </i>
    <i name="e_wo_entrp">    -10.84230797 </i>
    <i name="e_0_energy">    -10.84230797 </i>
   </energy>
  </scstep>
  <scstep>
   <time name="diag">    0.04    0.04</time>
   <time name="diis">    0.15    0.15</time>
   <time name="orth">    0.00    0.00</time>
   <time name="total">    0.24    0.25</time>
   <energy>
    <i name="e_fr_energy">    -10.84189089 </i>
    <i name="e_wo_entrp">    -10.84189089 </i>
    <i name="e_0_energy">    -10.84189089 </i>
   </energy>
  </scstep>
  <scstep>
   <time name="diag">    0.04    0.04</time>
   <time name="diis">    0.15    0.15</time>
   <time name="orth">    0.00    0.00</time>
   <time name="total">    0.23    0.23</time>
   <energy>
    <i name="alphaZ">      3.36254244 </i>
    <i name="ewald">   -228.52729335 </i>
    <i name="hartreedc">    -14.91616781 </i>
    <i name="XCdc">    -17.96520412 </i>
    <i name="pawpsdc">     74.28320799 </i>
    <i name="pawaedc">    -39.31950811 </i>
    <i name="eentropy">      0.00000000 </i>
    <i name="bandstr">      6.10788435 </i>
    <i name="atom">    206.13270273 </i>
    <i name="e_fr_energy">    -10.84183588 </i>
    <i name="e_wo_entrp">    -10.84183588 </i>
    <i name="e_0_energy">    -10.84183588 </i>
   </energy>
  </scstep>
  <structure>
   <crystal>
    <varray name="basis" >
     <v>       3.84019800       0.00000000       0.00000000 </v>
     <v>       1.92009900       3.32571000       0.00000000 </v>
     <v>       0.00000000      -2.21713800       3.13550900 </v>
    </varray>
    <i name="volume">     40.04479227 </i>
    <varray name="rec_basis" >
     <v>       0.26040324      -0.15034384      -0.10630907 </v>
     <v>       0.00000000       0.30068767       0.21261813 </v>
     <v>       0.00000000       0.00000000       0.31892749 </v>
    </varray>
   </crystal>
   <varray name="positions" >
    <v>       0.00000000       0.00000000       0.00000000 </v>
    <v>       0.75000000       0.50000000       0.75000000 </v>
   </varray>
  </structure>
  <varray name="forces" >
   <v>      -0.00000000      -0.00000000      -0.00000000 </v>
   <v>       0.00000000       0.00000000       0.00000000 </v>
  </varray>
  <varray name="stress" >
   <v>      19.65550898       0.00000000       0.00000000 </v>
   <v>       0.00000000      19.65552053       0.00001254 </v>
   <v>      -0.00000000       0.00001254      19.65551479 </v>
  </varray>
  <energy>
   <i name="e_fr_energy">    -10.84183588 </i>
   <i name="e_wo_entrp">    -10.84183588 </i>
   <i name="e_0_energy">      0.00000000 </i>
  </energy>
  <time name="totalsc">    3.82    3.99</time>
 </calculation>
 <calculation>
  <scstep>
   <time name="dav">    0.29    0.29</time>
   <time name="total">    0.33    0.34</time>
   <energy>
    <i name="alphaZ">      3.24578143 </i>
    <i name="ewald">   -225.85094285 </i>
    <i name="hartreedc">    -14.75348467 </i>
    <i name="XCdc">    -18.13697657 </i>
    <i name="pawpsdc">     74.29570936 </i>
    <i name="pawaedc">    -39.33271362 </i>
    <i name="eentropy">      0.00000000 </i>
    <i name="bandstr">      3.54877217 </i>
    <i name="atom">    206.13270273 </i>
    <i name="e_fr_energy">    -10.85115202 </i>
    <i name="e_wo_entrp">    -10.85115202 </i>
    <i name="e_0_energy">    -10.85115202 </i>
   </energy>
  </scstep>
  <scstep>
   <time name="diag">    0.04    0.04</time>
   <time name="diis">    0.15    0.15</time>
   <time name="orth">    0.00    0.00</time>
   <time name="total">    0.24    0.25</time>
   <energy>
    <i name="e_fr_energy">    -10.84674484 </i>
    <i name="e_wo_entrp">    -10.84674484 </i>
    <i name="e_0_energy">    -10.84674484 </i>
   </energy>
  </scstep>
  <scstep>
   <time name="diag">    0.04    0.04</time>
   <time name="diis">    0.15    0.15</time>
   <time name="orth">    0.00    0.00</time>
   <time name="total">    0.25    0.25</time>
   <energy>
    <i name="e_fr_energy">    -10.84435707 </i>
    <i name="e_wo_entrp">    -10.84435707 </i>
    <i name="e_0_energy">    -10.84435707 </i>
   </energy>
  </scstep>
  <scstep>
   <time name="diag">    0.04    0.04</time>
   <time name="diis">    0.12    0.12</time>
   <time name="orth">    0.00    0.00</time>
   <time name="total">    0.19    0.20</time>
   <energy>
    <i name="alphaZ">      3.24578143 </i>
    <i name="ewald">   -225.85094285 </i>
    <i name="hartreedc">    -15.35766663 </i>
    <i name="XCdc">    -18.12351863 </i>
    <i name="pawpsdc">     73.23666364 </i>
    <i name="pawaedc">    -38.24644757 </i>
    <i name="eentropy">      0.00000000 </i>
    <i name="bandstr">      4.11906036 </i>
    <i name="atom">    206.13270273 </i>
    <i name="e_fr_energy">    -10.84436750 </i>
    <i name="e_wo_entrp">    -10.84436750 </i>
    <i name="e_0_energy">    -10.84436750 </i>
   </energy>
  </scstep>
  <structure>
   <crystal>
    <varray name="basis" >
     <v>       3.88570462       0.00000000       0.00000000 </v>
     <v>       1.94285231       3.36511992       0.00000003 </v>
     <v>      -0.00000000      -2.24341123       3.17266500 </v>
    </varray>
    <i name="volume">     41.48533000 </i>
    <varray name="rec_basis" >
     <v>       0.25735358      -0.14858311      -0.10506405 </v>
     <v>      -0.00000000       0.29716623       0.21012810 </v>
     <v>      -0.00000000      -0.00000000       0.31519243 </v>
    </varray>
   </crystal>
   <varray name="positions" >
    <v>       0.00000000      -0.00000000      -0.00000000 </v>
    <v>       0.75000000       0.50000000       0.75000000 </v>
   </varray>
  </structure>
  <varray name="forces" >
   <v>       0.00000000      -0.00000000       0.00000000 </v>
   <v>      -0.00000000       0.00000000      -0.00000000 </v>
  </varray>
  <varray name="stress" >
   <v>     -12.74144525      -0.00000000       0.00000000 </v>
   <v>       0.00000000     -12.74145290      -0.00000832 </v>
   <v>       0.00000000      -0.00000832     -12.74144910 </v>
  </varray>
  <energy>
   <i name="e_fr_energy">    -10.84436750 </i>
   <i name="e_wo_entrp">    -10.84436750 </i>
   <i name="e_0_energy">      0.00000000 </i>
  </energy>
  <time name="totalsc">    1.45    1.46</time>
 </calculation>
 <calculation>
  <scstep>
   <time name="dav">    0.30    0.30</time>
   <time name="total">    0.35    0.35</time>
   <energy>
    <i name="alphaZ">      3.29203090 </i>
    <i name="ewald">   -226.91861210 </i>
    <i name="hartreedc">    -15.42803822 </i>
    <i name="XCdc">    -18.05618198 </i>
    <i name="pawpsdc">     73.17779180 </i>
    <i name="pawaedc">    -38.18521537 </i>
    <i name="eentropy">      0.00000000 </i>
    <i name="bandstr">      5.13775884 </i>
    <i name="atom">    206.13270273 </i>
    <i name="e_fr_energy">    -10.84776339 </i>
    <i name="e_wo_entrp">    -10.84776339 </i>
    <i name="e_0_energy">    -10.84776339 </i>
   </energy>
  </scstep>
  <scstep>
   <time name="diag">    0.04    0.04</time>
   <time name="diis">    0.15    0.15</time>
   <time name="orth">    0.00    0.00</time>
   <time name="total">    0.25    0.25</time>
   <energy>
    <i name="e_fr_energy">    -10.84707342 </i>
    <i name="e_wo_entrp">    -10.84707342 </i>
    <i name="e_0_energy">    -10.84707342 </i>
   </energy>
  </scstep>
  <scstep>
   <time name="diag">    0.04    0.04</time>
   <time name="diis">    0.15    0.15</time>
   <time name="orth">    0.00    0.00</time>
   <time name="total">    0.24    0.25</time>
   <energy>
    <i name="e_fr_energy">    -10.84671426 </i>
    <i name="e_wo_entrp">    -10.84671426 </i>
    <i name="e_0_energy">    -10.84671426 </i>
   </energy>
  </scstep>
  <scstep>
   <time name="diag">    0.04    0.04</time>
   <time name="diis">    0.10    0.10</time>
   <time name="orth">    0.00    0.00</time>
   <time name="total">    0.18    0.18</time>
   <energy>
    <i name="alphaZ">      3.29203090 </i>
    <i name="ewald">   -226.91861210 </i>
    <i name="hartreedc">    -15.18730479 </i>
    <i name="XCdc">    -18.06136902 </i>
    <i name="pawpsdc">     73.57588883 </i>
    <i name="pawaedc">    -38.59318423 </i>
    <i name="eentropy">      0.00000000 </i>
    <i name="bandstr">      4.91313120 </i>
    <i name="atom">    206.13270273 </i>
    <i name="e_fr_energy">    -10.84671647 </i>
    <i name="e_wo_entrp">    -10.84671647 </i>
    <i name="e_0_energy">    -10.84671647 </i>
   </energy>
  </scstep>
  <structure>
   <crystal>
    <varray name="basis" >
     <v>       3.86742209       0.00000000       0.00000000 </v>
     <v>       1.93371104       3.34928677       0.00000002 </v>
     <v>      -0.00000000      -2.23285582       3.15773738 </v>
    </varray>
    <i name="volume">     40.90250600 </i>
    <varray name="rec_basis" >
     <v>       0.25857017      -0.14928551      -0.10556072 </v>
     <v>      -0.00000000       0.29857103       0.21112144 </v>
     <v>      -0.00000000      -0.00000000       0.31668245 </v>
    </varray>
   </crystal>
   <varray name="positions" >
    <v>       0.00000000      -0.00000000      -0.00000000 </v>
    <v>       0.75000000       0.50000000       0.75000000 </v>
   </varray>
  </structure>
  <varray name="forces" >
   <v>      -0.00000000       0.00000000      -0.00000000 </v>
   <v>       0.00000000      -0.00000000       0.00000000 </v>
  </varray>
  <varray name="stress" >
   <v>      -0.08173155      -0.00000000      -0.00000000 </v>
   <v>      -0.00000000      -0.08173160      -0.00000005 </v>
   <v>      -0.00000000      -0.00000005      -0.08173158 </v>
  </varray>
  <energy>
   <i name="e_fr_energy">    -10.84671647 </i>
   <i name="e_wo_entrp">    -10.84671647 </i>
   <i name="e_0_energy">      0.00000000 </i>
  </energy>
  <time name="totalsc">    1.41    1.42</time>
  <eigenvalues>
   <array>
    <dimension dim="1">band</dimension>
    <dimension dim="2">kpoint</dimension>
    <dimension dim="3">spin</dimension>
    <field>eigene</field>
    <field>occ</field>
    <set>
     <set comment="spin 1">
      <set comment="kpoint 1">
       <r>   -6.1994    1.0000 </r>
       <r>    5.6133    1.0000 </r>
       <r>    5.6133    1.0000 </r>
       <r>    5.6133    1.0000 </r>
       <r>    8.1695    0.0000 </r>
       <r>    8.1695    0.0000 </r>
       <r>    8.1695    0.0000 </r>
       <r>    8.7433    0.0000 </r>
       <r>   13.3220    0.0000 </r>
       <r>   13.3220    0.0000 </r>
       <r>   13.4916    0.0000 </r>
       <r>   16.7945    0.0000 </r>
      </set>
      <set comment="kpoint 2">
       <r>   -5.9990    1.0000 </r>
       <r>    4.0225    1.0000 </r>
       <r>    5.3309    1.0000 </r>
       <r>    5.3309    1.0000 </r>
       <r>    8.0552    0.0000 </r>
       <r>    8.5849    0.0000 </r>
       <r>    8.5849    0.0000 </r>
       <r>   10.1432    0.0000 </r>
       <r>   12.8493    0.0000 </r>
       <r>   12.8494    0.0000 </r>
       <r>   14.2669    0.0000 </r>
       <r>   16.2415    0.0000 </r>
      </set>
      <set comment="kpoint 3">
       <r>   -5.4148    1.0000 </r>
       <r>    1.7275    1.0000 </r>
       <r>    4.8683    1.0000 </r>
       <r>    4.8683    1.0000 </r>
       <r>    7.5716    0.0000 </r>
       <r>    9.1028    0.0000 </r>
       <r>    9.1028    0.0000 </r>
       <r>   12.3620    0.0000 </r>
       <r>   12.8003    0.0000 </r>
       <r>   12.8003    0.0000 </r>
       <r>   14.5434    0.0000 </r>
       <r>   17.3243    0.0000 </r>
      </set>
      <set comment="kpoint 4">
       <r>   -4.5406    1.0000 </r>
       <r>   -0.2563    1.0000 </r>
       <r>    4.5456    1.0000 </r>
       <r>    4.5456    1.0000 </r>
       <r>    7.2071    0.0000 </r>
       <r>    9.0661    0.0000 </r>
       <r>    9.0661    0.0000 </r>
       <r>   13.4512    0.0000 </r>
       <r>   14.1518    0.0000 </r>
       <r>   14.1518    0.0000 </r>
       <r>   15.1237    0.0000 </r>
       <r>   19.2330    0.0000 </r>
      </set>
      <set comment="kpoint 5">
       <r>   -3.9216    1.0000 </r>
       <r>   -1.2539    1.0000 </r>
       <r>    4.4350    1.0000 </r>
       <r>    4.4350    1.0000 </r>
       <r>    7.0789    0.0000 </r>
       <r>    8.9626    0.0000 </r>
       <r>    8.9626    0.0000 </r>
       <r>   13.3162    0.0000 </r>
       <r>   16.1077    0.0000 </r>
       <r>   16.1077    0.0000 </r>
       <r>   16.7942    0.0000 </r>
       <r>   16.8311    0.0000 </r>
      </set>
      <set comment="kpoint 6">
       <r>   -5.9315    1.0000 </r>
       <r>    4.2608    1.0000 </r>
       <r>    4.8270    1.0000 </r>
       <r>    4.8270    1.0000 </r>
       <r>    7.6287    0.0000 </r>
       <r>    9.2842    0.0000 </r>
       <r>    9.2842    0.0000 </r>
       <r>    9.8306    0.0000 </r>
       <r>   12.0972    0.0000 </r>
       <r>   13.6202    0.0000 </r>
       <r>   14.5613    0.0000 </r>
       <r>   17.2609    0.0000 </r>
      </set>
      <set comment="kpoint 7">
       <r>   -5.6690    1.0000 </r>
       <r>    2.9389    1.0000 </r>
       <r>    4.0247    1.0000 </r>
       <r>    5.3235    1.0000 </r>
       <r>    8.5805    0.0000 </r>
       <r>    8.7218    0.0000 </r>
       <r>    8.9438    0.0000 </r>
       <r>   11.0418    0.0000 </r>
       <r>   11.9694    0.0000 </r>
       <r>   13.5780    0.0000 </r>
       <r>   15.2689    0.0000 </r>
       <r>   16.7273    0.0000 </r>
      </set>
      <set comment="kpoint 8">
       <r>   -4.9731    1.0000 </r>
       <r>    1.0325    1.0000 </r>
       <r>    3.3474    1.0000 </r>
       <r>    4.8520    1.0000 </r>
       <r>    8.2681    0.0000 </r>
       <r>    9.2741    0.0000 </r>
       <r>    9.4486    0.0000 </r>
       <r>   11.8236    0.0000 </r>
       <r>   12.0894    0.0000 </r>
       <r>   15.3579    0.0000 </r>
       <r>   15.5703    0.0000 </r>
       <r>   17.9149    0.0000 </r>
      </set>
      <set comment="kpoint 9">
       <r>   -4.0718    1.0000 </r>
       <r>   -0.6824    1.0000 </r>
       <r>    3.1931    1.0000 </r>
       <r>    4.3709    1.0000 </r>
       <r>    7.9252    0.0000 </r>
       <r>    9.2209    0.0000 </r>
       <r>    9.4769    0.0000 </r>
       <r>   13.4400    0.0000 </r>
       <r>   13.6714    0.0000 </r>
       <r>   14.7476    0.0000 </r>
       <r>   16.6892    0.0000 </r>
       <r>   17.8930    0.0000 </r>
      </set>
      <set comment="kpoint 10">
       <r>   -3.8346    1.0000 </r>
       <r>   -1.0435    1.0000 </r>
       <r>    3.3682    1.0000 </r>
       <r>    4.0818    1.0000 </r>
       <r>    7.7760    0.0000 </r>
       <r>    9.1016    0.0000 </r>
       <r>    9.7064    0.0000 </r>
       <r>   12.9171    0.0000 </r>
       <r>   14.5566    0.0000 </r>
       <r>   16.0290    0.0000 </r>
       <r>   17.0136    0.0000 </r>
       <r>   17.1499    0.0000 </r>
      </set>
      <set comment="kpoint 11">
       <r>   -4.6732    1.0000 </r>
       <r>    0.3864    1.0000 </r>
       <r>    3.8051    1.0000 </r>
       <r>    4.0599    1.0000 </r>
       <r>    7.8413    0.0000 </r>
       <r>    9.2051    0.0000 </r>
       <r>   10.0543    0.0000 </r>
       <r>   11.0525    0.0000 </r>
       <r>   14.8821    0.0000 </r>
       <r>   14.8937    0.0000 </r>
       <r>   15.4023    0.0000 </r>
       <r>   18.8883    0.0000 </r>
      </set>
      <set comment="kpoint 12">
       <r>   -5.4715    1.0000 </r>
       <r>    2.4077    1.0000 </r>
       <r>    4.3247    1.0000 </r>
       <r>    4.3883    1.0000 </r>
       <r>    7.7583    0.0000 </r>
       <r>    9.2368    0.0000 </r>
       <r>   10.0398    0.0000 </r>
       <r>   10.3519    0.0000 </r>
       <r>   12.9719    0.0000 </r>
       <r>   13.7813    0.0000 </r>
       <r>   15.5485    0.0000 </r>
       <r>   17.1102    0.0000 </r>
      </set>
      <set comment="kpoint 13">
       <r>   -5.1372    1.0000 </r>
       <r>    2.0947    1.0000 </r>
       <r>    3.7651    1.0000 </r>
       <r>    3.7651    1.0000 </r>
       <r>    6.7653    0.0000 </r>
       <r>    8.7493    0.0000 </r>
       <r>   11.3017    0.0000 </r>
       <r>   11.3017    0.0000 </r>
       <r>   13.4790    0.0000 </r>
       <r>   14.5132    0.0000 </r>
       <r>   16.9141    0.0000 </r>
       <r>   18.5295    0.0000 </r>
      </set>
      <set comment="kpoint 14">
       <r>   -4.1960    1.0000 </r>
       <r>    0.1744    1.0000 </r>
       <r>    1.9454    1.0000 </r>
       <r>    4.3112    1.0000 </r>
       <r>    8.0509    0.0000 </r>
       <r>   10.3610    0.0000 </r>
       <r>   10.6964    0.0000 </r>
       <r>   11.6532    0.0000 </r>
       <r>   12.0673    0.0000 </r>
       <r>   15.1336    0.0000 </r>
       <r>   18.1066    0.0000 </r>
       <r>   18.6417    0.0000 </r>
      </set>
      <set comment="kpoint 15">
       <r>   -3.3393    1.0000 </r>
       <r>   -0.9593    1.0000 </r>
       <r>    1.7046    1.0000 </r>
       <r>    3.7652    1.0000 </r>
       <r>    7.4696    0.0000 </r>
       <r>   11.0142    0.0000 </r>
       <r>   11.0551    0.0000 </r>
       <r>   12.4958    0.0000 </r>
       <r>   13.5046    0.0000 </r>
       <r>   13.5606    0.0000 </r>
       <r>   18.0915    0.0000 </r>
       <r>   20.2937    0.0000 </r>
      </set>
      <set comment="kpoint 16">
       <r>   -3.5363    1.0000 </r>
       <r>   -0.7095    1.0000 </r>
       <r>    2.1518    1.0000 </r>
       <r>    3.4541    1.0000 </r>
       <r>    7.1557    0.0000 </r>
       <r>   10.0452    0.0000 </r>
       <r>   11.2582    0.0000 </r>
       <r>   11.4894    0.0000 </r>
       <r>   15.6982    0.0000 </r>
       <r>   16.0727    0.0000 </r>
       <r>   17.6609    0.0000 </r>
       <r>   18.1321    0.0000 </r>
      </set>
      <set comment="kpoint 17">
       <r>   -4.4409    1.0000 </r>
       <r>    0.6983    1.0000 </r>
       <r>    2.9995    1.0000 </r>
       <r>    3.4522    1.0000 </r>
       <r>    6.9848    0.0000 </r>
       <r>    8.5167    0.0000 </r>
       <r>   11.5206    0.0000 </r>
       <r>   11.8192    0.0000 </r>
       <r>   15.5360    0.0000 </r>
       <r>   15.5809    0.0000 </r>
       <r>   17.1598    0.0000 </r>
       <r>   18.6977    0.0000 </r>
      </set>
      <set comment="kpoint 18">
       <r>   -3.8491    1.0000 </r>
       <r>   -0.0986    1.0000 </r>
       <r>    3.0613    1.0000 </r>
       <r>    3.0613    1.0000 </r>
       <r>    6.2645    0.0000 </r>
       <r>    7.1900    0.0000 </r>
       <r>   13.5488    0.0000 </r>
       <r>   13.5488    0.0000 </r>
       <r>   15.9952    0.0000 </r>
       <r>   16.0924    0.0000 </r>
       <r>   18.4958    0.0000 </r>
       <r>   18.4962    0.0000 </r>
      </set>
      <set comment="kpoint 19">
       <r>   -2.5470    1.0000 </r>
       <r>   -1.5499    1.0000 </r>
       <r>    1.4143    1.0000 </r>
       <r>    3.2382    1.0000 </r>
       <r>    6.8482    0.0000 </r>
       <r>    9.7255    0.0000 </r>
       <r>   12.9923    0.0000 </r>
       <r>   13.5286    0.0000 </r>
       <r>   13.6937    0.0000 </r>
       <r>   14.0935    0.0000 </r>
       <r>   20.1119    0.0000 </r>
       <r>   20.3775    0.0000 </r>
      </set>
      <set comment="kpoint 20">
       <r>   -2.9700    1.0000 </r>
       <r>   -1.1648    1.0000 </r>
       <r>    2.2561    1.0000 </r>
       <r>    2.9861    1.0000 </r>
       <r>    6.5451    0.0000 </r>
       <r>    7.5989    0.0000 </r>
       <r>   13.7861    0.0000 </r>
       <r>   13.8416    0.0000 </r>
       <r>   16.2298    0.0000 </r>
       <r>   16.3316    0.0000 </r>
       <r>   17.8280    0.0000 </r>
       <r>   18.2479    0.0000 </r>
      </set>
      <set comment="kpoint 21">
       <r>   -2.1321    1.0000 </r>
       <r>   -2.1321    1.0000 </r>
       <r>    2.8198    1.0000 </r>
       <r>    2.8198    1.0000 </r>
       <r>    6.3658    0.0000 </r>
       <r>    6.3658    0.0000 </r>
       <r>   15.5466    0.0000 </r>
       <r>   15.5466    0.0000 </r>
       <r>   16.5199    0.0000 </r>
       <r>   16.5199    0.0000 </r>
       <r>   18.0549    0.0000 </r>
       <r>   18.0549    0.0000 </r>
      </set>
      <set comment="kpoint 22">
       <r>   -4.8950    1.0000 </r>
       <r>    1.3453    1.0000 </r>
       <r>    2.9620    1.0000 </r>
       <r>    4.2134    1.0000 </r>
       <r>    8.0565    0.0000 </r>
       <r>    9.4392    0.0000 </r>
       <r>    9.8168    0.0000 </r>
       <r>   11.0533    0.0000 </r>
       <r>   13.3254    0.0000 </r>
       <r>   15.7169    0.0000 </r>
       <r>   16.5773    0.0000 </r>
       <r>   17.6460    0.0000 </r>
      </set>
      <set comment="kpoint 23">
       <r>   -4.0258    1.0000 </r>
       <r>   -0.1738    1.0000 </r>
       <r>    2.3581    1.0000 </r>
       <r>    3.7262    1.0000 </r>
       <r>    8.4777    0.0000 </r>
       <r>    9.1430    0.0000 </r>
       <r>   10.5907    0.0000 </r>
       <r>   11.4910    0.0000 </r>
       <r>   14.5432    0.0000 </r>
       <r>   15.2392    0.0000 </r>
       <r>   17.5156    0.0000 </r>
       <r>   18.3602    0.0000 </r>
      </set>
      <set comment="kpoint 24">
       <r>   -3.3919    1.0000 </r>
       <r>   -1.0930    1.0000 </r>
       <r>    2.2267    1.0000 </r>
       <r>    3.5033    1.0000 </r>
       <r>    8.6365    0.0000 </r>
       <r>    8.7602    0.0000 </r>
       <r>   11.4593    0.0000 </r>
       <r>   12.6793    0.0000 </r>
       <r>   12.9194    0.0000 </r>
       <r>   16.1208    0.0000 </r>
       <r>   17.1651    0.0000 </r>
       <r>   17.8870    0.0000 </r>
      </set>
      <set comment="kpoint 25">
       <r>   -3.1461    1.0000 </r>
       <r>   -0.9042    1.0000 </r>
       <r>    1.4843    1.0000 </r>
       <r>    3.0888    1.0000 </r>
       <r>    8.4781    0.0000 </r>
       <r>   10.1277    0.0000 </r>
       <r>   10.7790    0.0000 </r>
       <r>   12.5758    0.0000 </r>
       <r>   13.3782    0.0000 </r>
       <r>   14.7590    0.0000 </r>
       <r>   19.5485    0.0000 </r>
       <r>   19.7527    0.0000 </r>
      </set>
      <set comment="kpoint 26">
       <r>   -2.8026    1.0000 </r>
       <r>   -1.2620    1.0000 </r>
       <r>    1.6466    1.0000 </r>
       <r>    2.7223    1.0000 </r>
       <r>    8.0089    0.0000 </r>
       <r>    9.8826    0.0000 </r>
       <r>   10.8251    0.0000 </r>
       <r>   12.9642    0.0000 </r>
       <r>   13.9203    0.0000 </r>
       <r>   16.5723    0.0000 </r>
       <r>   17.6837    0.0000 </r>
       <r>   19.7987    0.0000 </r>
      </set>
      <set comment="kpoint 27">
       <r>   -3.6558    1.0000 </r>
       <r>   -0.3138    1.0000 </r>
       <r>    2.3265    1.0000 </r>
       <r>    2.9182    1.0000 </r>
       <r>    7.5695    0.0000 </r>
       <r>    8.2727    0.0000 </r>
       <r>   11.2976    0.0000 </r>
       <r>   13.5003    0.0000 </r>
       <r>   15.6676    0.0000 </r>
       <r>   15.7222    0.0000 </r>
       <r>   18.2955    0.0000 </r>
       <r>   18.8002    0.0000 </r>
      </set>
      <set comment="kpoint 28">
       <r>   -2.0584    1.0000 </r>
       <r>   -2.0584    1.0000 </r>
       <r>    2.2751    1.0000 </r>
       <r>    2.2751    1.0000 </r>
       <r>    7.5999    0.0000 </r>
       <r>    7.5999    0.0000 </r>
       <r>   13.3639    0.0000 </r>
       <r>   13.3639    0.0000 </r>
       <r>   16.0656    0.0000 </r>
       <r>   16.0656    0.0000 </r>
       <r>   18.3324    0.0000 </r>
       <r>   18.3324    0.0000 </r>
      </set>
      <set comment="kpoint 29">
       <r>   -1.9777    1.0000 </r>
       <r>   -1.9777    1.0000 </r>
       <r>    1.8535    1.0000 </r>
       <r>    1.8535    1.0000 </r>
       <r>    9.8840    0.0000 </r>
       <r>    9.8840    0.0000 </r>
       <r>   10.5437    0.0000 </r>
       <r>   10.5437    0.0000 </r>
       <r>   16.0632    0.0000 </r>
       <r>   16.0632    0.0000 </r>
       <r>   18.4816    0.0000 </r>
       <r>   18.4816    0.0000 </r>
      </set>
     </set>
     <set comment="spin 2">
      <set comment="kpoint 1">
       <r>   -6.1983    1.0000 </r>
       <r>    5.6144    1.0000 </r>
       <r>    5.6144    1.0000 </r>
       <r>    5.6145    1.0000 </r>
       <r>    8.1705    0.0000 </r>
       <r>    8.1705    0.0000 </r>
       <r>    8.1705    0.0000 </r>
       <r>    8.7448    0.0000 </r>
       <r>   13.3224    0.0000 </r>
       <r>   13.3224    0.0000 </r>
       <r>   13.4918    0.0000 </r>
       <r>   16.7949    0.0000 </r>
      </set>
      <set comment="kpoint 2">
       <r>   -5.9979    1.0000 </r>
       <r>    4.0237    1.0000 </r>
       <r>    5.3321    1.0000 </r>
       <r>    5.3321    1.0000 </r>
       <r>    8.0563    0.0000 </r>
       <r>    8.5859    0.0000 </r>
       <r>    8.5859    0.0000 </r>
       <r>   10.1446    0.0000 </r>
       <r>   12.8497    0.0000 </r>
       <r>   12.8497    0.0000 </r>
       <r>   14.2673    0.0000 </r>
       <r>   16.2418    0.0000 </r>
      </set>
      <set comment="kpoint 3">
       <r>   -5.4137    1.0000 </r>
       <r>    1.7287    1.0000 </r>
       <r>    4.8695    1.0000 </r>
       <r>    4.8695    1.0000 </r>
       <r>    7.5726    0.0000 </r>
       <r>    9.1037    0.0000 </r>
       <r>    9.1037    0.0000 </r>
       <r>   12.3633    0.0000 </r>
       <r>   12.8007    0.0000 </r>
       <r>   12.8007    0.0000 </r>
       <r>   14.5437    0.0000 </r>
       <r>   17.3249    0.0000 </r>
      </set>
      <set comment="kpoint 4">
       <r>   -4.5394    1.0000 </r>
       <r>   -0.2551    1.0000 </r>
       <r>    4.5469    1.0000 </r>
       <r>    4.5469    1.0000 </r>
       <r>    7.2081    0.0000 </r>
       <r>    9.0669    0.0000 </r>
       <r>    9.0669    0.0000 </r>
       <r>   13.4517    0.0000 </r>
       <r>   14.1523    0.0000 </r>
       <r>   14.1523    0.0000 </r>
       <r>   15.1246    0.0000 </r>
       <r>   19.2336    0.0000 </r>
      </set>
      <set comment="kpoint 5">
       <r>   -3.9204    1.0000 </r>
       <r>   -1.2528    1.0000 </r>
       <r>    4.4363    1.0000 </r>
       <r>    4.4363    1.0000 </r>
       <r>    7.0799    0.0000 </r>
       <r>    8.9634    0.0000 </r>
       <r>    8.9634    0.0000 </r>
       <r>   13.3165    0.0000 </r>
       <r>   16.1079    0.0000 </r>
       <r>   16.1079    0.0000 </r>
       <r>   16.7941    0.0000 </r>
       <r>   16.8319    0.0000 </r>
      </set>
      <set comment="kpoint 6">
       <r>   -5.9303    1.0000 </r>
       <r>    4.2620    1.0000 </r>
       <r>    4.8281    1.0000 </r>
       <r>    4.8281    1.0000 </r>
       <r>    7.6296    0.0000 </r>
       <r>    9.2852    0.0000 </r>
       <r>    9.2852    0.0000 </r>
       <r>    9.8320    0.0000 </r>
       <r>   12.0977    0.0000 </r>
       <r>   13.6206    0.0000 </r>
       <r>   14.5617    0.0000 </r>
       <r>   17.2613    0.0000 </r>
      </set>
      <set comment="kpoint 7">
       <r>   -5.6679    1.0000 </r>
       <r>    2.9401    1.0000 </r>
       <r>    4.0258    1.0000 </r>
       <r>    5.3247    1.0000 </r>
       <r>    8.5817    0.0000 </r>
       <r>    8.7228    0.0000 </r>
       <r>    8.9447    0.0000 </r>
       <r>   11.0429    0.0000 </r>
       <r>   11.9697    0.0000 </r>
       <r>   13.5786    0.0000 </r>
       <r>   15.2693    0.0000 </r>
       <r>   16.7276    0.0000 </r>
      </set>
      <set comment="kpoint 8">
       <r>   -4.9720    1.0000 </r>
       <r>    1.0337    1.0000 </r>
       <r>    3.3485    1.0000 </r>
       <r>    4.8532    1.0000 </r>
       <r>    8.2691    0.0000 </r>
       <r>    9.2751    0.0000 </r>
       <r>    9.4494    0.0000 </r>
       <r>   11.8245    0.0000 </r>
       <r>   12.0898    0.0000 </r>
       <r>   15.3584    0.0000 </r>
       <r>   15.5710    0.0000 </r>
       <r>   17.9154    0.0000 </r>
      </set>
      <set comment="kpoint 9">
       <r>   -4.0706    1.0000 </r>
       <r>   -0.6813    1.0000 </r>
       <r>    3.1943    1.0000 </r>
       <r>    4.3722    1.0000 </r>
       <r>    7.9261    0.0000 </r>
       <r>    9.2217    0.0000 </r>
       <r>    9.4777    0.0000 </r>
       <r>   13.4408    0.0000 </r>
       <r>   13.6719    0.0000 </r>
       <r>   14.7481    0.0000 </r>
       <r>   16.6897    0.0000 </r>
       <r>   17.8938    0.0000 </r>
      </set>
      <set comment="kpoint 10">
       <r>   -3.8334    1.0000 </r>
       <r>   -1.0424    1.0000 </r>
       <r>    3.3694    1.0000 </r>
       <r>    4.0830    1.0000 </r>
       <r>    7.7769    0.0000 </r>
       <r>    9.1025    0.0000 </r>
       <r>    9.7072    0.0000 </r>
       <r>   12.9179    0.0000 </r>
       <r>   14.5570    0.0000 </r>
       <r>   16.0294    0.0000 </r>
       <r>   17.0144    0.0000 </r>
       <r>   17.1506    0.0000 </r>
      </set>
      <set comment="kpoint 11">
       <r>   -4.6721    1.0000 </r>
       <r>    0.3876    1.0000 </r>
       <r>    3.8063    1.0000 </r>
       <r>    4.0610    1.0000 </r>
       <r>    7.8421    0.0000 </r>
       <r>    9.2061    0.0000 </r>
       <r>   10.0551    0.0000 </r>
       <r>   11.0532    0.0000 </r>
       <r>   14.8825    0.0000 </r>
       <r>   14.8943    0.0000 </r>
       <r>   15.4031    0.0000 </r>
       <r>   18.8851    0.0000 </r>
      </set>
      <set comment="kpoint 12">
       <r>   -5.4704    1.0000 </r>
       <r>    2.4089    1.0000 </r>
       <r>    4.3259    1.0000 </r>
       <r>    4.3895    1.0000 </r>
       <r>    7.7592    0.0000 </r>
       <r>    9.2380    0.0000 </r>
       <r>   10.0408    0.0000 </r>
       <r>   10.3526    0.0000 </r>
       <r>   12.9729    0.0000 </r>
       <r>   13.7817    0.0000 </r>
       <r>   15.5490    0.0000 </r>
       <r>   17.1105    0.0000 </r>
      </set>
      <set comment="kpoint 13">
       <r>   -5.1361    1.0000 </r>
       <r>    2.0960    1.0000 </r>
       <r>    3.7663    1.0000 </r>
       <r>    3.7663    1.0000 </r>
       <r>    6.7661    0.0000 </r>
       <r>    8.7499    0.0000 </r>
       <r>   11.3027    0.0000 </r>
       <r>   11.3027    0.0000 </r>
       <r>   13.4802    0.0000 </r>
       <r>   14.5135    0.0000 </r>
       <r>   16.9146    0.0000 </r>
       <r>   18.5298    0.0000 </r>
      </set>
      <set comment="kpoint 14">
       <r>   -4.1948    1.0000 </r>
       <r>    0.1756    1.0000 </r>
       <r>    1.9464    1.0000 </r>
       <r>    4.3125    1.0000 </r>
       <r>    8.0518    0.0000 </r>
       <r>   10.3620    0.0000 </r>
       <r>   10.6972    0.0000 </r>
       <r>   11.6543    0.0000 </r>
       <r>   12.0677    0.0000 </r>
       <r>   15.1344    0.0000 </r>
       <r>   18.1071    0.0000 </r>
       <r>   18.6421    0.0000 </r>
      </set>
      <set comment="kpoint 15">
       <r>   -3.3380    1.0000 </r>
       <r>   -0.9581    1.0000 </r>
       <r>    1.7057    1.0000 </r>
       <r>    3.7664    1.0000 </r>
       <r>    7.4703    0.0000 </r>
       <r>   11.0150    0.0000 </r>
       <r>   11.0559    0.0000 </r>
       <r>   12.4967    0.0000 </r>
       <r>   13.5056    0.0000 </r>
       <r>   13.5610    0.0000 </r>
       <r>   18.0918    0.0000 </r>
       <r>   20.3050    0.0000 </r>
      </set>
      <set comment="kpoint 16">
       <r>   -3.5351    1.0000 </r>
       <r>   -0.7083    1.0000 </r>
       <r>    2.1529    1.0000 </r>
       <r>    3.4553    1.0000 </r>
       <r>    7.1564    0.0000 </r>
       <r>   10.0459    0.0000 </r>
       <r>   11.2592    0.0000 </r>
       <r>   11.4902    0.0000 </r>
       <r>   15.6990    0.0000 </r>
       <r>   16.0732    0.0000 </r>
       <r>   17.6614    0.0000 </r>
       <r>   18.1331    0.0000 </r>
      </set>
      <set comment="kpoint 17">
       <r>   -4.4397    1.0000 </r>
       <r>    0.6996    1.0000 </r>
       <r>    3.0006    1.0000 </r>
       <r>    3.4534    1.0000 </r>
       <r>    6.9855    0.0000 </r>
       <r>    8.5174    0.0000 </r>
       <r>   11.5216    0.0000 </r>
       <r>   11.8201    0.0000 </r>
       <r>   15.5364    0.0000 </r>
       <r>   15.5821    0.0000 </r>
       <r>   17.1603    0.0000 </r>
       <r>   18.6981    0.0000 </r>
      </set>
      <set comment="kpoint 18">
       <r>   -3.8479    1.0000 </r>
       <r>   -0.0973    1.0000 </r>
       <r>    3.0624    1.0000 </r>
       <r>    3.0624    1.0000 </r>
       <r>    6.2652    0.0000 </r>
       <r>    7.1906    0.0000 </r>
       <r>   13.5498    0.0000 </r>
       <r>   13.5498    0.0000 </r>
       <r>   15.9956    0.0000 </r>
       <r>   16.0937    0.0000 </r>
       <r>   18.4962    0.0000 </r>
       <r>   18.4963    0.0000 </r>
      </set>
      <set comment="kpoint 19">
       <r>   -2.5458    1.0000 </r>
       <r>   -1.5487    1.0000 </r>
       <r>    1.4153    1.0000 </r>
       <r>    3.2394    1.0000 </r>
       <r>    6.8489    0.0000 </r>
       <r>    9.7262    0.0000 </r>
       <r>   12.9934    0.0000 </r>
       <r>   13.5293    0.0000 </r>
       <r>   13.6949    0.0000 </r>
       <r>   14.0938    0.0000 </r>
       <r>   20.1131    0.0000 </r>
       <r>   20.3776    0.0000 </r>
      </set>
      <set comment="kpoint 20">
       <r>   -2.9688    1.0000 </r>
       <r>   -1.1636    1.0000 </r>
       <r>    2.2572    1.0000 </r>
       <r>    2.9872    1.0000 </r>
       <r>    6.5457    0.0000 </r>
       <r>    7.5996    0.0000 </r>
       <r>   13.7870    0.0000 </r>
       <r>   13.8426    0.0000 </r>
       <r>   16.2307    0.0000 </r>
       <r>   16.3320    0.0000 </r>
       <r>   17.8284    0.0000 </r>
       <r>   18.2491    0.0000 </r>
      </set>
      <set comment="kpoint 21">
       <r>   -2.1309    1.0000 </r>
       <r>   -2.1309    1.0000 </r>
       <r>    2.8210    1.0000 </r>
       <r>    2.8210    1.0000 </r>
       <r>    6.3664    0.0000 </r>
       <r>    6.3664    0.0000 </r>
       <r>   15.5479    0.0000 </r>
       <r>   15.5479    0.0000 </r>
       <r>   16.5200    0.0000 </r>
       <r>   16.5200    0.0000 </r>
       <r>   18.0552    0.0000 </r>
       <r>   18.0554    0.0000 </r>
      </set>
      <set comment="kpoint 22">
       <r>   -4.8938    1.0000 </r>
       <r>    1.3465    1.0000 </r>
       <r>    2.9631    1.0000 </r>
       <r>    4.2146    1.0000 </r>
       <r>    8.0574    0.0000 </r>
       <r>    9.4403    0.0000 </r>
       <r>    9.8174    0.0000 </r>
       <r>   11.0543    0.0000 </r>
       <r>   13.3261    0.0000 </r>
       <r>   15.7177    0.0000 </r>
       <r>   16.5780    0.0000 </r>
       <r>   17.6462    0.0000 </r>
      </set>
      <set comment="kpoint 23">
       <r>   -4.0246    1.0000 </r>
       <r>   -0.1726    1.0000 </r>
       <r>    2.3592    1.0000 </r>
       <r>    3.7274    1.0000 </r>
       <r>    8.4785    0.0000 </r>
       <r>    9.1438    0.0000 </r>
       <r>   10.5915    0.0000 </r>
       <r>   11.4919    0.0000 </r>
       <r>   14.5439    0.0000 </r>
       <r>   15.2400    0.0000 </r>
       <r>   17.5159    0.0000 </r>
       <r>   18.3611    0.0000 </r>
      </set>
      <set comment="kpoint 24">
       <r>   -3.3907    1.0000 </r>
       <r>   -1.0918    1.0000 </r>
       <r>    2.2278    1.0000 </r>
       <r>    3.5044    1.0000 </r>
       <r>    8.6375    0.0000 </r>
       <r>    8.7608    0.0000 </r>
       <r>   11.4602    0.0000 </r>
       <r>   12.6799    0.0000 </r>
       <r>   12.9204    0.0000 </r>
       <r>   16.1212    0.0000 </r>
       <r>   17.1659    0.0000 </r>
       <r>   17.8875    0.0000 </r>
      </set>
      <set comment="kpoint 25">
       <r>   -3.1449    1.0000 </r>
       <r>   -0.9030    1.0000 </r>
       <r>    1.4853    1.0000 </r>
       <r>    3.0899    1.0000 </r>
       <r>    8.4789    0.0000 </r>
       <r>   10.1285    0.0000 </r>
       <r>   10.7798    0.0000 </r>
       <r>   12.5766    0.0000 </r>
       <r>   13.3792    0.0000 </r>
       <r>   14.7597    0.0000 </r>
       <r>   19.5490    0.0000 </r>
       <r>   19.7537    0.0000 </r>
      </set>
      <set comment="kpoint 26">
       <r>   -2.8013    1.0000 </r>
       <r>   -1.2608    1.0000 </r>
       <r>    1.6476    1.0000 </r>
       <r>    2.7234    1.0000 </r>
       <r>    8.0096    0.0000 </r>
       <r>    9.8832    0.0000 </r>
[...]
        <r>  0.0140  0.0011  0.0012  0.0025  0.0000  0.0000  0.0000  0.0000  0.0000 </r>
       </set>
      </set>
      <set comment="kpoint 23">
       <set comment="band 1">
        <r>  0.2086  0.0025  0.0016  0.0158  0.0000  0.0000  0.0000  0.0000  0.0000 </r>
        <r>  0.2086  0.0025  0.0016  0.0158  0.0000  0.0000  0.0000  0.0000  0.0000 </r>
       </set>
       <set comment="band 2">
        <r>  0.1462  0.0230  0.0112  0.0475  0.0000  0.0000  0.0000  0.0000  0.0000 </r>
        <r>  0.1462  0.0230  0.0112  0.0475  0.0000  0.0000  0.0000  0.0000  0.0000 </r>
       </set>
       <set comment="band 3">
        <r>  0.0274  0.0336  0.0544  0.0656  0.0000  0.0000  0.0000  0.0000  0.0000 </r>
        <r>  0.0274  0.0336  0.0544  0.0656  0.0000  0.0000  0.0000  0.0000  0.0000 </r>
       </set>
       <set comment="band 4">
        <r>  0.0038  0.1017  0.0851  0.0044  0.0000  0.0000  0.0000  0.0000  0.0000 </r>
        <r>  0.0038  0.1017  0.0851  0.0044  0.0000  0.0000  0.0000  0.0000  0.0000 </r>
       </set>
       <set comment="band 5">
        <r>  0.0439  0.0380  0.0381  0.0120  0.0000  0.0000  0.0000  0.0000  0.0000 </r>
        <r>  0.0439  0.0380  0.0381  0.0120  0.0000  0.0000  0.0000  0.0000  0.0000 </r>
       </set>
       <set comment="band 6">
        <r>  0.0407  0.0353  0.0500  0.0060  0.0000  0.0000  0.0000  0.0000  0.0000 </r>
        <r>  0.0407  0.0353  0.0500  0.0060  0.0000  0.0000  0.0000  0.0000  0.0000 </r>
       </set>
       <set comment="band 7">
        <r>  0.0358  0.0035  0.0480  0.0370  0.0000  0.0000  0.0000  0.0000  0.0000 </r>
        <r>  0.0358  0.0035  0.0480  0.0370  0.0000  0.0000  0.0000  0.0000  0.0000 </r>
       </set>
       <set comment="band 8">
        <r>  0.0135  0.0547  0.0546  0.0119  0.0000  0.0000  0.0000  0.0000  0.0000 </r>
        <r>  0.0135  0.0547  0.0546  0.0119  0.0000  0.0000  0.0000  0.0000  0.0000 </r>
       </set>
       <set comment="band 9">
        <r>  0.0232  0.0404  0.0012  0.0368  0.0000  0.0000  0.0000  0.0000  0.0000 </r>
        <r>  0.0232  0.0404  0.0012  0.0368  0.0000  0.0000  0.0000  0.0000  0.0000 </r>
       </set>
       <set comment="band 10">
        <r>  0.0043  0.0156  0.0115  0.0959  0.0000  0.0000  0.0000  0.0000  0.0000 </r>
        <r>  0.0043  0.0156  0.0115  0.0959  0.0000  0.0000  0.0000  0.0000  0.0000 </r>
       </set>
       <set comment="band 11">
        <r>  0.0316  0.0056  0.0058  0.0027  0.0000  0.0000  0.0000  0.0000  0.0000 </r>
        <r>  0.0316  0.0056  0.0058  0.0027  0.0000  0.0000  0.0000  0.0000  0.0000 </r>
       </set>
       <set comment="band 12">
        <r>  0.0291  0.0156  0.0089  0.1037  0.0000  0.0000  0.0000  0.0000  0.0000 </r>
        <r>  0.0291  0.0156  0.0089  0.1037  0.0000  0.0000  0.0000  0.0000  0.0000 </r>
       </set>
      </set>
      <set comment="kpoint 24">
       <set comment="band 1">
        <r>  0.2183  0.0049  0.0060  0.0100  0.0000  0.0000  0.0000  0.0000  0.0000 </r>
        <r>  0.2183  0.0049  0.0060  0.0100  0.0000  0.0000  0.0000  0.0000  0.0000 </r>
       </set>
       <set comment="band 2">
        <r>  0.1350  0.0215  0.0087  0.0482  0.0000  0.0000  0.0000  0.0000  0.0000 </r>
        <r>  0.1350  0.0215  0.0087  0.0482  0.0000  0.0000  0.0000  0.0000  0.0000 </r>
       </set>
       <set comment="band 3">
        <r>  0.0369  0.0092  0.0836  0.0553  0.0000  0.0000  0.0000  0.0000  0.0000 </r>
        <r>  0.0369  0.0092  0.0836  0.0553  0.0000  0.0000  0.0000  0.0000  0.0000 </r>
       </set>
       <set comment="band 4">
        <r>  0.0008  0.1251  0.0492  0.0159  0.0000  0.0000  0.0000  0.0000  0.0000 </r>
        <r>  0.0008  0.1251  0.0492  0.0159  0.0000  0.0000  0.0000  0.0000  0.0000 </r>
       </set>
       <set comment="band 5">
        <r>  0.0808  0.0464  0.0264  0.0085  0.0000  0.0000  0.0000  0.0000  0.0000 </r>
        <r>  0.0808  0.0464  0.0264  0.0085  0.0000  0.0000  0.0000  0.0000  0.0000 </r>
       </set>
       <set comment="band 6">
        <r>  0.0078  0.0212  0.0385  0.0230  0.0000  0.0000  0.0000  0.0000  0.0000 </r>
        <r>  0.0078  0.0212  0.0385  0.0230  0.0000  0.0000  0.0000  0.0000  0.0000 </r>
       </set>
       <set comment="band 7">
        <r>  0.0231  0.0349  0.0595  0.0278  0.0000  0.0000  0.0000  0.0000  0.0000 </r>
        <r>  0.0231  0.0349  0.0595  0.0278  0.0000  0.0000  0.0000  0.0000  0.0000 </r>
       </set>
       <set comment="band 8">
        <r>  0.0137  0.0002  0.0198  0.0547  0.0000  0.0000  0.0000  0.0000  0.0000 </r>
        <r>  0.0137  0.0002  0.0198  0.0547  0.0000  0.0000  0.0000  0.0000  0.0000 </r>
       </set>
       <set comment="band 9">
        <r>  0.0200  0.0238  0.0531  0.0565  0.0000  0.0000  0.0000  0.0000  0.0000 </r>
        <r>  0.0200  0.0238  0.0531  0.0565  0.0000  0.0000  0.0000  0.0000  0.0000 </r>
       </set>
       <set comment="band 10">
        <r>  0.0000  0.0167  0.0036  0.0275  0.0000  0.0000  0.0000  0.0000  0.0000 </r>
        <r>  0.0000  0.0167  0.0036  0.0275  0.0000  0.0000  0.0000  0.0000  0.0000 </r>
       </set>
       <set comment="band 11">
        <r>  0.0149  0.1079  0.0045  0.0084  0.0000  0.0000  0.0000  0.0000  0.0000 </r>
        <r>  0.0149  0.1079  0.0045  0.0084  0.0000  0.0000  0.0000  0.0000  0.0000 </r>
       </set>
       <set comment="band 12">
        <r>  0.0438  0.0069  0.0068  0.0250  0.0000  0.0000  0.0000  0.0000  0.0000 </r>
        <r>  0.0438  0.0069  0.0068  0.0250  0.0000  0.0000  0.0000  0.0000  0.0000 </r>
       </set>
      </set>
      <set comment="kpoint 25">
       <set comment="band 1">
        <r>  0.2104  0.0058  0.0040  0.0172  0.0000  0.0000  0.0000  0.0000  0.0000 </r>
        <r>  0.2104  0.0058  0.0040  0.0172  0.0000  0.0000  0.0000  0.0000  0.0000 </r>
       </set>
       <set comment="band 2">
        <r>  0.1799  0.0238  0.0131  0.0245  0.0000  0.0000  0.0000  0.0000  0.0000 </r>
        <r>  0.1799  0.0238  0.0131  0.0245  0.0000  0.0000  0.0000  0.0000  0.0000 </r>
       </set>
       <set comment="band 3">
        <r>  0.0060  0.0443  0.0226  0.0849  0.0000  0.0000  0.0000  0.0000  0.0000 </r>
        <r>  0.0060  0.0443  0.0226  0.0849  0.0000  0.0000  0.0000  0.0000  0.0000 </r>
       </set>
       <set comment="band 4">
        <r>  0.0034  0.0662  0.1131  0.0003  0.0000  0.0000  0.0000  0.0000  0.0000 </r>
        <r>  0.0034  0.0662  0.1131  0.0003  0.0000  0.0000  0.0000  0.0000  0.0000 </r>
       </set>
       <set comment="band 5">
        <r>  0.0389  0.0353  0.0374  0.0046  0.0000  0.0000  0.0000  0.0000  0.0000 </r>
        <r>  0.0389  0.0353  0.0374  0.0046  0.0000  0.0000  0.0000  0.0000  0.0000 </r>
       </set>
       <set comment="band 6">
        <r>  0.0181  0.0445  0.0610  0.0020  0.0000  0.0000  0.0000  0.0000  0.0000 </r>
        <r>  0.0181  0.0445  0.0610  0.0020  0.0000  0.0000  0.0000  0.0000  0.0000 </r>
       </set>
       <set comment="band 7">
        <r>  0.0437  0.0178  0.0093  0.0563  0.0000  0.0000  0.0000  0.0000  0.0000 </r>
        <r>  0.0437  0.0178  0.0093  0.0563  0.0000  0.0000  0.0000  0.0000  0.0000 </r>
       </set>
       <set comment="band 8">
        <r>  0.0187  0.0127  0.0086  0.0818  0.0000  0.0000  0.0000  0.0000  0.0000 </r>
        <r>  0.0187  0.0127  0.0086  0.0818  0.0000  0.0000  0.0000  0.0000  0.0000 </r>
       </set>
       <set comment="band 9">
        <r>  0.0124  0.0777  0.0699  0.0046  0.0000  0.0000  0.0000  0.0000  0.0000 </r>
        <r>  0.0124  0.0777  0.0699  0.0046  0.0000  0.0000  0.0000  0.0000  0.0000 </r>
       </set>
       <set comment="band 10">
        <r>  0.0284  0.0082  0.0098  0.0619  0.0000  0.0000  0.0000  0.0000  0.0000 </r>
        <r>  0.0284  0.0082  0.0098  0.0619  0.0000  0.0000  0.0000  0.0000  0.0000 </r>
       </set>
       <set comment="band 11">
        <r>  0.0113  0.0327  0.0192  0.0087  0.0000  0.0000  0.0000  0.0000  0.0000 </r>
        <r>  0.0116  0.0332  0.0195  0.0084  0.0000  0.0000  0.0000  0.0000  0.0000 </r>
       </set>
       <set comment="band 12">
        <r>  0.0057  0.0442  0.0218  0.0346  0.0000  0.0000  0.0000  0.0000  0.0000 </r>
        <r>  0.0069  0.0398  0.0194  0.0404  0.0000  0.0000  0.0000  0.0000  0.0000 </r>
       </set>
      </set>
      <set comment="kpoint 26">
       <set comment="band 1">
        <r>  0.2095  0.0129  0.0113  0.0063  0.0000  0.0000  0.0000  0.0000  0.0000 </r>
        <r>  0.2095  0.0130  0.0113  0.0063  0.0000  0.0000  0.0000  0.0000  0.0000 </r>
       </set>
       <set comment="band 2">
        <r>  0.1845  0.0243  0.0124  0.0194  0.0000  0.0000  0.0000  0.0000  0.0000 </r>
        <r>  0.1845  0.0243  0.0124  0.0194  0.0000  0.0000  0.0000  0.0000  0.0000 </r>
       </set>
       <set comment="band 3">
        <r>  0.0069  0.0136  0.0386  0.1018  0.0000  0.0000  0.0000  0.0000  0.0000 </r>
        <r>  0.0069  0.0136  0.0386  0.1018  0.0000  0.0000  0.0000  0.0000  0.0000 </r>
       </set>
       <set comment="band 4">
        <r>  0.0017  0.0871  0.0830  0.0057  0.0000  0.0000  0.0000  0.0000  0.0000 </r>
        <r>  0.0017  0.0871  0.0830  0.0057  0.0000  0.0000  0.0000  0.0000  0.0000 </r>
       </set>
       <set comment="band 5">
        <r>  0.0387  0.0358  0.0331  0.0030  0.0000  0.0000  0.0000  0.0000  0.0000 </r>
        <r>  0.0387  0.0358  0.0331  0.0030  0.0000  0.0000  0.0000  0.0000  0.0000 </r>
       </set>
       <set comment="band 6">
        <r>  0.0166  0.0088  0.0069  0.0692  0.0000  0.0000  0.0000  0.0000  0.0000 </r>
        <r>  0.0166  0.0088  0.0069  0.0692  0.0000  0.0000  0.0000  0.0000  0.0000 </r>
       </set>
       <set comment="band 7">
        <r>  0.0443  0.0570  0.0185  0.0332  0.0000  0.0000  0.0000  0.0000  0.0000 </r>
        <r>  0.0443  0.0570  0.0185  0.0332  0.0000  0.0000  0.0000  0.0000  0.0000 </r>
       </set>
       <set comment="band 8">
        <r>  0.0237  0.0068  0.0715  0.0442  0.0000  0.0000  0.0000  0.0000  0.0000 </r>
        <r>  0.0237  0.0068  0.0715  0.0442  0.0000  0.0000  0.0000  0.0000  0.0000 </r>
       </set>
       <set comment="band 9">
        <r>  0.0114  0.0362  0.0597  0.0236  0.0000  0.0000  0.0000  0.0000  0.0000 </r>
        <r>  0.0114  0.0362  0.0597  0.0236  0.0000  0.0000  0.0000  0.0000  0.0000 </r>
       </set>
       <set comment="band 10">
        <r>  0.0066  0.0315  0.0093  0.0616  0.0000  0.0000  0.0000  0.0000  0.0000 </r>
        <r>  0.0066  0.0315  0.0093  0.0616  0.0000  0.0000  0.0000  0.0000  0.0000 </r>
       </set>
       <set comment="band 11">
        <r>  0.0215  0.0934  0.0082  0.0065  0.0000  0.0000  0.0000  0.0000  0.0000 </r>
        <r>  0.0215  0.0934  0.0082  0.0065  0.0000  0.0000  0.0000  0.0000  0.0000 </r>
       </set>
       <set comment="band 12">
        <r>  0.0072  0.0052  0.0407  0.0316  0.0000  0.0000  0.0000  0.0000  0.0000 </r>
        <r>  0.0072  0.0052  0.0407  0.0316  0.0000  0.0000  0.0000  0.0000  0.0000 </r>
       </set>
      </set>
      <set comment="kpoint 27">
       <set comment="band 1">
        <r>  0.2035  0.0124  0.0120  0.0013  0.0000  0.0000  0.0000  0.0000  0.0000 </r>
        <r>  0.2035  0.0124  0.0120  0.0013  0.0000  0.0000  0.0000  0.0000  0.0000 </r>
       </set>
       <set comment="band 2">
        <r>  0.1823  0.0281  0.0295  0.0081  0.0000  0.0000  0.0000  0.0000  0.0000 </r>
        <r>  0.1823  0.0281  0.0295  0.0081  0.0000  0.0000  0.0000  0.0000  0.0000 </r>
       </set>
       <set comment="band 3">
        <r>  0.0083  0.0145  0.0761  0.0752  0.0000  0.0000  0.0000  0.0000  0.0000 </r>
        <r>  0.0083  0.0145  0.0761  0.0752  0.0000  0.0000  0.0000  0.0000  0.0000 </r>
       </set>
       <set comment="band 4">
        <r>  0.0007  0.0790  0.0255  0.0759  0.0000  0.0000  0.0000  0.0000  0.0000 </r>
        <r>  0.0007  0.0790  0.0255  0.0759  0.0000  0.0000  0.0000  0.0000  0.0000 </r>
       </set>
       <set comment="band 5">
        <r>  0.0368  0.0538  0.0076  0.0226  0.0000  0.0000  0.0000  0.0000  0.0000 </r>
        <r>  0.0368  0.0538  0.0076  0.0226  0.0000  0.0000  0.0000  0.0000  0.0000 </r>
       </set>
       <set comment="band 6">
        <r>  0.0391  0.0055  0.0323  0.0157  0.0000  0.0000  0.0000  0.0000  0.0000 </r>
        <r>  0.0391  0.0055  0.0323  0.0157  0.0000  0.0000  0.0000  0.0000  0.0000 </r>
       </set>
       <set comment="band 7">
        <r>  0.0339  0.0525  0.0168  0.0489  0.0000  0.0000  0.0000  0.0000  0.0000 </r>
        <r>  0.0339  0.0525  0.0168  0.0489  0.0000  0.0000  0.0000  0.0000  0.0000 </r>
       </set>
       <set comment="band 8">
        <r>  0.0026  0.0438  0.0401  0.0767  0.0000  0.0000  0.0000  0.0000  0.0000 </r>
        <r>  0.0026  0.0438  0.0401  0.0767  0.0000  0.0000  0.0000  0.0000  0.0000 </r>
       </set>
       <set comment="band 9">
        <r>  0.0407  0.0329  0.0363  0.0031  0.0000  0.0000  0.0000  0.0000  0.0000 </r>
        <r>  0.0407  0.0329  0.0363  0.0031  0.0000  0.0000  0.0000  0.0000  0.0000 </r>
       </set>
       <set comment="band 10">
        <r>  0.0065  0.0158  0.0677  0.0280  0.0000  0.0000  0.0000  0.0000  0.0000 </r>
        <r>  0.0065  0.0158  0.0677  0.0280  0.0000  0.0000  0.0000  0.0000  0.0000 </r>
       </set>
       <set comment="band 11">
        <r>  0.0231  0.0175  0.0896  0.0509  0.0000  0.0000  0.0000  0.0000  0.0000 </r>
        <r>  0.0231  0.0175  0.0897  0.0508  0.0000  0.0000  0.0000  0.0000  0.0000 </r>
       </set>
       <set comment="band 12">
        <r>  0.0208  0.0139  0.0053  0.0082  0.0000  0.0000  0.0000  0.0000  0.0000 </r>
        <r>  0.0208  0.0140  0.0054  0.0082  0.0000  0.0000  0.0000  0.0000  0.0000 </r>
       </set>
      </set>
      <set comment="kpoint 28">
       <set comment="band 1">
        <r>  0.3926  0.0005  0.0004  0.0000  0.0000  0.0000  0.0000  0.0000  0.0000 </r>
        <r>  0.0038  0.0516  0.0282  0.0045  0.0000  0.0000  0.0000  0.0000  0.0000 </r>
       </set>
       <set comment="band 2">
        <r>  0.0038  0.0516  0.0280  0.0047  0.0000  0.0000  0.0000  0.0000  0.0000 </r>
        <r>  0.3926  0.0005  0.0002  0.0002  0.0000  0.0000  0.0000  0.0000  0.0000 </r>
       </set>
       <set comment="band 3">
        <r>  0.0005  0.0473  0.0312  0.1032  0.0000  0.0000  0.0000  0.0000  0.0000 </r>
        <r>  0.0045  0.0300  0.0237  0.1055  0.0000  0.0000  0.0000  0.0000  0.0000 </r>
       </set>
       <set comment="band 4">
        <r>  0.0045  0.0262  0.0825  0.0507  0.0000  0.0000  0.0000  0.0000  0.0000 </r>
        <r>  0.0005  0.0434  0.0899  0.0483  0.0000  0.0000  0.0000  0.0000  0.0000 </r>
       </set>
       <set comment="band 5">
        <r>  0.0484  0.0151  0.0076  0.0399  0.0000  0.0000  0.0000  0.0000  0.0000 </r>
        <r>  0.0309  0.0221  0.0100  0.0378  0.0000  0.0000  0.0000  0.0000  0.0000 </r>
       </set>
       <set comment="band 6">
        <r>  0.0309  0.0333  0.0366  0.0000  0.0000  0.0000  0.0000  0.0000  0.0000 </r>
        <r>  0.0484  0.0263  0.0341  0.0021  0.0000  0.0000  0.0000  0.0000  0.0000 </r>
       </set>
       <set comment="band 7">
        <r>  0.0141  0.0169  0.0738  0.0361  0.0000  0.0000  0.0000  0.0000  0.0000 </r>
        <r>  0.0278  0.0075  0.0733  0.0445  0.0000  0.0000  0.0000  0.0000  0.0000 </r>
       </set>
       <set comment="band 8">
        <r>  0.0278  0.0532  0.0102  0.0619  0.0000  0.0000  0.0000  0.0000  0.0000 </r>
        <r>  0.0141  0.0626  0.0107  0.0535  0.0000  0.0000  0.0000  0.0000  0.0000 </r>
       </set>
       <set comment="band 9">
        <r>  0.0002  0.0306  0.0680  0.0614  0.0000  0.0000  0.0000  0.0000  0.0000 </r>
        <r>  0.0008  0.0053  0.0436  0.0380  0.0000  0.0000  0.0000  0.0000  0.0000 </r>
       </set>
       <set comment="band 10">
        <r>  0.0008  0.0319  0.0143  0.0406  0.0000  0.0000  0.0000  0.0000  0.0000 </r>
        <r>  0.0002  0.0572  0.0387  0.0641  0.0000  0.0000  0.0000  0.0000  0.0000 </r>
       </set>
       <set comment="band 11">
        <r>  0.0020  0.1046  0.0598  0.0139  0.0000  0.0000  0.0000  0.0000  0.0000 </r>
        <r>  0.0468  0.0044  0.0030  0.0004  0.0000  0.0000  0.0000  0.0000  0.0000 </r>
       </set>
       <set comment="band 12">
        <r>  0.0468  0.0047  0.0022  0.0009  0.0000  0.0000  0.0000  0.0000  0.0000 </r>
        <r>  0.0020  0.1048  0.0590  0.0144  0.0000  0.0000  0.0000  0.0000  0.0000 </r>
       </set>
      </set>
      <set comment="kpoint 29">
       <set comment="band 1">
        <r>  0.4049  0.0003  0.0002  0.0002  0.0000  0.0000  0.0000  0.0000  0.0000 </r>
        <r>  0.0036  0.0338  0.0270  0.0203  0.0000  0.0000  0.0000  0.0000  0.0000 </r>
       </set>
       <set comment="band 2">
        <r>  0.0036  0.0338  0.0270  0.0203  0.0000  0.0000  0.0000  0.0000  0.0000 </r>
        <r>  0.4049  0.0003  0.0002  0.0002  0.0000  0.0000  0.0000  0.0000  0.0000 </r>
       </set>
       <set comment="band 3">
        <r>  0.0000  0.0890  0.0690  0.0205  0.0000  0.0000  0.0000  0.0000  0.0000 </r>
        <r>  0.0000  0.0441  0.0565  0.0405  0.0000  0.0000  0.0000  0.0000  0.0000 </r>
       </set>
       <set comment="band 4">
        <r>  0.0000  0.0097  0.0376  0.0939  0.0000  0.0000  0.0000  0.0000  0.0000 </r>
        <r>  0.0000  0.0546  0.0500  0.0739  0.0000  0.0000  0.0000  0.0000  0.0000 </r>
       </set>
       <set comment="band 5">
        <r>  0.0000  0.0277  0.0558  0.0843  0.0000  0.0000  0.0000  0.0000  0.0000 </r>
        <r>  0.0000  0.0003  0.0009  0.0020  0.0000  0.0000  0.0000  0.0000  0.0000 </r>
       </set>
       <set comment="band 6">
        <r>  0.0000  0.0009  0.0012  0.0012  0.0000  0.0000  0.0000  0.0000  0.0000 </r>
        <r>  0.0000  0.0283  0.0561  0.0835  0.0000  0.0000  0.0000  0.0000  0.0000 </r>
       </set>
       <set comment="band 7">
        <r>  0.0101  0.0807  0.0645  0.0484  0.0000  0.0000  0.0000  0.0000  0.0000 </r>
        <r>  0.1131  0.0072  0.0058  0.0043  0.0000  0.0000  0.0000  0.0000  0.0000 </r>
       </set>
       <set comment="band 8">
        <r>  0.1131  0.0072  0.0058  0.0043  0.0000  0.0000  0.0000  0.0000  0.0000 </r>
        <r>  0.0101  0.0807  0.0645  0.0484  0.0000  0.0000  0.0000  0.0000  0.0000 </r>
       </set>
       <set comment="band 9">
        <r>  0.0000  0.0416  0.0455  0.0783  0.0000  0.0000  0.0000  0.0000  0.0000 </r>
        <r>  0.0000  0.0064  0.0254  0.0734  0.0000  0.0000  0.0000  0.0000  0.0000 </r>
       </set>
       <set comment="band 10">
        <r>  0.0000  0.0518  0.0447  0.0088  0.0000  0.0000  0.0000  0.0000  0.0000 </r>
        <r>  0.0000  0.0870  0.0648  0.0137  0.0000  0.0000  0.0000  0.0000  0.0000 </r>
       </set>
       <set comment="band 11">
        <r>  0.0058  0.0762  0.0610  0.0457  0.0000  0.0000  0.0000  0.0000  0.0000 </r>
        <r>  0.0449  0.0098  0.0079  0.0059  0.0000  0.0000  0.0000  0.0000  0.0000 </r>
       </set>
       <set comment="band 12">
        <r>  0.0449  0.0098  0.0079  0.0059  0.0000  0.0000  0.0000  0.0000  0.0000 </r>
        <r>  0.0058  0.0762  0.0610  0.0457  0.0000  0.0000  0.0000  0.0000  0.0000 </r>
       </set>
      </set>
     </set>
    </set>
   </array>
  </projected>
 </calculation>
 <structure name="finalpos" >
  <crystal>
   <varray name="basis" >
    <v>       3.86742209       0.00000000       0.00000000 </v>
    <v>       1.93371104       3.34928677       0.00000002 </v>
    <v>      -0.00000000      -2.23285582       3.15773738 </v>
   </varray>
   <i name="volume">     40.90250600 </i>
   <varray name="rec_basis" >
    <v>       0.25857017      -0.14928551      -0.10556072 </v>
    <v>      -0.00000000       0.29857103       0.21112144 </v>
    <v>      -0.00000000      -0.00000000       0.31668245 </v>
   </varray>
  </crystal>
  <varray name="positions" >
   <v>       0.00000000      -0.00000000      -0.00000000 </v>
   <v>       0.75000000       0.50000000       0.75000000 </v>
  </varray>
 </structure>
</modeling>
