       N       E                     dE             d eps       ncg     rms          rms(c)
DAV:   1    -0.108507331292E+02   -0.10851E+02   -0.70494E-04  2353   0.583E-01    0.776E-04
RMM:   2    -0.108507330899E+02    0.39321E-07   -0.31431E-08   922   0.239E-03    0.471E-04
RMM:   3    -0.108507329836E+02    0.10632E-06   -0.22000E-08   945   0.251E-03

   1 F= -.10850733E+02 E0= -.10850733E+02  d E =-.108507E+02  mag=     0.0000
