 vasp.5.4.1 24Jun15 (build Feb 01 2016 23:38:11) complex                        
  
 executed on           IFC91_impi date 2016.08.25  08:52:57
 running on   16 total cores
 distrk:  each k-point on   16 cores,    1 groups
 distr:  one band on NCORES_PER_BAND=   1 cores,   16 groups


--------------------------------------------------------------------------------------------------------


 INCAR:
 POTCAR:   PAW_PBE Si 05Jan2001                   

 ----------------------------------------------------------------------------- 
|                                                                             |
|           W    W    AA    RRRRR   N    N  II  N    N   GGGG   !!!           |
|           W    W   A  A   R    R  NN   N  II  NN   N  G    G  !!!           |
|           W    W  A    A  R    R  N N  N  II  N N  N  G       !!!           |
|           W WW W  AAAAAA  RRRRR   N  N N  II  N  N N  G  GGG   !            |
|           WW  WW  A    A  R   R   N   NN  II  N   NN  G    G                |
|           W    W  A    A  R    R  N    N  II  N    N   GGGG   !!!           |
|                                                                             |
|      For optimal performance we recommend to set                            |
|        NCORE= 4 - approx SQRT( number of cores)                             |
|      NCORE specifies how many cores store one orbital (NPAR=cpu/NCORE).     |
|      This setting can  greatly improve the performance of VASP for DFT.     |
|      The default, NPAR=number of cores might be grossly inefficient         |
|      on modern multi-core architectures or massively parallel machines.     |
|      Do your own testing !!!!                                               |
|      Unfortunately you need to use the default for GW and RPA calculations. |
|      (for HF NCORE is supported but not extensively tested yet)             |
|                                                                             |
 ----------------------------------------------------------------------------- 

 POTCAR:   PAW_PBE Si 05Jan2001                   
   VRHFIN =Si: s2p2                                                             
   LEXCH  = PE                                                                  
   EATOM  =   103.0669 eV,    7.5752 Ry                                         
                                                                                
   TITEL  = PAW_PBE Si 05Jan2001                                                
   LULTRA =        F    use ultrasoft PP ?                                      
   IUNSCR =        1    unscreen: 0-lin 1-nonlin 2-no                           
   RPACOR =    1.500    partial core radius                                     
   POMASS =   28.085; ZVAL   =    4.000    mass and valenz                      
   RCORE  =    1.900    outmost cutoff radius                                   
   RWIGS  =    2.480; RWIGS  =    1.312    wigner-seitz radius (au A)           
   ENMAX  =  245.345; ENMIN  =  184.009 eV                                      
   ICORE  =        2    local potential                                         
   LCOR   =        T    correct aug charges                                     
   LPAW   =        T    paw PP                                                  
   EAUG   =  322.069                                                            
   DEXC   =    -.007                                                            
   RMAX   =    2.944    core radius for proj-oper                               
   RAUG   =    1.300    factor for augmentation sphere                          
   RDEP   =    1.993    radius for radial grids                                 
   QCUT   =   -4.246; QGAM   =    8.493    optimization parameters              
                                                                                
   Description                                                                  
     l     E      TYP  RCUT    TYP  RCUT                                        
     0   .000     23  1.900                                                     
     0   .000     23  1.900                                                     
     1   .000     23  1.900                                                     
     1   .000     23  1.900                                                     
     2   .000      7  1.900                                                     
  local pseudopotential read in
  partial core-charges read in
  atomic valenz-charges read in
  non local Contribution for L=           0  read in
    real space projection operators read in
  non local Contribution for L=           0  read in
    real space projection operators read in
  non local Contribution for L=           1  read in
    real space projection operators read in
  non local Contribution for L=           1  read in
    real space projection operators read in
    PAW grid and wavefunctions read in
 
   number of l-projection  operators is LMAX  =           4
   number of lm-projection operators is LMMAX =           8
 

 ----------------------------------------------------------------------------- 
|                                                                             |
|  ADVICE TO THIS USER RUNNING 'VASP/VAMP'   (HEAR YOUR MASTER'S VOICE ...):  |
|                                                                             |
|      You have a (more or less) 'small supercell' and for smaller cells      |
|      it is recommended  to use the reciprocal-space projection scheme!      |
|      The real space optimization is not  efficient for small cells and it   |
|      is also less accurate ...                                              |
|      Therefore set LREAL=.FALSE. in the  INCAR file                         |
|                                                                             |
 ----------------------------------------------------------------------------- 

 Optimization of the real space projectors (new method)

 maximal supplied QI-value         = 19.84
 optimisation between [QCUT,QGAM] = [ 12.50, 25.00] = [ 43.76,175.03] Ry 
 Optimized for a Real-space Cutoff    1.16 Angstroem

   l    n(q)    QCUT    max X(q) W(low)/X(q) W(high)/X(q)  e(spline) 
   0      9    12.501     8.708    0.14E-04    0.64E-05    0.48E-08
   0      9    12.501   106.241    0.99E-04    0.81E-04    0.70E-07
   1      8    12.501     5.901    0.24E-04    0.20E-04    0.18E-07
   1      8    12.501    73.241    0.20E-03    0.24E-03    0.75E-07
 PAW_PBE Si 05Jan2001                   :
 energy of atom  1       EATOM= -103.0669
 kinetic energy error for atom=    0.0003 (will be added to EATOM!!)
 
 
 POSCAR: Si2                                     
  positions in direct lattice
  No initial velocities read in
 exchange correlation table for  LEXCH =        8
   RHO(1)=    0.500       N(1)  =     2000
   RHO(2)=  100.500       N(2)  =     4000
 


--------------------------------------------------------------------------------------------------------


 ion  position               nearest neighbor table
   1  0.999  0.002  0.001-   2 2.36   2 2.36   2 2.37   2 2.38
   2  0.751  0.498  0.749-   1 2.36   1 2.36   1 2.37   1 2.38
 
  LATTYP: Found a face centered cubic cell.
 ALAT       =     5.4694110002
  
  Lattice vectors:
  
 A1 = (   1.9337280000,   3.3493170000,   0.0000000000)
 A2 = (   0.0000000000,   2.2328760000,  -3.1577660000)
 A3 = (  -1.9337290000,   3.3493170000,   0.0000000000)


Analysis of symmetry for initial positions (statically):
=====================================================================
 Subroutine PRICEL returns:
 Original cell was already a primitive cell.
 

 Routine SETGRP: Setting up the symmetry group for a 
 face centered cubic supercell.


 Subroutine GETGRP returns: Found  2 space group operations
 (whereof  1 operations were pure point group operations)
 out of a pool of 48 trial point group operations.


The static configuration has the point symmetry C_1 .
 The point group associated with its full space group is S_2 .


Analysis of symmetry for dynamics (positions and initial velocities):
=====================================================================
 Subroutine PRICEL returns:
 Original cell was already a primitive cell.
 

 Routine SETGRP: Setting up the symmetry group for a 
 face centered cubic supercell.


 Subroutine GETGRP returns: Found  2 space group operations
 (whereof  1 operations were pure point group operations)
 out of a pool of 48 trial point group operations.


The dynamic configuration has the point symmetry C_1 .
 The point group associated with its full space group is S_2 .


Analysis of structural, dynamic, and magnetic symmetry:
=====================================================================
 Subroutine PRICEL returns:
 Original cell was already a primitive cell.
 

 Routine SETGRP: Setting up the symmetry group for a 
 face centered cubic supercell.


 Subroutine GETGRP returns: Found  2 space group operations
 (whereof  1 operations were pure point group operations)
 out of a pool of 48 trial point group operations.


The magnetic configuration has the point symmetry C_1 .
 The point group associated with its full space group is S_2 .


 Subroutine INISYM returns: Found  2 space group operations
 (whereof  1 operations are pure point group operations),
 and found     1 'primitive' translations

 
 
 KPOINTS: pymatgen generated KPOINTS with grid den

Automatic generation of k-mesh.
Space group operators:
 irot       det(A)        alpha          n_x          n_y          n_z        tau_x        tau_y        tau_z
    1     1.000000     0.000000     1.000000     0.000000     0.000000     0.000000     0.000000     0.000000
    2    -1.000000     0.000000     1.000000     0.000000     0.000000    -0.250000     0.500000    -0.250000
 
 Subroutine IBZKPT returns following result:
 ===========================================
 
 Found    666 irreducible k-points:
 
 Following reciprocal coordinates:
            Coordinates               Weight
  0.000000  0.000000  0.000000      1.000000
  0.090909  0.000000 -0.000000      2.000000
  0.181818  0.000000 -0.000000      2.000000
  0.272727  0.000000  0.000000      2.000000
  0.363636  0.000000 -0.000000      2.000000
  0.454545  0.000000  0.000000      2.000000
  0.000000  0.090909 -0.000000      2.000000
  0.090909  0.090909 -0.000000      2.000000
  0.181818  0.090909 -0.000000      2.000000
  0.272727  0.090909 -0.000000      2.000000
  0.363636  0.090909 -0.000000      2.000000
  0.454545  0.090909  0.000000      2.000000
 -0.454545  0.090909  0.000000      2.000000
 -0.363636  0.090909  0.000000      2.000000
 -0.272727  0.090909  0.000000      2.000000
 -0.181818  0.090909 -0.000000      2.000000
 -0.090909  0.090909 -0.000000      2.000000
  0.000000  0.181818 -0.000000      2.000000
  0.090909  0.181818 -0.000000      2.000000
  0.181818  0.181818 -0.000000      2.000000
  0.272727  0.181818 -0.000000      2.000000
  0.363636  0.181818 -0.000000      2.000000
  0.454545  0.181818  0.000000      2.000000
 -0.454545  0.181818 -0.000000      2.000000
 -0.363636  0.181818 -0.000000      2.000000
 -0.272727  0.181818 -0.000000      2.000000
 -0.181818  0.181818 -0.000000      2.000000
 -0.090909  0.181818  0.000000      2.000000
  0.000000  0.272727 -0.000000      2.000000
  0.090909  0.272727 -0.000000      2.000000
  0.181818  0.272727 -0.000000      2.000000
  0.272727  0.272727 -0.000000      2.000000
  0.363636  0.272727 -0.000000      2.000000
  0.454545  0.272727  0.000000      2.000000
 -0.454545  0.272727 -0.000000      2.000000
 -0.363636  0.272727 -0.000000      2.000000
 -0.272727  0.272727 -0.000000      2.000000
 -0.181818  0.272727 -0.000000      2.000000
 -0.090909  0.272727 -0.000000      2.000000
  0.000000  0.363636 -0.000000      2.000000
  0.090909  0.363636 -0.000000      2.000000
  0.181818  0.363636 -0.000000      2.000000
  0.272727  0.363636 -0.000000      2.000000
  0.363636  0.363636 -0.000000      2.000000
  0.454545  0.363636  0.000000      2.000000
 -0.454545  0.363636 -0.000000      2.000000
 -0.363636  0.363636 -0.000000      2.000000
 -0.272727  0.363636  0.000000      2.000000
 -0.181818  0.363636  0.000000      2.000000
 -0.090909  0.363636 -0.000000      2.000000
  0.000000  0.454545 -0.000000      2.000000
  0.090909  0.454545 -0.000000      2.000000
  0.181818  0.454545 -0.000000      2.000000
  0.272727  0.454545 -0.000000      2.000000
  0.363636  0.454545 -0.000000      2.000000
  0.454545  0.454545 -0.000000      2.000000
 -0.454545  0.454545 -0.000000      2.000000
 -0.363636  0.454545 -0.000000      2.000000
 -0.272727  0.454545  0.000000      2.000000
 -0.181818  0.454545 -0.000000      2.000000
 -0.090909  0.454545 -0.000000      2.000000
  0.000000  0.000000  0.090909      2.000000
  0.090909  0.000000  0.090909      2.000000
  0.181818  0.000000  0.090909      2.000000
  0.272727  0.000000  0.090909      2.000000
  0.363636  0.000000  0.090909      2.000000
  0.454545  0.000000  0.090909      2.000000
 -0.454545 -0.000000  0.090909      2.000000
 -0.363636  0.000000  0.090909      2.000000
 -0.272727 -0.000000  0.090909      2.000000
 -0.181818  0.000000  0.090909      2.000000
 -0.090909  0.000000  0.090909      2.000000
  0.000000  0.090909  0.090909      2.000000
  0.090909  0.090909  0.090909      2.000000
  0.181818  0.090909  0.090909      2.000000
  0.272727  0.090909  0.090909      2.000000
  0.363636  0.090909  0.090909      2.000000
  0.454545  0.090909  0.090909      2.000000
 -0.454545  0.090909  0.090909      2.000000
 -0.363636  0.090909  0.090909      2.000000
 -0.272727  0.090909  0.090909      2.000000
 -0.181818  0.090909  0.090909      2.000000
 -0.090909  0.090909  0.090909      2.000000
  0.000000  0.181818  0.090909      2.000000
  0.090909  0.181818  0.090909      2.000000
  0.181818  0.181818  0.090909      2.000000
  0.272727  0.181818  0.090909      2.000000
  0.363636  0.181818  0.090909      2.000000
  0.454545  0.181818  0.090909      2.000000
 -0.454545  0.181818  0.090909      2.000000
 -0.363636  0.181818  0.090909      2.000000
 -0.272727  0.181818  0.090909      2.000000
 -0.181818  0.181818  0.090909      2.000000
 -0.090909  0.181818  0.090909      2.000000
  0.000000  0.272727  0.090909      2.000000
  0.090909  0.272727  0.090909      2.000000
  0.181818  0.272727  0.090909      2.000000
  0.272727  0.272727  0.090909      2.000000
  0.363636  0.272727  0.090909      2.000000
  0.454545  0.272727  0.090909      2.000000
 -0.454545  0.272727  0.090909      2.000000
 -0.363636  0.272727  0.090909      2.000000
 -0.272727  0.272727  0.090909      2.000000
 -0.181818  0.272727  0.090909      2.000000
 -0.090909  0.272727  0.090909      2.000000
  0.000000  0.363636  0.090909      2.000000
  0.090909  0.363636  0.090909      2.000000
  0.181818  0.363636  0.090909      2.000000
  0.272727  0.363636  0.090909      2.000000
  0.363636  0.363636  0.090909      2.000000
  0.454545  0.363636  0.090909      2.000000
 -0.454545  0.363636  0.090909      2.000000
 -0.363636  0.363636  0.090909      2.000000
 -0.272727  0.363636  0.090909      2.000000
 -0.181818  0.363636  0.090909      2.000000
 -0.090909  0.363636  0.090909      2.000000
  0.000000  0.454545  0.090909      2.000000
  0.090909  0.454545  0.090909      2.000000
  0.181818  0.454545  0.090909      2.000000
  0.272727  0.454545  0.090909      2.000000
  0.363636  0.454545  0.090909      2.000000
  0.454545  0.454545  0.090909      2.000000
 -0.454545  0.454545  0.090909      2.000000
 -0.363636  0.454545  0.090909      2.000000
 -0.272727  0.454545  0.090909      2.000000
 -0.181818  0.454545  0.090909      2.000000
 -0.090909  0.454545  0.090909      2.000000
  0.000000 -0.454545  0.090909      2.000000
  0.090909 -0.454545  0.090909      2.000000
  0.181818 -0.454545  0.090909      2.000000
  0.272727 -0.454545  0.090909      2.000000
  0.363636 -0.454545  0.090909      2.000000
  0.454545 -0.454545  0.090909      2.000000
 -0.454545 -0.454545  0.090909      2.000000
 -0.363636 -0.454545  0.090909      2.000000
 -0.272727 -0.454545  0.090909      2.000000
 -0.181818 -0.454545  0.090909      2.000000
 -0.090909 -0.454545  0.090909      2.000000
  0.000000 -0.363636  0.090909      2.000000
  0.090909 -0.363636  0.090909      2.000000
  0.181818 -0.363636  0.090909      2.000000
  0.272727 -0.363636  0.090909      2.000000
  0.363636 -0.363636  0.090909      2.000000
  0.454545 -0.363636  0.090909      2.000000
 -0.454545 -0.363636  0.090909      2.000000
 -0.363636 -0.363636  0.090909      2.000000
 -0.272727 -0.363636  0.090909      2.000000
 -0.181818 -0.363636  0.090909      2.000000
 -0.090909 -0.363636  0.090909      2.000000
  0.000000 -0.272727  0.090909      2.000000
  0.090909 -0.272727  0.090909      2.000000
  0.181818 -0.272727  0.090909      2.000000
  0.272727 -0.272727  0.090909      2.000000
  0.363636 -0.272727  0.090909      2.000000
  0.454545 -0.272727  0.090909      2.000000
 -0.454545 -0.272727  0.090909      2.000000
 -0.363636 -0.272727  0.090909      2.000000
 -0.272727 -0.272727  0.090909      2.000000
 -0.181818 -0.272727  0.090909      2.000000
 -0.090909 -0.272727  0.090909      2.000000
  0.000000 -0.181818  0.090909      2.000000
  0.090909 -0.181818  0.090909      2.000000
  0.181818 -0.181818  0.090909      2.000000
  0.272727 -0.181818  0.090909      2.000000
  0.363636 -0.181818  0.090909      2.000000
  0.454545 -0.181818  0.090909      2.000000
 -0.454545 -0.181818  0.090909      2.000000
 -0.363636 -0.181818  0.090909      2.000000
 -0.272727 -0.181818  0.090909      2.000000
 -0.181818 -0.181818  0.090909      2.000000
 -0.090909 -0.181818  0.090909      2.000000
  0.000000 -0.090909  0.090909      2.000000
  0.090909 -0.090909  0.090909      2.000000
  0.181818 -0.090909  0.090909      2.000000
  0.272727 -0.090909  0.090909      2.000000
  0.363636 -0.090909  0.090909      2.000000
  0.454545 -0.090909  0.090909      2.000000
 -0.454545 -0.090909  0.090909      2.000000
 -0.363636 -0.090909  0.090909      2.000000
 -0.272727 -0.090909  0.090909      2.000000
 -0.181818 -0.090909  0.090909      2.000000
 -0.090909 -0.090909  0.090909      2.000000
  0.000000  0.000000  0.181818      2.000000
  0.090909  0.000000  0.181818      2.000000
  0.181818  0.000000  0.181818      2.000000
  0.272727  0.000000  0.181818      2.000000
  0.363636  0.000000  0.181818      2.000000
  0.454545  0.000000  0.181818      2.000000
 -0.454545 -0.000000  0.181818      2.000000
 -0.363636  0.000000  0.181818      2.000000
 -0.272727 -0.000000  0.181818      2.000000
 -0.181818  0.000000  0.181818      2.000000
 -0.090909  0.000000  0.181818      2.000000
  0.000000  0.090909  0.181818      2.000000
  0.090909  0.090909  0.181818      2.000000
  0.181818  0.090909  0.181818      2.000000
  0.272727  0.090909  0.181818      2.000000
  0.363636  0.090909  0.181818      2.000000
  0.454545  0.090909  0.181818      2.000000
 -0.454545  0.090909  0.181818      2.000000
 -0.363636  0.090909  0.181818      2.000000
 -0.272727  0.090909  0.181818      2.000000
 -0.181818  0.090909  0.181818      2.000000
 -0.090909  0.090909  0.181818      2.000000
  0.000000  0.181818  0.181818      2.000000
  0.090909  0.181818  0.181818      2.000000
  0.181818  0.181818  0.181818      2.000000
  0.272727  0.181818  0.181818      2.000000
  0.363636  0.181818  0.181818      2.000000
  0.454545  0.181818  0.181818      2.000000
 -0.454545  0.181818  0.181818      2.000000
 -0.363636  0.181818  0.181818      2.000000
 -0.272727  0.181818  0.181818      2.000000
 -0.181818  0.181818  0.181818      2.000000
 -0.090909  0.181818  0.181818      2.000000
  0.000000  0.272727  0.181818      2.000000
  0.090909  0.272727  0.181818      2.000000
  0.181818  0.272727  0.181818      2.000000
  0.272727  0.272727  0.181818      2.000000
  0.363636  0.272727  0.181818      2.000000
  0.454545  0.272727  0.181818      2.000000
 -0.454545  0.272727  0.181818      2.000000
 -0.363636  0.272727  0.181818      2.000000
 -0.272727  0.272727  0.181818      2.000000
 -0.181818  0.272727  0.181818      2.000000
 -0.090909  0.272727  0.181818      2.000000
  0.000000  0.363636  0.181818      2.000000
  0.090909  0.363636  0.181818      2.000000
  0.181818  0.363636  0.181818      2.000000
  0.272727  0.363636  0.181818      2.000000
  0.363636  0.363636  0.181818      2.000000
  0.454545  0.363636  0.181818      2.000000
 -0.454545  0.363636  0.181818      2.000000
 -0.363636  0.363636  0.181818      2.000000
 -0.272727  0.363636  0.181818      2.000000
 -0.181818  0.363636  0.181818      2.000000
 -0.090909  0.363636  0.181818      2.000000
  0.000000  0.454545  0.181818      2.000000
  0.090909  0.454545  0.181818      2.000000
  0.181818  0.454545  0.181818      2.000000
  0.272727  0.454545  0.181818      2.000000
  0.363636  0.454545  0.181818      2.000000
  0.454545  0.454545  0.181818      2.000000
 -0.454545  0.454545  0.181818      2.000000
 -0.363636  0.454545  0.181818      2.000000
 -0.272727  0.454545  0.181818      2.000000
 -0.181818  0.454545  0.181818      2.000000
 -0.090909  0.454545  0.181818      2.000000
  0.000000 -0.454545  0.181818      2.000000
  0.090909 -0.454545  0.181818      2.000000
  0.181818 -0.454545  0.181818      2.000000
  0.272727 -0.454545  0.181818      2.000000
  0.363636 -0.454545  0.181818      2.000000
  0.454545 -0.454545  0.181818      2.000000
 -0.454545 -0.454545  0.181818      2.000000
 -0.363636 -0.454545  0.181818      2.000000
 -0.272727 -0.454545  0.181818      2.000000
 -0.181818 -0.454545  0.181818      2.000000
 -0.090909 -0.454545  0.181818      2.000000
  0.000000 -0.363636  0.181818      2.000000
  0.090909 -0.363636  0.181818      2.000000
  0.181818 -0.363636  0.181818      2.000000
  0.272727 -0.363636  0.181818      2.000000
  0.363636 -0.363636  0.181818      2.000000
  0.454545 -0.363636  0.181818      2.000000
 -0.454545 -0.363636  0.181818      2.000000
 -0.363636 -0.363636  0.181818      2.000000
 -0.272727 -0.363636  0.181818      2.000000
 -0.181818 -0.363636  0.181818      2.000000
 -0.090909 -0.363636  0.181818      2.000000
  0.000000 -0.272727  0.181818      2.000000
  0.090909 -0.272727  0.181818      2.000000
  0.181818 -0.272727  0.181818      2.000000
  0.272727 -0.272727  0.181818      2.000000
  0.363636 -0.272727  0.181818      2.000000
  0.454545 -0.272727  0.181818      2.000000
 -0.454545 -0.272727  0.181818      2.000000
 -0.363636 -0.272727  0.181818      2.000000
 -0.272727 -0.272727  0.181818      2.000000
 -0.181818 -0.272727  0.181818      2.000000
 -0.090909 -0.272727  0.181818      2.000000
  0.000000 -0.181818  0.181818      2.000000
  0.090909 -0.181818  0.181818      2.000000
  0.181818 -0.181818  0.181818      2.000000
  0.272727 -0.181818  0.181818      2.000000
  0.363636 -0.181818  0.181818      2.000000
  0.454545 -0.181818  0.181818      2.000000
 -0.454545 -0.181818  0.181818      2.000000
 -0.363636 -0.181818  0.181818      2.000000
 -0.272727 -0.181818  0.181818      2.000000
 -0.181818 -0.181818  0.181818      2.000000
 -0.090909 -0.181818  0.181818      2.000000
  0.000000 -0.090909  0.181818      2.000000
  0.090909 -0.090909  0.181818      2.000000
  0.181818 -0.090909  0.181818      2.000000
  0.272727 -0.090909  0.181818      2.000000
  0.363636 -0.090909  0.181818      2.000000
  0.454545 -0.090909  0.181818      2.000000
 -0.454545 -0.090909  0.181818      2.000000
 -0.363636 -0.090909  0.181818      2.000000
 -0.272727 -0.090909  0.181818      2.000000
 -0.181818 -0.090909  0.181818      2.000000
 -0.090909 -0.090909  0.181818      2.000000
  0.000000  0.000000  0.272727      2.000000
  0.090909  0.000000  0.272727      2.000000
  0.181818  0.000000  0.272727      2.000000
  0.272727  0.000000  0.272727      2.000000
  0.363636  0.000000  0.272727      2.000000
  0.454545  0.000000  0.272727      2.000000
 -0.454545 -0.000000  0.272727      2.000000
 -0.363636  0.000000  0.272727      2.000000
 -0.272727 -0.000000  0.272727      2.000000
 -0.181818  0.000000  0.272727      2.000000
 -0.090909  0.000000  0.272727      2.000000
  0.000000  0.090909  0.272727      2.000000
  0.090909  0.090909  0.272727      2.000000
  0.181818  0.090909  0.272727      2.000000
  0.272727  0.090909  0.272727      2.000000
  0.363636  0.090909  0.272727      2.000000
  0.454545  0.090909  0.272727      2.000000
 -0.454545  0.090909  0.272727      2.000000
 -0.363636  0.090909  0.272727      2.000000
 -0.272727  0.090909  0.272727      2.000000
 -0.181818  0.090909  0.272727      2.000000
 -0.090909  0.090909  0.272727      2.000000
  0.000000  0.181818  0.272727      2.000000
  0.090909  0.181818  0.272727      2.000000
  0.181818  0.181818  0.272727      2.000000
  0.272727  0.181818  0.272727      2.000000
  0.363636  0.181818  0.272727      2.000000
  0.454545  0.181818  0.272727      2.000000
 -0.454545  0.181818  0.272727      2.000000
 -0.363636  0.181818  0.272727      2.000000
 -0.272727  0.181818  0.272727      2.000000
 -0.181818  0.181818  0.272727      2.000000
 -0.090909  0.181818  0.272727      2.000000
  0.000000  0.272727  0.272727      2.000000
  0.090909  0.272727  0.272727      2.000000
  0.181818  0.272727  0.272727      2.000000
  0.272727  0.272727  0.272727      2.000000
  0.363636  0.272727  0.272727      2.000000
  0.454545  0.272727  0.272727      2.000000
 -0.454545  0.272727  0.272727      2.000000
 -0.363636  0.272727  0.272727      2.000000
 -0.272727  0.272727  0.272727      2.000000
 -0.181818  0.272727  0.272727      2.000000
 -0.090909  0.272727  0.272727      2.000000
  0.000000  0.363636  0.272727      2.000000
  0.090909  0.363636  0.272727      2.000000
  0.181818  0.363636  0.272727      2.000000
  0.272727  0.363636  0.272727      2.000000
  0.363636  0.363636  0.272727      2.000000
  0.454545  0.363636  0.272727      2.000000
 -0.454545  0.363636  0.272727      2.000000
 -0.363636  0.363636  0.272727      2.000000
 -0.272727  0.363636  0.272727      2.000000
 -0.181818  0.363636  0.272727      2.000000
 -0.090909  0.363636  0.272727      2.000000
  0.000000  0.454545  0.272727      2.000000
  0.090909  0.454545  0.272727      2.000000
  0.181818  0.454545  0.272727      2.000000
  0.272727  0.454545  0.272727      2.000000
  0.363636  0.454545  0.272727      2.000000
  0.454545  0.454545  0.272727      2.000000
 -0.454545  0.454545  0.272727      2.000000
 -0.363636  0.454545  0.272727      2.000000
 -0.272727  0.454545  0.272727      2.000000
 -0.181818  0.454545  0.272727      2.000000
 -0.090909  0.454545  0.272727      2.000000
  0.000000 -0.454545  0.272727      2.000000
  0.090909 -0.454545  0.272727      2.000000
  0.181818 -0.454545  0.272727      2.000000
  0.272727 -0.454545  0.272727      2.000000
  0.363636 -0.454545  0.272727      2.000000
  0.454545 -0.454545  0.272727      2.000000
 -0.454545 -0.454545  0.272727      2.000000
 -0.363636 -0.454545  0.272727      2.000000
 -0.272727 -0.454545  0.272727      2.000000
 -0.181818 -0.454545  0.272727      2.000000
 -0.090909 -0.454545  0.272727      2.000000
  0.000000 -0.363636  0.272727      2.000000
  0.090909 -0.363636  0.272727      2.000000
  0.181818 -0.363636  0.272727      2.000000
  0.272727 -0.363636  0.272727      2.000000
  0.363636 -0.363636  0.272727      2.000000
  0.454545 -0.363636  0.272727      2.000000
 -0.454545 -0.363636  0.272727      2.000000
 -0.363636 -0.363636  0.272727      2.000000
 -0.272727 -0.363636  0.272727      2.000000
 -0.181818 -0.363636  0.272727      2.000000
 -0.090909 -0.363636  0.272727      2.000000
  0.000000 -0.272727  0.272727      2.000000
  0.090909 -0.272727  0.272727      2.000000
  0.181818 -0.272727  0.272727      2.000000
  0.272727 -0.272727  0.272727      2.000000
  0.363636 -0.272727  0.272727      2.000000
  0.454545 -0.272727  0.272727      2.000000
 -0.454545 -0.272727  0.272727      2.000000
 -0.363636 -0.272727  0.272727      2.000000
 -0.272727 -0.272727  0.272727      2.000000
 -0.181818 -0.272727  0.272727      2.000000
 -0.090909 -0.272727  0.272727      2.000000
  0.000000 -0.181818  0.272727      2.000000
  0.090909 -0.181818  0.272727      2.000000
  0.181818 -0.181818  0.272727      2.000000
  0.272727 -0.181818  0.272727      2.000000
  0.363636 -0.181818  0.272727      2.000000
  0.454545 -0.181818  0.272727      2.000000
 -0.454545 -0.181818  0.272727      2.000000
 -0.363636 -0.181818  0.272727      2.000000
 -0.272727 -0.181818  0.272727      2.000000
 -0.181818 -0.181818  0.272727      2.000000
 -0.090909 -0.181818  0.272727      2.000000
  0.000000 -0.090909  0.272727      2.000000
  0.090909 -0.090909  0.272727      2.000000
  0.181818 -0.090909  0.272727      2.000000
  0.272727 -0.090909  0.272727      2.000000
  0.363636 -0.090909  0.272727      2.000000
  0.454545 -0.090909  0.272727      2.000000
 -0.454545 -0.090909  0.272727      2.000000
 -0.363636 -0.090909  0.272727      2.000000
 -0.272727 -0.090909  0.272727      2.000000
 -0.181818 -0.090909  0.272727      2.000000
 -0.090909 -0.090909  0.272727      2.000000
  0.000000  0.000000  0.363636      2.000000
  0.090909  0.000000  0.363636      2.000000
  0.181818  0.000000  0.363636      2.000000
  0.272727  0.000000  0.363636      2.000000
  0.363636  0.000000  0.363636      2.000000
  0.454545  0.000000  0.363636      2.000000
 -0.454545 -0.000000  0.363636      2.000000
 -0.363636  0.000000  0.363636      2.000000
 -0.272727 -0.000000  0.363636      2.000000
 -0.181818  0.000000  0.363636      2.000000
 -0.090909  0.000000  0.363636      2.000000
  0.000000  0.090909  0.363636      2.000000
  0.090909  0.090909  0.363636      2.000000
  0.181818  0.090909  0.363636      2.000000
  0.272727  0.090909  0.363636      2.000000
  0.363636  0.090909  0.363636      2.000000
  0.454545  0.090909  0.363636      2.000000
 -0.454545  0.090909  0.363636      2.000000
 -0.363636  0.090909  0.363636      2.000000
 -0.272727  0.090909  0.363636      2.000000
 -0.181818  0.090909  0.363636      2.000000
 -0.090909  0.090909  0.363636      2.000000
  0.000000  0.181818  0.363636      2.000000
  0.090909  0.181818  0.363636      2.000000
  0.181818  0.181818  0.363636      2.000000
  0.272727  0.181818  0.363636      2.000000
  0.363636  0.181818  0.363636      2.000000
  0.454545  0.181818  0.363636      2.000000
 -0.454545  0.181818  0.363636      2.000000
 -0.363636  0.181818  0.363636      2.000000
 -0.272727  0.181818  0.363636      2.000000
 -0.181818  0.181818  0.363636      2.000000
 -0.090909  0.181818  0.363636      2.000000
  0.000000  0.272727  0.363636      2.000000
  0.090909  0.272727  0.363636      2.000000
  0.181818  0.272727  0.363636      2.000000
  0.272727  0.272727  0.363636      2.000000
  0.363636  0.272727  0.363636      2.000000
  0.454545  0.272727  0.363636      2.000000
 -0.454545  0.272727  0.363636      2.000000
 -0.363636  0.272727  0.363636      2.000000
 -0.272727  0.272727  0.363636      2.000000
 -0.181818  0.272727  0.363636      2.000000
 -0.090909  0.272727  0.363636      2.000000
  0.000000  0.363636  0.363636      2.000000
  0.090909  0.363636  0.363636      2.000000
  0.181818  0.363636  0.363636      2.000000
  0.272727  0.363636  0.363636      2.000000
  0.363636  0.363636  0.363636      2.000000
  0.454545  0.363636  0.363636      2.000000
 -0.454545  0.363636  0.363636      2.000000
 -0.363636  0.363636  0.363636      2.000000
 -0.272727  0.363636  0.363636      2.000000
 -0.181818  0.363636  0.363636      2.000000
 -0.090909  0.363636  0.363636      2.000000
  0.000000  0.454545  0.363636      2.000000
  0.090909  0.454545  0.363636      2.000000
  0.181818  0.454545  0.363636      2.000000
  0.272727  0.454545  0.363636      2.000000
  0.363636  0.454545  0.363636      2.000000
  0.454545  0.454545  0.363636      2.000000
 -0.454545  0.454545  0.363636      2.000000
 -0.363636  0.454545  0.363636      2.000000
 -0.272727  0.454545  0.363636      2.000000
 -0.181818  0.454545  0.363636      2.000000
 -0.090909  0.454545  0.363636      2.000000
  0.000000 -0.454545  0.363636      2.000000
  0.090909 -0.454545  0.363636      2.000000
  0.181818 -0.454545  0.363636      2.000000
  0.272727 -0.454545  0.363636      2.000000
  0.363636 -0.454545  0.363636      2.000000
  0.454545 -0.454545  0.363636      2.000000
 -0.454545 -0.454545  0.363636      2.000000
 -0.363636 -0.454545  0.363636      2.000000
 -0.272727 -0.454545  0.363636      2.000000
 -0.181818 -0.454545  0.363636      2.000000
 -0.090909 -0.454545  0.363636      2.000000
  0.000000 -0.363636  0.363636      2.000000
  0.090909 -0.363636  0.363636      2.000000
  0.181818 -0.363636  0.363636      2.000000
  0.272727 -0.363636  0.363636      2.000000
  0.363636 -0.363636  0.363636      2.000000
  0.454545 -0.363636  0.363636      2.000000
 -0.454545 -0.363636  0.363636      2.000000
 -0.363636 -0.363636  0.363636      2.000000
 -0.272727 -0.363636  0.363636      2.000000
 -0.181818 -0.363636  0.363636      2.000000
 -0.090909 -0.363636  0.363636      2.000000
  0.000000 -0.272727  0.363636      2.000000
  0.090909 -0.272727  0.363636      2.000000
  0.181818 -0.272727  0.363636      2.000000
  0.272727 -0.272727  0.363636      2.000000
  0.363636 -0.272727  0.363636      2.000000
  0.454545 -0.272727  0.363636      2.000000
 -0.454545 -0.272727  0.363636      2.000000
 -0.363636 -0.272727  0.363636      2.000000
 -0.272727 -0.272727  0.363636      2.000000
 -0.181818 -0.272727  0.363636      2.000000
 -0.090909 -0.272727  0.363636      2.000000
  0.000000 -0.181818  0.363636      2.000000
  0.090909 -0.181818  0.363636      2.000000
  0.181818 -0.181818  0.363636      2.000000
  0.272727 -0.181818  0.363636      2.000000
  0.363636 -0.181818  0.363636      2.000000
  0.454545 -0.181818  0.363636      2.000000
 -0.454545 -0.181818  0.363636      2.000000
 -0.363636 -0.181818  0.363636      2.000000
 -0.272727 -0.181818  0.363636      2.000000
 -0.181818 -0.181818  0.363636      2.000000
 -0.090909 -0.181818  0.363636      2.000000
  0.000000 -0.090909  0.363636      2.000000
  0.090909 -0.090909  0.363636      2.000000
  0.181818 -0.090909  0.363636      2.000000
  0.272727 -0.090909  0.363636      2.000000
  0.363636 -0.090909  0.363636      2.000000
  0.454545 -0.090909  0.363636      2.000000
 -0.454545 -0.090909  0.363636      2.000000
 -0.363636 -0.090909  0.363636      2.000000
 -0.272727 -0.090909  0.363636      2.000000
 -0.181818 -0.090909  0.363636      2.000000
 -0.090909 -0.090909  0.363636      2.000000
  0.000000  0.000000  0.454545      2.000000
  0.090909  0.000000  0.454545      2.000000
  0.181818  0.000000  0.454545      2.000000
  0.272727  0.000000  0.454545      2.000000
  0.363636  0.000000  0.454545      2.000000
  0.454545  0.000000  0.454545      2.000000
 -0.454545 -0.000000  0.454545      2.000000
 -0.363636  0.000000  0.454545      2.000000
 -0.272727 -0.000000  0.454545      2.000000
 -0.181818  0.000000  0.454545      2.000000
 -0.090909  0.000000  0.454545      2.000000
  0.000000  0.090909  0.454545      2.000000
  0.090909  0.090909  0.454545      2.000000
  0.181818  0.090909  0.454545      2.000000
  0.272727  0.090909  0.454545      2.000000
  0.363636  0.090909  0.454545      2.000000
  0.454545  0.090909  0.454545      2.000000
 -0.454545  0.090909  0.454545      2.000000
 -0.363636  0.090909  0.454545      2.000000
 -0.272727  0.090909  0.454545      2.000000
 -0.181818  0.090909  0.454545      2.000000
 -0.090909  0.090909  0.454545      2.000000
  0.000000  0.181818  0.454545      2.000000
  0.090909  0.181818  0.454545      2.000000
  0.181818  0.181818  0.454545      2.000000
  0.272727  0.181818  0.454545      2.000000
  0.363636  0.181818  0.454545      2.000000
  0.454545  0.181818  0.454545      2.000000
 -0.454545  0.181818  0.454545      2.000000
 -0.363636  0.181818  0.454545      2.000000
 -0.272727  0.181818  0.454545      2.000000
 -0.181818  0.181818  0.454545      2.000000
 -0.090909  0.181818  0.454545      2.000000
  0.000000  0.272727  0.454545      2.000000
  0.090909  0.272727  0.454545      2.000000
  0.181818  0.272727  0.454545      2.000000
  0.272727  0.272727  0.454545      2.000000
  0.363636  0.272727  0.454545      2.000000
  0.454545  0.272727  0.454545      2.000000
 -0.454545  0.272727  0.454545      2.000000
 -0.363636  0.272727  0.454545      2.000000
 -0.272727  0.272727  0.454545      2.000000
 -0.181818  0.272727  0.454545      2.000000
 -0.090909  0.272727  0.454545      2.000000
  0.000000  0.363636  0.454545      2.000000
  0.090909  0.363636  0.454545      2.000000
  0.181818  0.363636  0.454545      2.000000
  0.272727  0.363636  0.454545      2.000000
  0.363636  0.363636  0.454545      2.000000
  0.454545  0.363636  0.454545      2.000000
 -0.454545  0.363636  0.454545      2.000000
 -0.363636  0.363636  0.454545      2.000000
 -0.272727  0.363636  0.454545      2.000000
 -0.181818  0.363636  0.454545      2.000000
 -0.090909  0.363636  0.454545      2.000000
  0.000000  0.454545  0.454545      2.000000
  0.090909  0.454545  0.454545      2.000000
  0.181818  0.454545  0.454545      2.000000
  0.272727  0.454545  0.454545      2.000000
  0.363636  0.454545  0.454545      2.000000
  0.454545  0.454545  0.454545      2.000000
 -0.454545  0.454545  0.454545      2.000000
 -0.363636  0.454545  0.454545      2.000000
 -0.272727  0.454545  0.454545      2.000000
 -0.181818  0.454545  0.454545      2.000000
 -0.090909  0.454545  0.454545      2.000000
  0.000000 -0.454545  0.454545      2.000000
  0.090909 -0.454545  0.454545      2.000000
  0.181818 -0.454545  0.454545      2.000000
  0.272727 -0.454545  0.454545      2.000000
  0.363636 -0.454545  0.454545      2.000000
  0.454545 -0.454545  0.454545      2.000000
 -0.454545 -0.454545  0.454545      2.000000
 -0.363636 -0.454545  0.454545      2.000000
 -0.272727 -0.454545  0.454545      2.000000
 -0.181818 -0.454545  0.454545      2.000000
 -0.090909 -0.454545  0.454545      2.000000
  0.000000 -0.363636  0.454545      2.000000
  0.090909 -0.363636  0.454545      2.000000
  0.181818 -0.363636  0.454545      2.000000
  0.272727 -0.363636  0.454545      2.000000
  0.363636 -0.363636  0.454545      2.000000
  0.454545 -0.363636  0.454545      2.000000
 -0.454545 -0.363636  0.454545      2.000000
 -0.363636 -0.363636  0.454545      2.000000
 -0.272727 -0.363636  0.454545      2.000000
 -0.181818 -0.363636  0.454545      2.000000
 -0.090909 -0.363636  0.454545      2.000000
  0.000000 -0.272727  0.454545      2.000000
  0.090909 -0.272727  0.454545      2.000000
  0.181818 -0.272727  0.454545      2.000000
  0.272727 -0.272727  0.454545      2.000000
  0.363636 -0.272727  0.454545      2.000000
  0.454545 -0.272727  0.454545      2.000000
 -0.454545 -0.272727  0.454545      2.000000
 -0.363636 -0.272727  0.454545      2.000000
 -0.272727 -0.272727  0.454545      2.000000
 -0.181818 -0.272727  0.454545      2.000000
 -0.090909 -0.272727  0.454545      2.000000
  0.000000 -0.181818  0.454545      2.000000
  0.090909 -0.181818  0.454545      2.000000
  0.181818 -0.181818  0.454545      2.000000
  0.272727 -0.181818  0.454545      2.000000
  0.363636 -0.181818  0.454545      2.000000
  0.454545 -0.181818  0.454545      2.000000
 -0.454545 -0.181818  0.454545      2.000000
 -0.363636 -0.181818  0.454545      2.000000
 -0.272727 -0.181818  0.454545      2.000000
 -0.181818 -0.181818  0.454545      2.000000
 -0.090909 -0.181818  0.454545      2.000000
  0.000000 -0.090909  0.454545      2.000000
  0.090909 -0.090909  0.454545      2.000000
  0.181818 -0.090909  0.454545      2.000000
  0.272727 -0.090909  0.454545      2.000000
  0.363636 -0.090909  0.454545      2.000000
  0.454545 -0.090909  0.454545      2.000000
 -0.454545 -0.090909  0.454545      2.000000
 -0.363636 -0.090909  0.454545      2.000000
 -0.272727 -0.090909  0.454545      2.000000
 -0.181818 -0.090909  0.454545      2.000000
 -0.090909 -0.090909  0.454545      2.000000
 
 Following cartesian coordinates:
            Coordinates               Weight
  0.000000  0.000000  0.000000      1.000000
  0.023506 -0.013571 -0.009596      2.000000
  0.047012 -0.027143 -0.019193      2.000000
  0.070519 -0.040714 -0.028789      2.000000
  0.094025 -0.054285 -0.038385      2.000000
  0.117531 -0.067856 -0.047982      2.000000
  0.000000  0.027143  0.019193      2.000000
  0.023506  0.013571  0.009596      2.000000
  0.047012  0.000000  0.000000      2.000000
  0.070519 -0.013571 -0.009596      2.000000
  0.094025 -0.027143 -0.019193      2.000000
  0.117531 -0.040714 -0.028789      2.000000
 -0.117531  0.094999  0.067174      2.000000
 -0.094025  0.081428  0.057578      2.000000
 -0.070519  0.067856  0.047982      2.000000
 -0.047012  0.054285  0.038385      2.000000
 -0.023506  0.040714  0.028789      2.000000
  0.000000  0.054285  0.038385      2.000000
  0.023506  0.040714  0.028789      2.000000
  0.047012  0.027143  0.019193      2.000000
  0.070519  0.013571  0.009596      2.000000
  0.094025  0.000000  0.000000      2.000000
  0.117531 -0.013571 -0.009596      2.000000
 -0.117531  0.122142  0.086367      2.000000
 -0.094025  0.108570  0.076771      2.000000
 -0.070519  0.094999  0.067174      2.000000
 -0.047012  0.081428  0.057578      2.000000
 -0.023506  0.067856  0.047982      2.000000
  0.000000  0.081428  0.057578      2.000000
  0.023506  0.067856  0.047982      2.000000
  0.047012  0.054285  0.038385      2.000000
  0.070519  0.040714  0.028789      2.000000
  0.094025  0.027143  0.019193      2.000000
  0.117531  0.013571  0.009596      2.000000
 -0.117531  0.149284  0.105560      2.000000
 -0.094025  0.135713  0.095963      2.000000
 -0.070519  0.122142  0.086367      2.000000
 -0.047012  0.108570  0.076771      2.000000
 -0.023506  0.094999  0.067174      2.000000
  0.000000  0.108570  0.076771      2.000000
  0.023506  0.094999  0.067174      2.000000
  0.047012  0.081428  0.057578      2.000000
  0.070519  0.067856  0.047982      2.000000
  0.094025  0.054285  0.038385      2.000000
  0.117531  0.040714  0.028789      2.000000
 -0.117531  0.176427  0.124752      2.000000
 -0.094025  0.162855  0.115156      2.000000
 -0.070519  0.149284  0.105560      2.000000
 -0.047012  0.135713  0.095963      2.000000
 -0.023506  0.122142  0.086367      2.000000
  0.000000  0.135713  0.095963      2.000000
  0.023506  0.122142  0.086367      2.000000
  0.047012  0.108570  0.076771      2.000000
  0.070519  0.094999  0.067174      2.000000
  0.094025  0.081428  0.057578      2.000000
  0.117531  0.067856  0.047982      2.000000
 -0.117531  0.203569  0.143945      2.000000
 -0.094025  0.189998  0.134349      2.000000
 -0.070519  0.176427  0.124752      2.000000
 -0.047012  0.162855  0.115156      2.000000
 -0.023506  0.149284  0.105560      2.000000
  0.000000  0.000000  0.028789      2.000000
  0.023506 -0.013571  0.019193      2.000000
  0.047012 -0.027143  0.009596      2.000000
  0.070519 -0.040714  0.000000      2.000000
  0.094025 -0.054285 -0.009596      2.000000
  0.117531 -0.067856 -0.019193      2.000000
 -0.117531  0.067856  0.076771      2.000000
 -0.094025  0.054285  0.067174      2.000000
 -0.070519  0.040714  0.057578      2.000000
 -0.047012  0.027143  0.047982      2.000000
 -0.023506  0.013571  0.038385      2.000000
  0.000000  0.027143  0.047982      2.000000
  0.023506  0.013571  0.038385      2.000000
  0.047012  0.000000  0.028789      2.000000
  0.070519 -0.013571  0.019193      2.000000
  0.094025 -0.027143  0.009596      2.000000
  0.117531 -0.040714  0.000000      2.000000
 -0.117531  0.094999  0.095963      2.000000
 -0.094025  0.081428  0.086367      2.000000
 -0.070519  0.067856  0.076771      2.000000
 -0.047012  0.054285  0.067174      2.000000
 -0.023506  0.040714  0.057578      2.000000
  0.000000  0.054285  0.067174      2.000000
  0.023506  0.040714  0.057578      2.000000
  0.047012  0.027143  0.047982      2.000000
  0.070519  0.013571  0.038385      2.000000
  0.094025  0.000000  0.028789      2.000000
  0.117531 -0.013571  0.019193      2.000000
 -0.117531  0.122142  0.115156      2.000000
 -0.094025  0.108570  0.105560      2.000000
 -0.070519  0.094999  0.095963      2.000000
 -0.047012  0.081428  0.086367      2.000000
 -0.023506  0.067856  0.076771      2.000000
  0.000000  0.081428  0.086367      2.000000
  0.023506  0.067856  0.076771      2.000000
  0.047012  0.054285  0.067174      2.000000
  0.070519  0.040714  0.057578      2.000000
  0.094025  0.027143  0.047982      2.000000
  0.117531  0.013571  0.038385      2.000000
 -0.117531  0.149284  0.134349      2.000000
 -0.094025  0.135713  0.124752      2.000000
 -0.070519  0.122142  0.115156      2.000000
 -0.047012  0.108570  0.105560      2.000000
 -0.023506  0.094999  0.095963      2.000000
  0.000000  0.108570  0.105560      2.000000
  0.023506  0.094999  0.095963      2.000000
  0.047012  0.081428  0.086367      2.000000
  0.070519  0.067856  0.076771      2.000000
  0.094025  0.054285  0.067174      2.000000
  0.117531  0.040714  0.057578      2.000000
 -0.117531  0.176427  0.153541      2.000000
 -0.094025  0.162855  0.143945      2.000000
 -0.070519  0.149284  0.134349      2.000000
 -0.047012  0.135713  0.124752      2.000000
 -0.023506  0.122142  0.115156      2.000000
  0.000000  0.135713  0.124752      2.000000
  0.023506  0.122142  0.115156      2.000000
  0.047012  0.108570  0.105560      2.000000
  0.070519  0.094999  0.095963      2.000000
  0.094025  0.081428  0.086367      2.000000
  0.117531  0.067856  0.076771      2.000000
 -0.117531  0.203569  0.172734      2.000000
 -0.094025  0.189998  0.163138      2.000000
 -0.070519  0.176427  0.153541      2.000000
 -0.047012  0.162855  0.143945      2.000000
 -0.023506  0.149284  0.134349      2.000000
  0.000000 -0.135713 -0.067174      2.000000
  0.023506 -0.149284 -0.076771      2.000000
  0.047012 -0.162855 -0.086367      2.000000
  0.070519 -0.176427 -0.095963      2.000000
  0.094025 -0.189998 -0.105560      2.000000
  0.117531 -0.203569 -0.115156      2.000000
 -0.117531 -0.067856 -0.019193      2.000000
 -0.094025 -0.081428 -0.028789      2.000000
 -0.070519 -0.094999 -0.038385      2.000000
 -0.047012 -0.108570 -0.047982      2.000000
 -0.023506 -0.122142 -0.057578      2.000000
  0.000000 -0.108570 -0.047982      2.000000
  0.023506 -0.122142 -0.057578      2.000000
  0.047012 -0.135713 -0.067174      2.000000
  0.070519 -0.149284 -0.076771      2.000000
  0.094025 -0.162855 -0.086367      2.000000
  0.117531 -0.176427 -0.095963      2.000000
 -0.117531 -0.040714  0.000000      2.000000
 -0.094025 -0.054285 -0.009596      2.000000
 -0.070519 -0.067856 -0.019193      2.000000
 -0.047012 -0.081428 -0.028789      2.000000
 -0.023506 -0.094999 -0.038385      2.000000
  0.000000 -0.081428 -0.028789      2.000000
  0.023506 -0.094999 -0.038385      2.000000
  0.047012 -0.108570 -0.047982      2.000000
  0.070519 -0.122142 -0.057578      2.000000
  0.094025 -0.135713 -0.067174      2.000000
  0.117531 -0.149284 -0.076771      2.000000
 -0.117531 -0.013571  0.019193      2.000000
 -0.094025 -0.027143  0.009596      2.000000
 -0.070519 -0.040714  0.000000      2.000000
 -0.047012 -0.054285 -0.009596      2.000000
 -0.023506 -0.067856 -0.019193      2.000000
  0.000000 -0.054285 -0.009596      2.000000
  0.023506 -0.067856 -0.019193      2.000000
  0.047012 -0.081428 -0.028789      2.000000
  0.070519 -0.094999 -0.038385      2.000000
  0.094025 -0.108570 -0.047982      2.000000
  0.117531 -0.122142 -0.057578      2.000000
 -0.117531  0.013571  0.038385      2.000000
 -0.094025 -0.000000  0.028789      2.000000
 -0.070519 -0.013571  0.019193      2.000000
 -0.047012 -0.027143  0.009596      2.000000
 -0.023506 -0.040714  0.000000      2.000000
  0.000000 -0.027143  0.009596      2.000000
  0.023506 -0.040714  0.000000      2.000000
  0.047012 -0.054285 -0.009596      2.000000
  0.070519 -0.067856 -0.019193      2.000000
  0.094025 -0.081428 -0.028789      2.000000
  0.117531 -0.094999 -0.038385      2.000000
 -0.117531  0.040714  0.057578      2.000000
 -0.094025  0.027143  0.047982      2.000000
 -0.070519  0.013571  0.038385      2.000000
 -0.047012 -0.000000  0.028789      2.000000
 -0.023506 -0.013571  0.019193      2.000000
  0.000000  0.000000  0.057578      2.000000
  0.023506 -0.013571  0.047982      2.000000
  0.047012 -0.027143  0.038385      2.000000
  0.070519 -0.040714  0.028789      2.000000
  0.094025 -0.054285  0.019193      2.000000
  0.117531 -0.067856  0.009596      2.000000
 -0.117531  0.067856  0.105560      2.000000
 -0.094025  0.054285  0.095963      2.000000
 -0.070519  0.040714  0.086367      2.000000
 -0.047012  0.027143  0.076771      2.000000
 -0.023506  0.013571  0.067174      2.000000
  0.000000  0.027143  0.076771      2.000000
  0.023506  0.013571  0.067174      2.000000
  0.047012  0.000000  0.057578      2.000000
  0.070519 -0.013571  0.047982      2.000000
  0.094025 -0.027143  0.038385      2.000000
  0.117531 -0.040714  0.028789      2.000000
 -0.117531  0.094999  0.124752      2.000000
 -0.094025  0.081428  0.115156      2.000000
 -0.070519  0.067856  0.105560      2.000000
 -0.047012  0.054285  0.095963      2.000000
 -0.023506  0.040714  0.086367      2.000000
  0.000000  0.054285  0.095963      2.000000
  0.023506  0.040714  0.086367      2.000000
  0.047012  0.027143  0.076771      2.000000
  0.070519  0.013571  0.067174      2.000000
  0.094025  0.000000  0.057578      2.000000
  0.117531 -0.013571  0.047982      2.000000
 -0.117531  0.122142  0.143945      2.000000
 -0.094025  0.108570  0.134349      2.000000
 -0.070519  0.094999  0.124752      2.000000
 -0.047012  0.081428  0.115156      2.000000
 -0.023506  0.067856  0.105560      2.000000
  0.000000  0.081428  0.115156      2.000000
  0.023506  0.067856  0.105560      2.000000
  0.047012  0.054285  0.095963      2.000000
  0.070519  0.040714  0.086367      2.000000
  0.094025  0.027143  0.076771      2.000000
  0.117531  0.013571  0.067174      2.000000
 -0.117531  0.149284  0.163138      2.000000
 -0.094025  0.135713  0.153542      2.000000
 -0.070519  0.122142  0.143945      2.000000
 -0.047012  0.108570  0.134349      2.000000
 -0.023506  0.094999  0.124752      2.000000
  0.000000  0.108570  0.134349      2.000000
  0.023506  0.094999  0.124753      2.000000
  0.047012  0.081428  0.115156      2.000000
  0.070519  0.067856  0.105560      2.000000
  0.094025  0.054285  0.095963      2.000000
  0.117531  0.040714  0.086367      2.000000
 -0.117531  0.176427  0.182331      2.000000
 -0.094025  0.162855  0.172734      2.000000
 -0.070519  0.149284  0.163138      2.000000
 -0.047012  0.135713  0.153542      2.000000
 -0.023506  0.122142  0.143945      2.000000
  0.000000  0.135713  0.153542      2.000000
  0.023506  0.122142  0.143945      2.000000
  0.047012  0.108570  0.134349      2.000000
  0.070519  0.094999  0.124753      2.000000
  0.094025  0.081428  0.115156      2.000000
  0.117531  0.067856  0.105560      2.000000
 -0.117531  0.203569  0.201523      2.000000
 -0.094025  0.189998  0.191927      2.000000
 -0.070519  0.176427  0.182331      2.000000
 -0.047012  0.162855  0.172734      2.000000
 -0.023506  0.149284  0.163138      2.000000
  0.000000 -0.135713 -0.038385      2.000000
  0.023506 -0.149284 -0.047982      2.000000
  0.047012 -0.162855 -0.057578      2.000000
  0.070519 -0.176427 -0.067174      2.000000
  0.094025 -0.189998 -0.076771      2.000000
  0.117531 -0.203569 -0.086367      2.000000
 -0.117531 -0.067856  0.009596      2.000000
 -0.094025 -0.081428  0.000000      2.000000
 -0.070519 -0.094999 -0.009596      2.000000
 -0.047012 -0.108570 -0.019193      2.000000
 -0.023506 -0.122142 -0.028789      2.000000
  0.000000 -0.108570 -0.019193      2.000000
  0.023506 -0.122142 -0.028789      2.000000
  0.047012 -0.135713 -0.038385      2.000000
  0.070519 -0.149284 -0.047982      2.000000
  0.094025 -0.162855 -0.057578      2.000000
  0.117531 -0.176427 -0.067174      2.000000
 -0.117531 -0.040714  0.028789      2.000000
 -0.094025 -0.054285  0.019193      2.000000
 -0.070519 -0.067856  0.009596      2.000000
 -0.047012 -0.081428  0.000000      2.000000
 -0.023506 -0.094999 -0.009596      2.000000
  0.000000 -0.081428  0.000000      2.000000
  0.023506 -0.094999 -0.009596      2.000000
  0.047012 -0.108570 -0.019193      2.000000
  0.070519 -0.122142 -0.028789      2.000000
  0.094025 -0.135713 -0.038385      2.000000
  0.117531 -0.149284 -0.047982      2.000000
 -0.117531 -0.013571  0.047982      2.000000
 -0.094025 -0.027143  0.038385      2.000000
 -0.070519 -0.040714  0.028789      2.000000
 -0.047012 -0.054285  0.019193      2.000000
 -0.023506 -0.067856  0.009596      2.000000
  0.000000 -0.054285  0.019193      2.000000
  0.023506 -0.067856  0.009596      2.000000
  0.047012 -0.081428  0.000000      2.000000
  0.070519 -0.094999 -0.009596      2.000000
  0.094025 -0.108570 -0.019193      2.000000
  0.117531 -0.122142 -0.028789      2.000000
 -0.117531  0.013571  0.067174      2.000000
 -0.094025 -0.000000  0.057578      2.000000
 -0.070519 -0.013571  0.047982      2.000000
 -0.047012 -0.027143  0.038385      2.000000
 -0.023506 -0.040714  0.028789      2.000000
  0.000000 -0.027143  0.038385      2.000000
  0.023506 -0.040714  0.028789      2.000000
  0.047012 -0.054285  0.019193      2.000000
  0.070519 -0.067856  0.009596      2.000000
  0.094025 -0.081428  0.000000      2.000000
  0.117531 -0.094999 -0.009596      2.000000
 -0.117531  0.040714  0.086367      2.000000
 -0.094025  0.027143  0.076771      2.000000
 -0.070519  0.013571  0.067174      2.000000
 -0.047012 -0.000000  0.057578      2.000000
 -0.023506 -0.013571  0.047982      2.000000
  0.000000  0.000000  0.086367      2.000000
  0.023506 -0.013571  0.076771      2.000000
  0.047012 -0.027143  0.067174      2.000000
  0.070519 -0.040714  0.057578      2.000000
  0.094025 -0.054285  0.047982      2.000000
  0.117531 -0.067856  0.038385      2.000000
 -0.117531  0.067856  0.134349      2.000000
 -0.094025  0.054285  0.124753      2.000000
 -0.070519  0.040714  0.115156      2.000000
 -0.047012  0.027143  0.105560      2.000000
 -0.023506  0.013571  0.095963      2.000000
  0.000000  0.027143  0.105560      2.000000
  0.023506  0.013571  0.095964      2.000000
  0.047012  0.000000  0.086367      2.000000
  0.070519 -0.013571  0.076771      2.000000
  0.094025 -0.027143  0.067174      2.000000
  0.117531 -0.040714  0.057578      2.000000
 -0.117531  0.094999  0.153542      2.000000
 -0.094025  0.081428  0.143945      2.000000
 -0.070519  0.067856  0.134349      2.000000
 -0.047012  0.054285  0.124753      2.000000
 -0.023506  0.040714  0.115156      2.000000
  0.000000  0.054285  0.124753      2.000000
  0.023506  0.040714  0.115156      2.000000
  0.047012  0.027143  0.105560      2.000000
  0.070519  0.013571  0.095964      2.000000
  0.094025  0.000000  0.086367      2.000000
  0.117531 -0.013571  0.076771      2.000000
 -0.117531  0.122142  0.172734      2.000000
 -0.094025  0.108570  0.163138      2.000000
 -0.070519  0.094999  0.153542      2.000000
 -0.047012  0.081428  0.143945      2.000000
 -0.023506  0.067856  0.134349      2.000000
  0.000000  0.081428  0.143945      2.000000
  0.023506  0.067856  0.134349      2.000000
  0.047012  0.054285  0.124753      2.000000
  0.070519  0.040714  0.115156      2.000000
  0.094025  0.027143  0.105560      2.000000
  0.117531  0.013571  0.095964      2.000000
 -0.117531  0.149284  0.191927      2.000000
 -0.094025  0.135713  0.182331      2.000000
 -0.070519  0.122142  0.172734      2.000000
 -0.047012  0.108570  0.163138      2.000000
 -0.023506  0.094999  0.153542      2.000000
  0.000000  0.108570  0.163138      2.000000
  0.023506  0.094999  0.153542      2.000000
  0.047012  0.081428  0.143945      2.000000
  0.070519  0.067856  0.134349      2.000000
  0.094025  0.054285  0.124753      2.000000
  0.117531  0.040714  0.115156      2.000000
 -0.117531  0.176427  0.211120      2.000000
 -0.094025  0.162855  0.201523      2.000000
 -0.070519  0.149284  0.191927      2.000000
 -0.047012  0.135713  0.182331      2.000000
 -0.023506  0.122142  0.172734      2.000000
  0.000000  0.135713  0.182331      2.000000
  0.023506  0.122142  0.172734      2.000000
  0.047012  0.108570  0.163138      2.000000
  0.070519  0.094999  0.153542      2.000000
  0.094025  0.081428  0.143945      2.000000
  0.117531  0.067856  0.134349      2.000000
 -0.117531  0.203569  0.230312      2.000000
 -0.094025  0.189998  0.220716      2.000000
 -0.070519  0.176427  0.211120      2.000000
 -0.047012  0.162855  0.201523      2.000000
 -0.023506  0.149284  0.191927      2.000000
  0.000000 -0.135713 -0.009596      2.000000
  0.023506 -0.149284 -0.019193      2.000000
  0.047012 -0.162855 -0.028789      2.000000
  0.070519 -0.176427 -0.038385      2.000000
  0.094025 -0.189998 -0.047982      2.000000
  0.117531 -0.203569 -0.057578      2.000000
 -0.117531 -0.067856  0.038385      2.000000
 -0.094025 -0.081428  0.028789      2.000000
 -0.070519 -0.094999  0.019193      2.000000
 -0.047012 -0.108570  0.009596      2.000000
 -0.023506 -0.122142  0.000000      2.000000
  0.000000 -0.108570  0.009596      2.000000
  0.023506 -0.122142  0.000000      2.000000
  0.047012 -0.135713 -0.009596      2.000000
  0.070519 -0.149284 -0.019193      2.000000
  0.094025 -0.162855 -0.028789      2.000000
  0.117531 -0.176427 -0.038385      2.000000
 -0.117531 -0.040714  0.057578      2.000000
 -0.094025 -0.054285  0.047982      2.000000
 -0.070519 -0.067856  0.038385      2.000000
 -0.047012 -0.081428  0.028789      2.000000
 -0.023506 -0.094999  0.019193      2.000000
  0.000000 -0.081428  0.028789      2.000000
  0.023506 -0.094999  0.019193      2.000000
  0.047012 -0.108570  0.009596      2.000000
  0.070519 -0.122142  0.000000      2.000000
  0.094025 -0.135713 -0.009596      2.000000
  0.117531 -0.149284 -0.019193      2.000000
 -0.117531 -0.013571  0.076771      2.000000
 -0.094025 -0.027143  0.067174      2.000000
 -0.070519 -0.040714  0.057578      2.000000
 -0.047012 -0.054285  0.047982      2.000000
 -0.023506 -0.067856  0.038385      2.000000
  0.000000 -0.054285  0.047982      2.000000
  0.023506 -0.067856  0.038385      2.000000
  0.047012 -0.081428  0.028789      2.000000
  0.070519 -0.094999  0.019193      2.000000
  0.094025 -0.108570  0.009596      2.000000
  0.117531 -0.122142  0.000000      2.000000
 -0.117531  0.013571  0.095963      2.000000
 -0.094025 -0.000000  0.086367      2.000000
 -0.070519 -0.013571  0.076771      2.000000
 -0.047012 -0.027143  0.067174      2.000000
 -0.023506 -0.040714  0.057578      2.000000
  0.000000 -0.027143  0.067174      2.000000
  0.023506 -0.040714  0.057578      2.000000
  0.047012 -0.054285  0.047982      2.000000
  0.070519 -0.067856  0.038385      2.000000
  0.094025 -0.081428  0.028789      2.000000
  0.117531 -0.094999  0.019193      2.000000
 -0.117531  0.040714  0.115156      2.000000
 -0.094025  0.027143  0.105560      2.000000
 -0.070519  0.013571  0.095963      2.000000
 -0.047012 -0.000000  0.086367      2.000000
 -0.023506 -0.013571  0.076771      2.000000
  0.000000  0.000000  0.115156      2.000000
  0.023506 -0.013571  0.105560      2.000000
  0.047012 -0.027143  0.095964      2.000000
  0.070519 -0.040714  0.086367      2.000000
  0.094025 -0.054285  0.076771      2.000000
  0.117531 -0.067856  0.067175      2.000000
 -0.117531  0.067856  0.163138      2.000000
 -0.094025  0.054285  0.153542      2.000000
 -0.070519  0.040714  0.143945      2.000000
 -0.047012  0.027143  0.134349      2.000000
 -0.023506  0.013571  0.124753      2.000000
  0.000000  0.027143  0.134349      2.000000
  0.023506  0.013571  0.124753      2.000000
  0.047012  0.000000  0.115156      2.000000
  0.070519 -0.013571  0.105560      2.000000
  0.094025 -0.027143  0.095964      2.000000
  0.117531 -0.040714  0.086367      2.000000
 -0.117531  0.094999  0.182331      2.000000
 -0.094025  0.081428  0.172734      2.000000
 -0.070519  0.067856  0.163138      2.000000
 -0.047012  0.054285  0.153542      2.000000
 -0.023506  0.040714  0.143945      2.000000
  0.000000  0.054285  0.153542      2.000000
  0.023506  0.040714  0.143945      2.000000
  0.047012  0.027143  0.134349      2.000000
  0.070519  0.013571  0.124753      2.000000
  0.094025  0.000000  0.115156      2.000000
  0.117531 -0.013571  0.105560      2.000000
 -0.117531  0.122142  0.201523      2.000000
 -0.094025  0.108570  0.191927      2.000000
 -0.070519  0.094999  0.182331      2.000000
 -0.047012  0.081428  0.172734      2.000000
 -0.023506  0.067856  0.163138      2.000000
  0.000000  0.081428  0.172734      2.000000
  0.023506  0.067856  0.163138      2.000000
  0.047012  0.054285  0.153542      2.000000
  0.070519  0.040714  0.143945      2.000000
  0.094025  0.027143  0.134349      2.000000
  0.117531  0.013571  0.124753      2.000000
 -0.117531  0.149284  0.220716      2.000000
 -0.094025  0.135713  0.211120      2.000000
 -0.070519  0.122142  0.201523      2.000000
 -0.047012  0.108570  0.191927      2.000000
 -0.023506  0.094999  0.182331      2.000000
  0.000000  0.108570  0.191927      2.000000
  0.023506  0.094999  0.182331      2.000000
  0.047012  0.081428  0.172734      2.000000
  0.070519  0.067856  0.163138      2.000000
  0.094025  0.054285  0.153542      2.000000
  0.117531  0.040714  0.143945      2.000000
 -0.117531  0.176427  0.239909      2.000000
 -0.094025  0.162855  0.230312      2.000000
 -0.070519  0.149284  0.220716      2.000000
 -0.047012  0.135713  0.211120      2.000000
 -0.023506  0.122142  0.201523      2.000000
  0.000000  0.135713  0.211120      2.000000
  0.023506  0.122142  0.201523      2.000000
  0.047012  0.108570  0.191927      2.000000
  0.070519  0.094999  0.182331      2.000000
  0.094025  0.081428  0.172734      2.000000
  0.117531  0.067856  0.163138      2.000000
 -0.117531  0.203569  0.259101      2.000000
 -0.094025  0.189998  0.249505      2.000000
 -0.070519  0.176427  0.239909      2.000000
 -0.047012  0.162855  0.230312      2.000000
 -0.023506  0.149284  0.220716      2.000000
  0.000000 -0.135713  0.019193      2.000000
  0.023506 -0.149284  0.009596      2.000000
  0.047012 -0.162855  0.000000      2.000000
  0.070519 -0.176427 -0.009596      2.000000
  0.094025 -0.189998 -0.019193      2.000000
  0.117531 -0.203569 -0.028789      2.000000
 -0.117531 -0.067856  0.067174      2.000000
 -0.094025 -0.081428  0.057578      2.000000
 -0.070519 -0.094999  0.047982      2.000000
 -0.047012 -0.108570  0.038385      2.000000
 -0.023506 -0.122142  0.028789      2.000000
  0.000000 -0.108570  0.038385      2.000000
  0.023506 -0.122142  0.028789      2.000000
  0.047012 -0.135713  0.019193      2.000000
  0.070519 -0.149284  0.009596      2.000000
  0.094025 -0.162855  0.000000      2.000000
  0.117531 -0.176427 -0.009596      2.000000
 -0.117531 -0.040714  0.086367      2.000000
 -0.094025 -0.054285  0.076771      2.000000
 -0.070519 -0.067856  0.067174      2.000000
 -0.047012 -0.081428  0.057578      2.000000
 -0.023506 -0.094999  0.047982      2.000000
  0.000000 -0.081428  0.057578      2.000000
  0.023506 -0.094999  0.047982      2.000000
  0.047012 -0.108570  0.038385      2.000000
  0.070519 -0.122142  0.028789      2.000000
  0.094025 -0.135713  0.019193      2.000000
  0.117531 -0.149284  0.009596      2.000000
 -0.117531 -0.013571  0.105560      2.000000
 -0.094025 -0.027143  0.095964      2.000000
 -0.070519 -0.040714  0.086367      2.000000
 -0.047012 -0.054285  0.076771      2.000000
 -0.023506 -0.067856  0.067174      2.000000
  0.000000 -0.054285  0.076771      2.000000
  0.023506 -0.067856  0.067175      2.000000
  0.047012 -0.081428  0.057578      2.000000
  0.070519 -0.094999  0.047982      2.000000
  0.094025 -0.108570  0.038385      2.000000
  0.117531 -0.122142  0.028789      2.000000
 -0.117531  0.013571  0.124753      2.000000
 -0.094025 -0.000000  0.115156      2.000000
 -0.070519 -0.013571  0.105560      2.000000
 -0.047012 -0.027143  0.095964      2.000000
 -0.023506 -0.040714  0.086367      2.000000
  0.000000 -0.027143  0.095964      2.000000
  0.023506 -0.040714  0.086367      2.000000
  0.047012 -0.054285  0.076771      2.000000
  0.070519 -0.067856  0.067175      2.000000
  0.094025 -0.081428  0.057578      2.000000
  0.117531 -0.094999  0.047982      2.000000
 -0.117531  0.040714  0.143945      2.000000
 -0.094025  0.027143  0.134349      2.000000
 -0.070519  0.013571  0.124753      2.000000
 -0.047012 -0.000000  0.115156      2.000000
 -0.023506 -0.013571  0.105560      2.000000
  0.000000  0.000000  0.143945      2.000000
  0.023506 -0.013571  0.134349      2.000000
  0.047012 -0.027143  0.124753      2.000000
  0.070519 -0.040714  0.115156      2.000000
  0.094025 -0.054285  0.105560      2.000000
  0.117531 -0.067856  0.095964      2.000000
 -0.117531  0.067856  0.191927      2.000000
 -0.094025  0.054285  0.182331      2.000000
 -0.070519  0.040714  0.172734      2.000000
 -0.047012  0.027143  0.163138      2.000000
 -0.023506  0.013571  0.153542      2.000000
  0.000000  0.027143  0.163138      2.000000
  0.023506  0.013571  0.153542      2.000000
  0.047012  0.000000  0.143945      2.000000
  0.070519 -0.013571  0.134349      2.000000
  0.094025 -0.027143  0.124753      2.000000
  0.117531 -0.040714  0.115156      2.000000
 -0.117531  0.094999  0.211120      2.000000
 -0.094025  0.081428  0.201523      2.000000
 -0.070519  0.067856  0.191927      2.000000
 -0.047012  0.054285  0.182331      2.000000
 -0.023506  0.040714  0.172734      2.000000
  0.000000  0.054285  0.182331      2.000000
  0.023506  0.040714  0.172734      2.000000
  0.047012  0.027143  0.163138      2.000000
  0.070519  0.013571  0.153542      2.000000
  0.094025  0.000000  0.143945      2.000000
  0.117531 -0.013571  0.134349      2.000000
 -0.117531  0.122142  0.230312      2.000000
 -0.094025  0.108570  0.220716      2.000000
 -0.070519  0.094999  0.211120      2.000000
 -0.047012  0.081428  0.201523      2.000000
 -0.023506  0.067856  0.191927      2.000000
  0.000000  0.081428  0.201523      2.000000
  0.023506  0.067856  0.191927      2.000000
  0.047012  0.054285  0.182331      2.000000
  0.070519  0.040714  0.172734      2.000000
  0.094025  0.027143  0.163138      2.000000
  0.117531  0.013571  0.153542      2.000000
 -0.117531  0.149284  0.249505      2.000000
 -0.094025  0.135713  0.239909      2.000000
 -0.070519  0.122142  0.230312      2.000000
 -0.047012  0.108570  0.220716      2.000000
 -0.023506  0.094999  0.211120      2.000000
  0.000000  0.108570  0.220716      2.000000
  0.023506  0.094999  0.211120      2.000000
  0.047012  0.081428  0.201523      2.000000
  0.070519  0.067856  0.191927      2.000000
  0.094025  0.054285  0.182331      2.000000
  0.117531  0.040714  0.172734      2.000000
 -0.117531  0.176427  0.268698      2.000000
 -0.094025  0.162855  0.259101      2.000000
 -0.070519  0.149284  0.249505      2.000000
 -0.047012  0.135713  0.239909      2.000000
 -0.023506  0.122142  0.230312      2.000000
  0.000000  0.135713  0.239909      2.000000
  0.023506  0.122142  0.230312      2.000000
  0.047012  0.108570  0.220716      2.000000
  0.070519  0.094999  0.211120      2.000000
  0.094025  0.081428  0.201523      2.000000
  0.117531  0.067856  0.191927      2.000000
 -0.117531  0.203569  0.287890      2.000000
 -0.094025  0.189998  0.278294      2.000000
 -0.070519  0.176427  0.268698      2.000000
 -0.047012  0.162855  0.259101      2.000000
 -0.023506  0.149284  0.249505      2.000000
  0.000000 -0.135713  0.047982      2.000000
  0.023506 -0.149284  0.038386      2.000000
  0.047012 -0.162855  0.028789      2.000000
  0.070519 -0.176427  0.019193      2.000000
  0.094025 -0.189998  0.009596      2.000000
  0.117531 -0.203569  0.000000      2.000000
 -0.117531 -0.067856  0.095964      2.000000
 -0.094025 -0.081428  0.086367      2.000000
 -0.070519 -0.094999  0.076771      2.000000
 -0.047012 -0.108570  0.067175      2.000000
 -0.023506 -0.122142  0.057578      2.000000
  0.000000 -0.108570  0.067175      2.000000
  0.023506 -0.122142  0.057578      2.000000
  0.047012 -0.135713  0.047982      2.000000
  0.070519 -0.149284  0.038386      2.000000
  0.094025 -0.162855  0.028789      2.000000
  0.117531 -0.176427  0.019193      2.000000
 -0.117531 -0.040714  0.115156      2.000000
 -0.094025 -0.054285  0.105560      2.000000
 -0.070519 -0.067856  0.095964      2.000000
 -0.047012 -0.081428  0.086367      2.000000
 -0.023506 -0.094999  0.076771      2.000000
  0.000000 -0.081428  0.086367      2.000000
  0.023506 -0.094999  0.076771      2.000000
  0.047012 -0.108570  0.067175      2.000000
  0.070519 -0.122142  0.057578      2.000000
  0.094025 -0.135713  0.047982      2.000000
  0.117531 -0.149284  0.038386      2.000000
 -0.117531 -0.013571  0.134349      2.000000
 -0.094025 -0.027143  0.124753      2.000000
 -0.070519 -0.040714  0.115156      2.000000
 -0.047012 -0.054285  0.105560      2.000000
 -0.023506 -0.067856  0.095964      2.000000
  0.000000 -0.054285  0.105560      2.000000
  0.023506 -0.067856  0.095964      2.000000
  0.047012 -0.081428  0.086367      2.000000
  0.070519 -0.094999  0.076771      2.000000
  0.094025 -0.108570  0.067175      2.000000
  0.117531 -0.122142  0.057578      2.000000
 -0.117531  0.013571  0.153542      2.000000
 -0.094025 -0.000000  0.143945      2.000000
 -0.070519 -0.013571  0.134349      2.000000
 -0.047012 -0.027143  0.124753      2.000000
 -0.023506 -0.040714  0.115156      2.000000
  0.000000 -0.027143  0.124753      2.000000
  0.023506 -0.040714  0.115156      2.000000
  0.047012 -0.054285  0.105560      2.000000
  0.070519 -0.067856  0.095964      2.000000
  0.094025 -0.081428  0.086367      2.000000
  0.117531 -0.094999  0.076771      2.000000
 -0.117531  0.040714  0.172734      2.000000
 -0.094025  0.027143  0.163138      2.000000
 -0.070519  0.013571  0.153542      2.000000
 -0.047012 -0.000000  0.143945      2.000000
 -0.023506 -0.013571  0.134349      2.000000
 
 TETIRR: Found   3990 inequivalent tetrahedra from     7986
 
 Subroutine IBZKPT_HF returns following result:
 ==============================================
 
 Found   1331 k-points in 1st BZ
 the following   1331 k-points will be used (e.g. in the exchange kernel)
 Following reciprocal coordinates:   # in IRBZ
  0.000000  0.000000  0.000000    0.00075131   1 t-inv F
  0.090909  0.000000 -0.000000    0.00075131   2 t-inv F
  0.181818  0.000000 -0.000000    0.00075131   3 t-inv F
  0.272727  0.000000  0.000000    0.00075131   4 t-inv F
  0.363636  0.000000 -0.000000    0.00075131   5 t-inv F
  0.454545  0.000000  0.000000    0.00075131   6 t-inv F
  0.000000  0.090909 -0.000000    0.00075131   7 t-inv F
  0.090909  0.090909 -0.000000    0.00075131   8 t-inv F
  0.181818  0.090909 -0.000000    0.00075131   9 t-inv F
  0.272727  0.090909 -0.000000    0.00075131  10 t-inv F
  0.363636  0.090909 -0.000000    0.00075131  11 t-inv F
  0.454545  0.090909  0.000000    0.00075131  12 t-inv F
 -0.454545  0.090909  0.000000    0.00075131  13 t-inv F
 -0.363636  0.090909  0.000000    0.00075131  14 t-inv F
 -0.272727  0.090909  0.000000    0.00075131  15 t-inv F
 -0.181818  0.090909 -0.000000    0.00075131  16 t-inv F
 -0.090909  0.090909 -0.000000    0.00075131  17 t-inv F
  0.000000  0.181818 -0.000000    0.00075131  18 t-inv F
  0.090909  0.181818 -0.000000    0.00075131  19 t-inv F
  0.181818  0.181818 -0.000000    0.00075131  20 t-inv F
  0.272727  0.181818 -0.000000    0.00075131  21 t-inv F
  0.363636  0.181818 -0.000000    0.00075131  22 t-inv F
  0.454545  0.181818  0.000000    0.00075131  23 t-inv F
 -0.454545  0.181818 -0.000000    0.00075131  24 t-inv F
 -0.363636  0.181818 -0.000000    0.00075131  25 t-inv F
 -0.272727  0.181818 -0.000000    0.00075131  26 t-inv F
 -0.181818  0.181818 -0.000000    0.00075131  27 t-inv F
 -0.090909  0.181818  0.000000    0.00075131  28 t-inv F
  0.000000  0.272727 -0.000000    0.00075131  29 t-inv F
  0.090909  0.272727 -0.000000    0.00075131  30 t-inv F
  0.181818  0.272727 -0.000000    0.00075131  31 t-inv F
  0.272727  0.272727 -0.000000    0.00075131  32 t-inv F
  0.363636  0.272727 -0.000000    0.00075131  33 t-inv F
  0.454545  0.272727  0.000000    0.00075131  34 t-inv F
 -0.454545  0.272727 -0.000000    0.00075131  35 t-inv F
 -0.363636  0.272727 -0.000000    0.00075131  36 t-inv F
 -0.272727  0.272727 -0.000000    0.00075131  37 t-inv F
 -0.181818  0.272727 -0.000000    0.00075131  38 t-inv F
 -0.090909  0.272727 -0.000000    0.00075131  39 t-inv F
  0.000000  0.363636 -0.000000    0.00075131  40 t-inv F
  0.090909  0.363636 -0.000000    0.00075131  41 t-inv F
  0.181818  0.363636 -0.000000    0.00075131  42 t-inv F
  0.272727  0.363636 -0.000000    0.00075131  43 t-inv F
  0.363636  0.363636 -0.000000    0.00075131  44 t-inv F
  0.454545  0.363636  0.000000    0.00075131  45 t-inv F
 -0.454545  0.363636 -0.000000    0.00075131  46 t-inv F
 -0.363636  0.363636 -0.000000    0.00075131  47 t-inv F
 -0.272727  0.363636  0.000000    0.00075131  48 t-inv F
 -0.181818  0.363636  0.000000    0.00075131  49 t-inv F
 -0.090909  0.363636 -0.000000    0.00075131  50 t-inv F
  0.000000  0.454545 -0.000000    0.00075131  51 t-inv F
  0.090909  0.454545 -0.000000    0.00075131  52 t-inv F
  0.181818  0.454545 -0.000000    0.00075131  53 t-inv F
  0.272727  0.454545 -0.000000    0.00075131  54 t-inv F
  0.363636  0.454545 -0.000000    0.00075131  55 t-inv F
  0.454545  0.454545 -0.000000    0.00075131  56 t-inv F
 -0.454545  0.454545 -0.000000    0.00075131  57 t-inv F
 -0.363636  0.454545 -0.000000    0.00075131  58 t-inv F
 -0.272727  0.454545  0.000000    0.00075131  59 t-inv F
 -0.181818  0.454545 -0.000000    0.00075131  60 t-inv F
 -0.090909  0.454545 -0.000000    0.00075131  61 t-inv F
  0.000000  0.000000  0.090909    0.00075131  62 t-inv F
  0.090909  0.000000  0.090909    0.00075131  63 t-inv F
  0.181818  0.000000  0.090909    0.00075131  64 t-inv F
  0.272727  0.000000  0.090909    0.00075131  65 t-inv F
  0.363636  0.000000  0.090909    0.00075131  66 t-inv F
  0.454545  0.000000  0.090909    0.00075131  67 t-inv F
 -0.454545 -0.000000  0.090909    0.00075131  68 t-inv F
 -0.363636  0.000000  0.090909    0.00075131  69 t-inv F
 -0.272727 -0.000000  0.090909    0.00075131  70 t-inv F
 -0.181818  0.000000  0.090909    0.00075131  71 t-inv F
 -0.090909  0.000000  0.090909    0.00075131  72 t-inv F
  0.000000  0.090909  0.090909    0.00075131  73 t-inv F
  0.090909  0.090909  0.090909    0.00075131  74 t-inv F
  0.181818  0.090909  0.090909    0.00075131  75 t-inv F
  0.272727  0.090909  0.090909    0.00075131  76 t-inv F
  0.363636  0.090909  0.090909    0.00075131  77 t-inv F
  0.454545  0.090909  0.090909    0.00075131  78 t-inv F
 -0.454545  0.090909  0.090909    0.00075131  79 t-inv F
 -0.363636  0.090909  0.090909    0.00075131  80 t-inv F
 -0.272727  0.090909  0.090909    0.00075131  81 t-inv F
 -0.181818  0.090909  0.090909    0.00075131  82 t-inv F
 -0.090909  0.090909  0.090909    0.00075131  83 t-inv F
  0.000000  0.181818  0.090909    0.00075131  84 t-inv F
  0.090909  0.181818  0.090909    0.00075131  85 t-inv F
  0.181818  0.181818  0.090909    0.00075131  86 t-inv F
  0.272727  0.181818  0.090909    0.00075131  87 t-inv F
  0.363636  0.181818  0.090909    0.00075131  88 t-inv F
  0.454545  0.181818  0.090909    0.00075131  89 t-inv F
 -0.454545  0.181818  0.090909    0.00075131  90 t-inv F
 -0.363636  0.181818  0.090909    0.00075131  91 t-inv F
 -0.272727  0.181818  0.090909    0.00075131  92 t-inv F
 -0.181818  0.181818  0.090909    0.00075131  93 t-inv F
 -0.090909  0.181818  0.090909    0.00075131  94 t-inv F
  0.000000  0.272727  0.090909    0.00075131  95 t-inv F
  0.090909  0.272727  0.090909    0.00075131  96 t-inv F
  0.181818  0.272727  0.090909    0.00075131  97 t-inv F
  0.272727  0.272727  0.090909    0.00075131  98 t-inv F
  0.363636  0.272727  0.090909    0.00075131  99 t-inv F
  0.454545  0.272727  0.090909    0.00075131 100 t-inv F
 -0.454545  0.272727  0.090909    0.00075131 101 t-inv F
 -0.363636  0.272727  0.090909    0.00075131 102 t-inv F
 -0.272727  0.272727  0.090909    0.00075131 103 t-inv F
 -0.181818  0.272727  0.090909    0.00075131 104 t-inv F
 -0.090909  0.272727  0.090909    0.00075131 105 t-inv F
  0.000000  0.363636  0.090909    0.00075131 106 t-inv F
  0.090909  0.363636  0.090909    0.00075131 107 t-inv F
  0.181818  0.363636  0.090909    0.00075131 108 t-inv F
  0.272727  0.363636  0.090909    0.00075131 109 t-inv F
  0.363636  0.363636  0.090909    0.00075131 110 t-inv F
  0.454545  0.363636  0.090909    0.00075131 111 t-inv F
 -0.454545  0.363636  0.090909    0.00075131 112 t-inv F
 -0.363636  0.363636  0.090909    0.00075131 113 t-inv F
 -0.272727  0.363636  0.090909    0.00075131 114 t-inv F
 -0.181818  0.363636  0.090909    0.00075131 115 t-inv F
 -0.090909  0.363636  0.090909    0.00075131 116 t-inv F
  0.000000  0.454545  0.090909    0.00075131 117 t-inv F
  0.090909  0.454545  0.090909    0.00075131 118 t-inv F
  0.181818  0.454545  0.090909    0.00075131 119 t-inv F
  0.272727  0.454545  0.090909    0.00075131 120 t-inv F
  0.363636  0.454545  0.090909    0.00075131 121 t-inv F
  0.454545  0.454545  0.090909    0.00075131 122 t-inv F
 -0.454545  0.454545  0.090909    0.00075131 123 t-inv F
 -0.363636  0.454545  0.090909    0.00075131 124 t-inv F
 -0.272727  0.454545  0.090909    0.00075131 125 t-inv F
 -0.181818  0.454545  0.090909    0.00075131 126 t-inv F
 -0.090909  0.454545  0.090909    0.00075131 127 t-inv F
  0.000000 -0.454545  0.090909    0.00075131 128 t-inv F
  0.090909 -0.454545  0.090909    0.00075131 129 t-inv F
  0.181818 -0.454545  0.090909    0.00075131 130 t-inv F
  0.272727 -0.454545  0.090909    0.00075131 131 t-inv F
  0.363636 -0.454545  0.090909    0.00075131 132 t-inv F
  0.454545 -0.454545  0.090909    0.00075131 133 t-inv F
 -0.454545 -0.454545  0.090909    0.00075131 134 t-inv F
 -0.363636 -0.454545  0.090909    0.00075131 135 t-inv F
 -0.272727 -0.454545  0.090909    0.00075131 136 t-inv F
 -0.181818 -0.454545  0.090909    0.00075131 137 t-inv F
 -0.090909 -0.454545  0.090909    0.00075131 138 t-inv F
  0.000000 -0.363636  0.090909    0.00075131 139 t-inv F
  0.090909 -0.363636  0.090909    0.00075131 140 t-inv F
  0.181818 -0.363636  0.090909    0.00075131 141 t-inv F
  0.272727 -0.363636  0.090909    0.00075131 142 t-inv F
  0.363636 -0.363636  0.090909    0.00075131 143 t-inv F
  0.454545 -0.363636  0.090909    0.00075131 144 t-inv F
 -0.454545 -0.363636  0.090909    0.00075131 145 t-inv F
 -0.363636 -0.363636  0.090909    0.00075131 146 t-inv F
 -0.272727 -0.363636  0.090909    0.00075131 147 t-inv F
 -0.181818 -0.363636  0.090909    0.00075131 148 t-inv F
 -0.090909 -0.363636  0.090909    0.00075131 149 t-inv F
  0.000000 -0.272727  0.090909    0.00075131 150 t-inv F
  0.090909 -0.272727  0.090909    0.00075131 151 t-inv F
  0.181818 -0.272727  0.090909    0.00075131 152 t-inv F
  0.272727 -0.272727  0.090909    0.00075131 153 t-inv F
  0.363636 -0.272727  0.090909    0.00075131 154 t-inv F
  0.454545 -0.272727  0.090909    0.00075131 155 t-inv F
 -0.454545 -0.272727  0.090909    0.00075131 156 t-inv F
 -0.363636 -0.272727  0.090909    0.00075131 157 t-inv F
 -0.272727 -0.272727  0.090909    0.00075131 158 t-inv F
 -0.181818 -0.272727  0.090909    0.00075131 159 t-inv F
 -0.090909 -0.272727  0.090909    0.00075131 160 t-inv F
  0.000000 -0.181818  0.090909    0.00075131 161 t-inv F
  0.090909 -0.181818  0.090909    0.00075131 162 t-inv F
  0.181818 -0.181818  0.090909    0.00075131 163 t-inv F
  0.272727 -0.181818  0.090909    0.00075131 164 t-inv F
  0.363636 -0.181818  0.090909    0.00075131 165 t-inv F
  0.454545 -0.181818  0.090909    0.00075131 166 t-inv F
 -0.454545 -0.181818  0.090909    0.00075131 167 t-inv F
[...]
     12       0.4103      0.00000
     13      -1.2225      0.00000
     14       0.7443      0.00000
     15       0.1698      0.00000
     16      -1.1694      0.00000

 k-point 657 :       0.0909   -0.0909    0.4545
  band No.  band energies     occupation 
      1       0.7691      0.00000
      2      -3.2313      0.00000
      3       1.2696      0.00000
      4       1.2785      0.00000
      5       1.3535      0.00000
      6       1.1740      0.00000
      7       1.1176      0.00000
      8      -1.3149      0.00000
      9      -1.5900      0.00000
     10      -0.9520      0.00000
     11      -2.5895      0.00000
     12       0.9532      0.00000
     13      -0.0364      0.00000
     14      -0.2206      0.00000
     15      -0.9676      0.00000
     16      -0.5653      0.00000

 k-point 658 :       0.1818   -0.0909    0.4545
  band No.  band energies     occupation 
      1       0.4952      0.00000
      2      -2.5903      0.00000
      3       1.0301      0.00000
      4       1.2865      0.00000
      5       0.8846      0.00000
      6      -1.3694      0.00000
      7       1.3514      0.00000
      8       1.1442      0.00000
      9      -1.7873      0.00000
     10      -0.9287      0.00000
     11      -2.2233      0.00000
     12       1.3290      0.00000
     13      -0.3232      0.00000
     14      -0.0718      0.00000
     15       0.0464      0.00000
     16      -0.7488      0.00000

 k-point 659 :       0.2727   -0.0909    0.4545
  band No.  band energies     occupation 
      1       0.2202      0.00000
      2      -1.0507      0.00000
      3       0.1572      0.00000
      4       0.9119      0.00000
      5      -0.3789      0.00000
      6      -0.0030      0.00000
      7       1.4309      0.00000
      8      -0.0349      0.00000
      9      -0.4421      0.00000
     10      -1.3245      0.00000
     11      -1.6370      0.00000
     12       0.5347      0.00000
     13      -0.1259      0.00000
     14       0.9627      0.00000
     15      -0.2670      0.00000
     16       1.2843      0.00000

 k-point 660 :       0.3636   -0.0909    0.4545
  band No.  band energies     occupation 
      1      -0.0854      0.00000
      2       0.0605      0.00000
      3       1.0313      0.00000
      4      -0.9715      0.00000
      5      -1.0376      0.00000
      6       0.9264      0.00000
      7      -0.9060      0.00000
      8       1.0665      0.00000
      9      -0.2005      0.00000
     10      -1.8155      0.00000
     11       0.3543      0.00000
     12       1.6348      0.00000
     13      -0.5605      0.00000
     14       0.4138      0.00000
     15      -0.2364      0.00000
     16       0.8287      0.00000

 k-point 661 :       0.4545   -0.0909    0.4545
  band No.  band energies     occupation 
      1      -0.4075      0.00000
      2       0.5912      0.00000
      3       0.0472      0.00000
      4      -0.3331      0.00000
      5       0.2806      0.00000
      6      -0.2259      0.00000
      7      -1.2344      0.00000
      8      -0.2486      0.00000
      9       1.7868      0.00000
     10      -0.4529      0.00000
     11       0.1475      0.00000
     12       0.2631      0.00000
     13       1.8354      0.00000
     14      -2.0901      0.00000
     15      -1.4500      0.00000
     16       1.0656      0.00000

 k-point 662 :      -0.4545   -0.0909    0.4545
  band No.  band energies     occupation 
      1       1.6310      0.00000
      2      -1.8367      0.00000
      3      -0.9259      0.00000
      4       1.0788      0.00000
      5       1.3948      0.00000
      6      -1.3974      0.00000
      7      -0.4844      0.00000
      8       0.2695      0.00000
      9      -0.0774      0.00000
     10       0.3725      0.00000
     11      -0.2828      0.00000
     12      -0.2509      0.00000
     13       0.0978      0.00000
     14       0.8755      0.00000
     15       1.5372      0.00000
     16      -1.4576      0.00000

 k-point 663 :      -0.3636   -0.0909    0.4545
  band No.  band energies     occupation 
      1       1.9945      0.00000
      2      -3.3441      0.00000
      3       0.2341      0.00000
      4       1.1153      0.00000
      5       1.3672      0.00000
      6      -1.1753      0.00000
      7       0.6044      0.00000
      8      -1.2354      0.00000
      9       1.2463      0.00000
     10      -0.9250      0.00000
     11      -1.8793      0.00000
     12       2.1089      0.00000
     13      -1.5984      0.00000
     14       0.9548      0.00000
     15      -0.8288      0.00000
     16       2.3558      0.00000

 k-point 664 :      -0.2727   -0.0909    0.4545
  band No.  band energies     occupation 
      1       1.9338      0.00000
      2      -4.1991      0.00000
      3       1.1457      0.00000
      4       1.1265      0.00000
      5       1.3808      0.00000
      6       1.2972      0.00000
      7       0.9532      0.00000
      8      -3.0555      0.00000
      9       0.2840      0.00000
     10      -1.1634      0.00000
     11      -0.0842      0.00000
     12      -0.0126      0.00000
     13      -1.2847      0.00000
     14      -3.9406      0.00000
     15      -0.1673      0.00000
     16       1.3970      0.00000

 k-point 665 :      -0.1818   -0.0909    0.4545
  band No.  band energies     occupation 
      1       1.7003      0.00000
      2      -4.0881      0.00000
      3       1.2421      0.00000
      4       1.0899      0.00000
      5       1.3183      0.00000
      6       1.3517      0.00000
      7       1.2936      0.00000
      8      -1.4758      0.00000
      9      -0.7367      0.00000
     10      -2.2891      0.00000
     11       0.3582      0.00000
     12      -1.4959      0.00000
     13      -1.4707      0.00000
     14      -0.9997      0.00000
     15      -0.1053      0.00000
     16      -0.7376      0.00000

 k-point 666 :      -0.0909   -0.0909    0.4545
  band No.  band energies     occupation 
      1       1.3823      0.00000
      2      -3.7349      0.00000
      3       1.2198      0.00000
      4       0.9745      0.00000
      5       1.3073      0.00000
      6       1.2890      0.00000
      7       1.6404      0.00000
      8      -0.8684      0.00000
      9      -0.1743      0.00000
     10      -3.2971      0.00000
     11      -3.7274      0.00000
     12      -0.6010      0.00000
     13       1.4906      0.00000
     14      -0.2182      0.00000
     15       0.7034      0.00000
     16      -2.0337      0.00000


------------------------ aborting loop because EDIFF is reached ----------------------------------------


 FEWALD executed in parallel
    FORLOC:  cpu time    0.0000: real time    0.0006
    FORNL :  cpu time    4.9153: real time    4.9172
    STRESS:  cpu time   14.7198: real time   14.7226
    FORCOR:  cpu time    0.0230: real time    0.0229
    OFIELD:  cpu time    0.0000: real time    0.0001
 FEWALD executed in parallel
    FORLOC:  cpu time    0.0010: real time    0.0007
    FORNL :  cpu time    4.9133: real time    4.9145
    STRESS:  cpu time   14.7198: real time   14.7220
    FORCOR:  cpu time    0.0230: real time    0.0229
    OFIELD:  cpu time    0.0000: real time    0.0001
 FEWALD executed in parallel
    FORLOC:  cpu time    0.0000: real time    0.0006
    FORNL :  cpu time    4.9133: real time    4.9145
    STRESS:  cpu time   14.7318: real time   14.7343
    FORCOR:  cpu time    0.0230: real time    0.0229
    OFIELD:  cpu time    0.0000: real time    0.0001
 FEWALD executed in parallel
    FORLOC:  cpu time    0.0010: real time    0.0006
    FORNL :  cpu time    4.9133: real time    4.9155
    STRESS:  cpu time   14.6708: real time   14.7212
    FORCOR:  cpu time    0.0230: real time    0.0230
    OFIELD:  cpu time    0.0000: real time    0.0001

 INTERNAL STRAIN TENSOR  FOR ION    1  DIRECTION 3   (eV/Angst):
 -----------------------------------------------------------------------------
    -5.48026 -0.19081 -0.80536
    -0.66905 -6.02514 -0.90141
    -0.80326 -0.11129  9.78241


 POSITION                   FORCE-CONSTANT FOR ION    1 DIRECTION 3 (eV/Angst/Angst)
 -----------------------------------------------------------------------------------
      3.86668      0.00379      0.00317        -0.031511      0.145207    -14.000054
      3.86824     -0.00379      2.36515         0.031511     -0.145207     14.000054
 -----------------------------------------------------------------------------------
    total drift:                                0.000000      0.000000      0.000000


 BORN EFFECTIVE CHARGE FOR ION    1 DIRECTION 3 :   0.000  -0.000  -0.015
                   rigid augmentation           :  -0.000  -0.000   0.229
                   ionic contribution           :  -0.000  -0.000   4.000
                   Berry contribution           :   0.000  -0.000  -4.244


--------------------------------------------------------------------------------------------------------


  LATTYP: Found a face centered cubic cell.
 ALAT       =     5.4694110002
  
  Lattice vectors:
  
 A1 = (   1.9337280000,   3.3493170000,   0.0000000000)
 A2 = (   0.0000000000,   2.2328760000,  -3.1577660000)
 A3 = (  -1.9337290000,   3.3493170000,   0.0000000000)


Analysis of symmetry for initial positions (statically):
=====================================================================
 Subroutine PRICEL returns:
 Original cell was already a primitive cell.
 

 Routine SETGRP: Setting up the symmetry group for a 
 face centered cubic supercell.


 Subroutine GETGRP returns: Found  2 space group operations
 (whereof  1 operations were pure point group operations)
 out of a pool of 48 trial point group operations.


The static configuration has the point symmetry C_1 .
 The point group associated with its full space group is S_2 .


Analysis of symmetry for dynamics (positions and initial velocities):
=====================================================================
 Subroutine PRICEL returns:
 Original cell was already a primitive cell.
 

 Routine SETGRP: Setting up the symmetry group for a 
 face centered cubic supercell.


 Subroutine GETGRP returns: Found  2 space group operations
 (whereof  1 operations were pure point group operations)
 out of a pool of 48 trial point group operations.


The dynamic configuration has the point symmetry C_1 .
 The point group associated with its full space group is S_2 .


Analysis of structural, dynamic, and magnetic symmetry:
=====================================================================
 Subroutine PRICEL returns:
 Original cell was already a primitive cell.
 

 Routine SETGRP: Setting up the symmetry group for a 
 face centered cubic supercell.


 Subroutine GETGRP returns: Found  2 space group operations
 (whereof  1 operations were pure point group operations)
 out of a pool of 48 trial point group operations.


The magnetic configuration has the point symmetry C_1 .
 The point group associated with its full space group is S_2 .


 Subroutine INISYM returns: Found  2 space group operations
 (whereof  1 operations are pure point group operations),
 and found     1 'primitive' translations



--------------------------------------------------------------------------------------------------------




 MACROSCOPIC STATIC DIELECTRIC TENSOR (including local field effects in DFT)
 ------------------------------------------------------
          13.305641    -0.009676    -0.006887
          -0.009677    13.218748     0.032625
          -0.006887     0.032626    13.184291
 ------------------------------------------------------


 PIEZOELECTRIC TENSOR  for field in x, y, z        (e  Angst)
          XX          YY          ZZ          XY          YZ          ZX
  --------------------------------------------------------------------------------
  x     0.00040    -0.00018    -0.00024    -0.00033     0.00011     0.00103
  y     0.00035    -0.00094     0.00100     0.00041     0.00160    -0.00019
  z    -0.00058    -0.00258     0.00257    -0.00018    -0.00069     0.00055

 PIEZOELECTRIC TENSOR  for field in x, y, z        (C/m^2)
          XX          YY          ZZ          XY          YZ          ZX
  --------------------------------------------------------------------------------
  x     0.00000     0.00000     0.00000     0.00000     0.00000     0.00000
  y     0.00000     0.00000     0.00000     0.00000     0.00000     0.00000
  z     0.00000     0.00000     0.00000     0.00000     0.00000     0.00000
 
 BORN EFFECTIVE CHARGES (in e, cummulative output)
 -------------------------------------------------
 ion    1
    1    -0.01577     0.00017     0.00013
    2     0.00001    -0.01501    -0.00006
    3     0.00000    -0.00002    -0.01572
 ion    2
    1    -0.01590     0.00009     0.00008
    2    -0.00003    -0.01557    -0.00012
    3    -0.00003    -0.00003    -0.01461

 INTERNAL STRAIN TENSOR FOR ION    1 for displacements in x,y,z  (eV/Angst):
          X           Y           Z          XY          YZ          ZX
  --------------------------------------------------------------------------------
  x     0.09740     0.23280    -0.51731    -7.18251    -0.25556    -4.94352
  y    -7.78787     5.33997    -0.68813     0.20529    -5.69760    -0.52709
  z    -5.48026    -6.02514     9.78241    -0.66905    -0.11129    -0.80536

 INTERNAL STRAIN TENSOR FOR ION    2 for displacements in x,y,z  (eV/Angst):
          X           Y           Z          XY          YZ          ZX
  --------------------------------------------------------------------------------
  x    -0.09740    -0.23280     0.51731     7.18251     0.25556     4.94352
  y     7.78787    -5.33997     0.68813    -0.20529     5.69760     0.52709
  z     5.48026     6.02514    -9.78241     0.66905     0.11129     0.80536


--------------------------------------------------------------------------------------------------------


 
 SECOND DERIVATIVES (NOT SYMMETRIZED)
 ------------------------------------
               1X          1Y          1Z          2X          2Y          2Z 
  1X   -13.417092   -0.044479   -0.031489   13.417092    0.044479    0.031489
  1Y    -0.044432  -13.841465    0.145231    0.044432   13.841465   -0.145231
  1Z    -0.031511    0.145207  -14.000054    0.031511   -0.145207   14.000054
  2X    13.417092    0.044479    0.031489  -13.417092   -0.044479   -0.031489
  2Y     0.044432   13.841465   -0.145231   -0.044432  -13.841465    0.145231
  2Z     0.031511   -0.145207   14.000054   -0.031511    0.145207  -14.000054
 
 
 Eigenvectors and eigenvalues of the dynamical matrix
 ----------------------------------------------------
 
 
   1 f  =   15.657634 THz    98.379818 2PiTHz  522.282444 cm-1    64.754793 meV
             X         Y         Z           dx          dy          dz
      3.866676  0.003787  0.003170     0.004719   -0.360143    0.608502  
      3.868238 -0.003785  2.365154    -0.004719    0.360143   -0.608502  
 
   2 f  =   15.477392 THz    97.247322 2PiTHz  516.270210 cm-1    64.009371 meV
             X         Y         Z           dx          dy          dz
      3.866676  0.003787  0.003170    -0.109401   -0.601560   -0.355186  
      3.868238 -0.003785  2.365154     0.109401    0.601560    0.355186  
 
   3 f  =   15.276348 THz    95.984124 2PiTHz  509.564097 cm-1    63.177919 meV
             X         Y         Z           dx          dy          dz
      3.866676  0.003787  0.003170    -0.698576    0.091775    0.059735  
      3.868238 -0.003785  2.365154     0.698576   -0.091775   -0.059735  
 
   4 f  =    0.000000 THz     0.000001 2PiTHz    0.000003 cm-1     0.000000 meV
             X         Y         Z           dx          dy          dz
      3.866676  0.003787  0.003170     0.296225   -0.414151    0.490642  
      3.868238 -0.003785  2.365154     0.296225   -0.414151    0.490642  
 
   5 f/i=    0.000000 THz     0.000001 2PiTHz    0.000003 cm-1     0.000000 meV
             X         Y         Z           dx          dy          dz
      3.866676  0.003787  0.003170     0.637854    0.128015   -0.277046  
      3.868238 -0.003785  2.365154     0.637854    0.128015   -0.277046  
 
   6 f/i=    0.000000 THz     0.000002 2PiTHz    0.000010 cm-1     0.000001 meV
             X         Y         Z           dx          dy          dz
      3.866676  0.003787  0.003170    -0.073439   -0.558651   -0.427219  
      3.868238 -0.003785  2.365154    -0.073439   -0.558651   -0.427219  
 


--------------------------------------------------------------------------------------------------------




 MACROSCOPIC STATIC DIELECTRIC TENSOR IONIC CONTRIBUTION
 ------------------------------------------------------
           0.000000     0.000000    -0.000000
           0.000000     0.000000    -0.000000
          -0.000000    -0.000000     0.000000
 ------------------------------------------------------


 ELASTIC MODULI IONIC CONTR (kBar)
 Direction    XX          YY          ZZ          XY          YZ          ZX
 --------------------------------------------------------------------------------
 XX        -258.2485     24.6979    137.1782     -3.0220   -128.1364    -22.2878
 YY          24.6979   -180.5460    174.0265     -9.4339     83.4003     -2.2721
 ZZ         137.1782    174.0265   -269.5559      7.3732     -6.7876     13.4026
 XY          -3.0220     -9.4339      7.3732   -151.9363     -1.9755   -104.7799
 YZ        -128.1364     83.4003     -6.7876     -1.9755    -92.1109    -12.3028
 ZX         -22.2878     -2.2721     13.4026   -104.7799    -12.3028    -73.8699
 --------------------------------------------------------------------------------


 PIEZOELECTRIC TENSOR IONIC CONTR  for field in x, y, z        (C/m^2)
          XX          YY          ZZ          XY          YZ          ZX
  --------------------------------------------------------------------------------
  x    -0.00001     0.00000     0.00000    -0.00001    -0.00001    -0.00001
  y    -0.00007     0.00004     0.00000    -0.00000    -0.00005    -0.00001
  z     0.00009     0.00009    -0.00015     0.00001     0.00000     0.00001


--------------------------------------------------------------------------------------------------------


     LOOP+:  cpu time 2735.8351: real time 2739.2015
    4ORBIT:  cpu time    0.0000: real time    0.0000
 


 total charge     
 
# of ion     s       p       d       tot
----------------------------------------
  1        0.751   0.928   0.000   1.679
  2        0.751   0.928   0.000   1.679
------------------------------------------------
tot        1.502   1.855   0.000   3.357
 


 magnetization (x)
 
# of ion     s       p       d       tot
----------------------------------------
  1       -0.000  -0.000   0.000  -0.000
  2       -0.000  -0.000   0.000  -0.000
------------------------------------------------
tot       -0.000  -0.000   0.000  -0.000
 
 BZINTS: Fermi energy:  5.677218;  8.000000 electrons
         Band energy:   4.899047;  BLOECHL correction:  0.000000

 total amount of memory used by VASP on root node    65479. kBytes
========================================================================

   base      :      30000. kBytes
   nonlr-proj:        896. kBytes
   fftplans  :        702. kBytes
   grid      :       3862. kBytes
   one-center:         12. kBytes
   wavefun   :      30007. kBytes
 
  
  
 General timing and accounting informations for this job:
 ========================================================
  
                  Total CPU time used (sec):     2746.167
                            User time (sec):     2744.169
                          System time (sec):        1.998
                         Elapsed time (sec):     2750.304
  
                   Maximum memory used (kb):      275084.
                   Average memory used (kb):           0.
  
                          Minor page faults:       255153
                          Major page faults:            0
                 Voluntary context switches:        18369
