
Running Job 1 of 1 mol.qin
qchem mol.qin_50588.0 /tmp/qchem50588/ 1
/global/common/cori/software/qchem/5.1/exe/qcprog.exe mol.qin_50588.0 /tmp/qchem50588/
Check license passed

                  Welcome to Q-Chem
     A Quantum Leap Into The Future Of Chemistry


 Q-Chem 5.1, Q-Chem, Inc., Pleasanton, CA (2018)

 Yihan Shao,  Zhengting Gan,  E. Epifanovsky,  A. T. B. Gilbert,  M. Wormit,  
 J. Kussmann,  A. W. Lange,  A. Behn,  Jia Deng,  Xintian Feng,  D. Ghosh,  
 M. Goldey,  P. R. Horn,  L. D. Jacobson,  I. Kaliman,  T. Kus,  A. Landau,  
 Jie Liu,  E. I. Proynov,  R. M. Richard,  R. P. Steele,  E. J. Sundstrom,  
 H. L. Woodcock III,  P. M. Zimmerman,  D. Zuev,  B. Albrecht,  E. Alguire,  
 S. A. Baeppler,  D. Barton,  Z. Benda,  Y. A. Bernard,  E. J. Berquist,  
 K. B. Bravaya,  H. Burton,  D. Casanova,  Chun-Min Chang,  Yunqing Chen,  
 A. Chien,  K. D. Closser,  M. P. Coons,  S. Coriani,  S. Dasgupta,  
 A. L. Dempwolff,  M. Diedenhofen,  Hainam Do,  R. G. Edgar,  Po-Tung Fang,  
 S. Faraji,  S. Fatehi,  Qingguo Feng,  K. D. Fenk,  J. Fosso-Tande,  
 Qinghui Ge,  A. Ghysels,  G. Gidofalvi,  J. Gomes,  J. Gonthier,  A. Gunina,  
 D. Hait,  M. W. D. Hanson-Heine,  P. H. P. Harbach,  A. W. Hauser,  
 J. E. Herr,  E. G. Hohenstein,  Z. C. Holden,  Kerwin Hui,  B. C. Huynh,  
 T.-C. Jagau,  Hyunjun Ji,  B. Kaduk,  K. Khistyaev,  Jaehoon Kim,  
 P. Klunzinger,  K. Koh,  D. Kosenkov,  L. Koulias,  T. Kowalczyk,  
 C. M. Krauter,  A. Kunitsa,  Ka Un Lao,  A. Laurent,  K. V. Lawler,  
 Joonho Lee,  D. Lefrancois,  S. Lehtola,  D. S. Levine,  Yi-Pei Li,  
 You-Sheng Lin,  Fenglai Liu,  E. Livshits,  A. Luenser,  P. Manohar,  
 E. Mansoor,  S. F. Manzer,  Shan-Ping Mao,  Yuezhi Mao,  N. Mardirossian,  
 A. V. Marenich,  T. Markovich,  L. A. Martinez-Martinez,  S. A. Maurer,  
 N. J. Mayhall,  S. C. McKenzie,  J.-M. Mewes,  A. F. Morrison,  
 J. W. Mullinax,  K. Nanda,  T. S. Nguyen-Beck,  R. Olivares-Amaya,  
 J. A. Parkhill,  T. M. Perrine,  F. Plasser,  P. Pokhilko,  S. Prager,  
 A. Prociuk,  E. Ramos,  D. R. Rehn,  F. Rob,  M. Schneider,  N. Sergueev,  
 S. M. Sharada,  S. Sharma,  D. W. Small,  T. Stauch,  T. Stein,  
 Yu-Chuan Su,  A. J. W. Thom,  A. Tkatchenko,  T. Tsuchimochi,  N. M. Tubman,  
 L. Vogt,  M. L. Vidal,  O. Vydrov,  M. A. Watson,  J. Wenzel,  
 M. de Wergifosse,  T. A. Wesolowski,  A. White,  J. Witte,  A. Yamada,  
 Jun Yang,  K. Yao,  S. Yeganeh,  S. R. Yost,  Zhi-Qiang You,  A. Zech,  
 Igor Ying Zhang,  Xing Zhang,  Yan Zhao,  Ying Zhu,  B. R. Brooks,  
 G. K. L. Chan,  C. J. Cramer,  M. S. Gordon,  W. J. Hehre,  A. Klamt,  
 M. W. Schmidt,  C. D. Sherrill,  D. G. Truhlar,  A. Aspuru-Guzik,  R. Baer,  
 A. T. Bell,  N. A. Besley,  Jeng-Da Chai,  R. A. DiStasio Jr.,  A. Dreuw,  
 B. D. Dunietz,  T. R. Furlani,  Chao-Ping Hsu,  Yousung Jung,  Jing Kong,  
 D. S. Lambrecht,  WanZhen Liang,  C. Ochsenfeld,  V. A. Rassolov,  
 L. V. Slipchenko,  J. E. Subotnik,  T. Van Voorhis,  J. M. Herbert,  
 A. I. Krylov,  P. M. W. Gill,  M. Head-Gordon

 Contributors to earlier versions of Q-Chem not listed above: 
 R. D. Adamson,  B. Austin,  J. Baker,  G. J. O. Beran,  K. Brandhorst,  
 S. T. Brown,  E. F. C. Byrd,  A. K. Chakraborty,  C.-L. Cheng,  
 Siu Hung Chien,  D. M. Chipman,  D. L. Crittenden,  H. Dachsel,  
 R. J. Doerksen,  A. D. Dutoi,  L. Fusti-Molnar,  W. A. Goddard III,  
 A. Golubeva-Zadorozhnaya,  S. R. Gwaltney,  G. Hawkins,  A. Heyden,  
 S. Hirata,  G. Kedziora,  F. J. Keil,  C. Kelley,  Jihan Kim,  R. A. King,  
 R. Z. Khaliullin,  P. P. Korambath,  W. Kurlancheek,  A. M. Lee,  M. S. Lee,  
 S. V. Levchenko,  Ching Yeh Lin,  D. Liotard,  R. C. Lochan,  I. Lotan,  
 P. E. Maslen,  N. Nair,  D. P. O'Neill,  D. Neuhauser,  E. Neuscamman,  
 C. M. Oana,  R. Olson,  B. Peters,  R. Peverati,  P. A. Pieniazek,  
 Y. M. Rhee,  J. Ritchie,  M. A. Rohrdanz,  E. Rosta,  N. J. Russ,  
 H. F. Schaefer III,  N. E. Schultz,  N. Shenvi,  A. C. Simmonett,  A. Sodt,  
 D. Stuck,  K. S. Thanthiriwatte,  V. Vanovschi,  Tao Wang,  A. Warshel,  
 C. F. Williams,  Q. Wu,  X. Xu,  W. Zhang

 Please cite Q-Chem as follows:
 Y. Shao et al., Mol. Phys. 113, 184-215 (2015)
 DOI: 10.1080/00268976.2014.952696

 Q-Chem 5.1.0 for Intel X86 EM64T Linux

 Parts of Q-Chem use Armadillo 8.300.2 (Tropical Shenanigans).
 http://arma.sourceforge.net/

 Q-Chem begins on Tue Nov 13 15:29:46 2018  

Host: cori01
0

     Scratch files written to /tmp/qchem50588//
 Jun2518 |scratch|qcdevops|jenkins|workspace|build_RNUM -1
Processing $rem in /global/common/cori/software/qchem/5.1/config/preferences.
 MEM_TOTAL  96000 
Symmetry turned off for PCM/SM12/SMD calculation

Checking the input file for inconsistencies... 	...done.

--------------------------------------------------------------
User input:
--------------------------------------------------------------
$molecule
0 2
O     -2.0918880821      1.1846789314     -0.0566427270
O     -1.9962691958     -1.0867145462     -0.0355766350
O     -0.0420353004      0.1209438219     -0.1007649280
C     -3.4076387893      0.7197609169      0.2116945644
C     -3.3631261488     -0.7592547749     -0.1883456780
C     -1.2706239365      0.0660264192     -0.4441996139
H     -4.1376399230      1.2911891319     -0.3688352795
H     -3.6217114862      0.8460382524      1.2802282970
H     -3.9588604397     -1.4044544955      0.4603619353
H     -3.6762055045     -0.9026176455     -1.2325426244
Li      1.0396964765      1.6720166766     -0.5417966480
$end

$rem
job_type = opt
basis = 6-311++g*
max_scf_cycles = 200
gen_scfman = true
scf_algorithm = gdm
method = wb97xd
geom_opt_max_cycles = 200
solvent_method = pcm
xc_grid = 3
$end

$pcm
heavypoints 194
hpoints 194
radii uff
theory cpcm
vdwscale 1.1
$end

$solvent
dielectric 30.0
$end
--------------------------------------------------------------
 ----------------------------------------------------------------
             Standard Nuclear Orientation (Angstroms)
    I     Atom           X                Y                Z
 ----------------------------------------------------------------
    1      O      -2.0918880821     1.1846789314    -0.0566427270
    2      O      -1.9962691958    -1.0867145462    -0.0355766350
    3      O      -0.0420353004     0.1209438219    -0.1007649280
    4      C      -3.4076387893     0.7197609169     0.2116945644
    5      C      -3.3631261488    -0.7592547749    -0.1883456780
    6      C      -1.2706239365     0.0660264192    -0.4441996139
    7      H      -4.1376399230     1.2911891319    -0.3688352795
    8      H      -3.6217114862     0.8460382524     1.2802282970
    9      H      -3.9588604397    -1.4044544955     0.4603619353
   10      H      -3.6762055045    -0.9026176455    -1.2325426244
   11      Li      1.0396964765     1.6720166766    -0.5417966480
 ----------------------------------------------------------------
 Nuclear Repulsion Energy =   264.2960107917 hartrees
 There are       25 alpha and       24 beta electrons
 Requested basis set is 6-311++G(d)
 There are 58 shells and 170 basis functions

 Total QAlloc Memory Limit  96000 MB
 Mega-Array Size       188 MB
 MEM_STATIC part       192 MB
 Discretize the solute cavity surface with Lebedev spheres
	Using 194 Lebedev grid points for each H atom
	Using 194 Lebedev grid points for other atoms
	Atomic van der Waals radii will be scaled by 1.10
 Remove points where switching function is < 1.0e-08
 Keep 1054 surface tesserae and discard 1080 interior tesserae
 Molecular Surface Area = 139.626 Angst**2
 A cutoff of  1.0D-12 yielded   1668 shell pairs
 There are     14616 function pairs (     15863 Cartesian)
 
 -------------------------------------------------------
 OpenMP Integral Computing Module                       
 Release: version 1.0, May 2013, Q-Chem Inc. Pittsburgh 
 -------------------------------------------------------
 Integral Job Info:
 Integral job number is                      11
 Integral operator is                         1
 short-range coefficients              22203600
 long-range coefficients              100000000
 Omega coefficients                         200
 if combine SR and LR in K                    1
 Integral screening is                        0
 Integral computing path is                   2
 max size of driver memory is            800000
 size of driver memory is                593474
 size of scratch memory is              2428936
 max col of scratch BK array               1296
 max len of scratch array in speh3          155
 max len of scratch index in speh4           18
 max int batch size is                      520
 min int batch size is                       52
 fixed nKL is                                52
 max L of basis functions is                  2
 order of int derivative is                   0
 number of shells is                         58
 number of basis is                         177
 number of cartesian basis is               177
 number of contracted shell pairs          1668
 number of primitive shell pairs           4765
 maxK2 (contraction) of shell pair           36
 max number of K2 of shell pair               1
 max number of CS2 of shell pair            269
 max number of PS2 of shell pair            900
 mem total for path MDJ                  537110
 -------------------------------------------------------
 Smallest overlap matrix eigenvalue = 6.09E-05

 Scale SEOQF with 1.000000e-02/1.000000e-02/1.000000e-02

 Standard Electronic Orientation quadrupole field applied
 Nucleus-field energy     =     0.0000000012 hartrees
 Guess from superposition of atomic densities
 Warning:  Energy on first SCF cycle will be non-variational
 SAD guess density has 49.000000 electrons

 -----------------------------------------------------------------------
  General SCF calculation program by
  Eric Jon Sundstrom, Paul Horn, Yuezhi Mao, Dmitri Zuev, Alec White,
  David Stuck, Shaama M.S., Shane Yost, Joonho Lee, David Small,
  Daniel Levine, Susi Lehtola, Hugh Burton, Evgeny Epifanovsky
 -----------------------------------------------------------------------
 Exchange:     0.2220 Hartree-Fock + 1.0000 wB97X-D + LR-HF
 Correlation:  1.0000 wB97X-D
 Using SG-3 standard quadrature grid
 Dispersion:   Grimme D
 using 32 threads for integral computing
 -------------------------------------------------------
 OpenMP Integral computing Module                
 Release: version 1.0, May 2013, Q-Chem Inc. Pittsburgh 
 -------------------------------------------------------
 using 32 threads for integral computing
 -------------------------------------------------------
 OpenMP Integral computing Module                
 Release: version 1.0, May 2013, Q-Chem Inc. Pittsburgh 
 -------------------------------------------------------
 -------------------------------------------------------
 OpenMP BLAS3 based DFT computing Module                
 Release: version 1.0, May 2013, Q-Chem Inc. Pittsburgh 
 -------------------------------------------------------
 A unrestricted SCF calculation will be
 performed using Roothaan-Hall, GDM
 SCF converges when RMS gradient is below 1.0e-08
 ---------------------------------------
  Cycle       Energy         DIIS error
 ---------------------------------------
    1    -350.9526338080      2.31e-02  Roothaan Step
 ---------------------------------------
  Cycle       Energy        RMS Gradient
 ---------------------------------------
    1    -349.7888454132      1.06e-01   Descent step
    2    -349.9347142469      1.67e-02   Normal BFGS step
    3    -349.9451728512      9.35e-03   Normal BFGS step
    4    -349.9466080571      4.94e-03   Normal BFGS step
    5    -349.9473490391      1.36e-03   Normal BFGS step
    6    -349.9473861988      7.45e-04   Normal BFGS step
    7    -349.9473957333      3.69e-04   Normal BFGS step
    8    -349.9473971422      1.21e-04   Normal BFGS step
    9    -349.9473973511      5.57e-05   Normal BFGS step
   10    -349.9473974584      2.99e-05   Normal BFGS step
   11    -349.9473974678      1.09e-05   Normal BFGS step
   12    -349.9473974702      5.05e-06   Normal BFGS step
   13    -349.9473974706      2.21e-06   Normal BFGS step
   14    -349.9473974706      7.89e-07   Normal BFGS step
   15    -349.9473974706      2.06e-07   Normal BFGS step
   16    -349.9473974706      6.53e-08   Normal BFGS step
   17    -349.9473974706      2.01e-08   Normal BFGS step
   18    -349.9473974706      9.50e-09  Convergence criterion met
 ---------------------------------------
 SCF time:   CPU 634.60s  wall 28.00s 
<S^2> =          0.753466088

************** Final PCM Free Energy Summary **************
 G_electrostatic  =      -0.08315451 hartree =     -52.18023995 kcal/mol
 G_cavitation     =       0.00000000 hartree =       0.00000000 kcal/mol
 G_dispersion     =       0.00000000 hartree =       0.00000000 kcal/mol
 G_repulsion      =       0.00000000 hartree =       0.00000000 kcal/mol
 --------------------------------------------------
 Non-electrostatic Free Energy =       0.00000000 hartree =       0.00000000 kcal/mol
 Total                         =      -0.08315451 hartree =     -52.18023995 kcal/mol
 --------------------------------------------------
 SCF Energy (H0 + V/2)                       =    -349.94739747 
 Solute Internal Energy (H0)                 =    -349.86424296 
 Total Free Energy (H0 + V/2 + non-elec)     =    -349.94739747 hartree
                                             = -219595.30626462 kcal/mol
***********************************************************

 SCF   energy in the final basis set =     -349.9473974706
 Total energy in the final basis set =     -349.9473974706
 
 --------------------------------------------------------------
 
                    Orbital Energies (a.u.)
 --------------------------------------------------------------
 
 Alpha MOs
 -- Occupied --
-19.254 -19.248 -19.188 -10.382 -10.327 -10.325  -2.031  -1.194
 -1.093  -1.070  -0.836  -0.722  -0.667  -0.594  -0.575  -0.546
 -0.506  -0.495  -0.477  -0.427  -0.424  -0.368  -0.358  -0.347
 -0.205
 -- Virtual --
  0.013   0.018   0.019   0.022   0.060   0.065   0.070   0.074
  0.075   0.077   0.084   0.097   0.118   0.135   0.142   0.148
  0.170   0.178   0.181   0.195   0.197   0.200   0.204   0.206
  0.217   0.227   0.236   0.242   0.255   0.279   0.282   0.301
  0.315   0.324   0.341   0.353   0.354   0.368   0.378   0.381
  0.388   0.391   0.404   0.429   0.436   0.448   0.454   0.474
  0.500   0.532   0.559   0.578   0.619   0.629   0.657   0.662
  0.667   0.691   0.702   0.715   0.730   0.734   0.754   0.772
  0.780   0.788   0.813   0.843   0.874   0.914   0.949   1.031
  1.063   1.097   1.161   1.181   1.189   1.230   1.272   1.276
  1.296   1.331   1.383   1.396   1.478   1.536   1.602   1.638
  1.676   1.694   1.767   1.793   1.805   1.827   1.868   1.871
  1.907   1.942   1.957   2.048   2.190   2.531   2.596   2.604
  2.658   2.757   2.868   2.912   2.995   3.003   3.017   3.032
  3.074   3.096   3.134   3.178   3.207   3.258   3.295   3.395
  3.413   3.532   3.571   3.696   3.880   3.932   3.988   4.139
  4.193   4.222   5.160   5.173   5.232   5.304   5.363   5.489
  5.507   5.805   5.971  23.674  23.812  23.827  50.040  50.068
 50.133
 
 Beta MOs
 -- Occupied --
-19.252 -19.245 -19.183 -10.373 -10.327 -10.325  -2.031  -1.186
 -1.086  -1.059  -0.832  -0.718  -0.653  -0.589  -0.571  -0.539
 -0.493  -0.488  -0.449  -0.422  -0.420  -0.355  -0.348  -0.336
 -- Virtual --
  0.017   0.022   0.023   0.024   0.054   0.066   0.069   0.074
  0.078   0.083   0.087   0.101   0.105   0.124   0.139   0.145
  0.155   0.174   0.181   0.185   0.198   0.199   0.204   0.206
  0.213   0.220   0.233   0.240   0.244   0.257   0.284   0.287
  0.302   0.317   0.330   0.345   0.356   0.360   0.369   0.383
  0.384   0.391   0.396   0.407   0.436   0.441   0.450   0.458
  0.482   0.503   0.538   0.560   0.584   0.621   0.631   0.658
  0.665   0.668   0.697   0.703   0.718   0.732   0.745   0.754
  0.776   0.781   0.792   0.814   0.843   0.877   0.918   0.953
  1.038   1.068   1.099   1.166   1.184   1.192   1.234   1.278
  1.280   1.299   1.336   1.387   1.398   1.481   1.550   1.605
  1.645   1.694   1.699   1.772   1.808   1.812   1.832   1.872
  1.876   1.915   1.951   1.964   2.065   2.191   2.532   2.596
  2.604   2.660   2.792   2.876   2.915   3.003   3.011   3.021
  3.041   3.083   3.102   3.148   3.183   3.212   3.272   3.299
  3.397   3.424   3.545   3.578   3.708   3.881   3.935   3.991
  4.146   4.195   4.229   5.168   5.181   5.247   5.312   5.367
  5.493   5.510   5.810   5.979  23.674  23.813  23.843  50.043
 50.070  50.137
 --------------------------------------------------------------
 
          Ground-State Mulliken Net Atomic Charges

     Atom                 Charge (a.u.)    Spin (a.u.)
  --------------------------------------------------------
      1 O                    -0.150624       0.017902
      2 O                    -0.138696       0.008654
      3 O                    -0.583766       0.139251
      4 C                    -0.443379      -0.089512
      5 C                    -0.436830       0.058759
      6 C                    -0.086000       0.860540
      7 H                     0.248324      -0.001792
      8 H                     0.247813       0.006210
      9 H                     0.253026      -0.001120
     10 H                     0.251163       0.001668
     11 Li                    0.838969      -0.000558
  --------------------------------------------------------
  Sum of atomic charges =    -0.000000
  Sum of spin   charges =     1.000000

 -----------------------------------------------------------------
                    Cartesian Multipole Moments
 -----------------------------------------------------------------
    Charge (ESU x 10^10)
                 0.0000
    Dipole Moment (Debye)
         X       4.2757      Y       6.8159      Z      -1.5077
       Tot       8.1860
    Quadrupole Moments (Debye-Ang)
        XX     -22.2732     XY       9.6664     YY     -30.0311
        XZ      -4.0259     YZ      -3.8897     ZZ     -37.5579
    Octopole Moments (Debye-Ang^2)
       XXX     179.2656    XXY       2.4109    XYY      96.9901
       YYY      13.1444    XXZ       4.2845    XYZ      -5.0475
       YYZ      -2.6920    XZZ      76.9076    YZZ      -0.2893
       ZZZ      15.0801
    Hexadecapole Moments (Debye-Ang^3)
      XXXX   -1104.5995   XXXY      22.6454   XXYY    -241.8506
      XYYY      31.7566   YYYY    -171.6659   XXXZ     -20.9241
      XXYZ      -7.3292   XYYZ     -13.3046   YYYZ     -17.7734
      XXZZ    -225.2556   XYZZ       4.2056   YYZZ     -41.0349
      XZZZ     -18.5294   YZZZ      -4.0877   ZZZZ     -76.4789
 -----------------------------------------------------------------
 Calculating analytic gradient of the SCF energy
 Gradient of SCF Energy
            1           2           3           4           5           6
    1   0.0008089   0.0050974  -0.0182335  -0.0017523  -0.0013192   0.0043932
    2  -0.0001476   0.0014637  -0.0212827   0.0054966  -0.0078543  -0.0004476
    3   0.0017904   0.0026333   0.0060397   0.0013386  -0.0024969  -0.0024264
            7           8           9          10          11
    1  -0.0006975  -0.0016006  -0.0011673  -0.0019514   0.0164223
    2  -0.0010771  -0.0003042   0.0024552   0.0014088   0.0202893
    3   0.0009975  -0.0020032  -0.0022064   0.0030679  -0.0067344
 Max gradient component =       2.128E-02
 RMS gradient           =       7.291E-03
 Computing fast CPCM-SWIG gradient
 Updating gradient with PCM contributions...
 -- total gradient after adding PCM contribution --
---------------------------------------------------
  Atom         X              Y              Z     
---------------------------------------------------
   1       0.001150       0.001094      -0.000039
   2      -0.000525      -0.000778       0.000106
   3       0.001504      -0.001830       0.002430
   4       0.000505       0.000015       0.000002
   5      -0.000098      -0.000458       0.000014
   6      -0.002507       0.000081      -0.001535
   7      -0.000448       0.000294      -0.000482
   8      -0.000173       0.000263       0.001359
   9      -0.000775      -0.000904       0.000819
  10      -0.000401      -0.000282      -0.001570
  11       0.001766       0.002504      -0.001104
---------------------------------------------------
 Number of fixed atoms: 0
 Gradient time:  CPU 58.96 s  wall 3.75 s
 Geometry Optimization Parameters
   NAtoms,    NIC,     NZ,  NCons,   NDum,   NFix, NCnnct, MaxDiis
       11      72       0       0       0       0       0       0


** GEOMETRY OPTIMIZATION IN DELOCALIZED INTERNAL COORDINATES **
   Searching for a Minimum

   Optimization Cycle:   1

                       Coordinates (Angstroms)
     ATOM                X               Y               Z
      1  O        -2.0918880821    1.1846789314   -0.0566427270
      2  O        -1.9962691958   -1.0867145462   -0.0355766350
      3  O        -0.0420353004    0.1209438219   -0.1007649280
      4  C        -3.4076387893    0.7197609169    0.2116945644
      5  C        -3.3631261488   -0.7592547749   -0.1883456780
      6  C        -1.2706239365    0.0660264192   -0.4441996139
      7  H        -4.1376399230    1.2911891319   -0.3688352795
      8  H        -3.6217114862    0.8460382524    1.2802282970
      9  H        -3.9588604397   -1.4044544955    0.4603619353
     10  H        -3.6762055045   -0.9026176455   -1.2325426244
     11  Li        1.0396964765    1.6720166766   -0.5417966480
   Point Group: c1    Number of degrees of freedom:    27


   Energy is   -349.947397471


 Attempting to Generate Delocalized Internal Coordinates

 27 Hessian modes will be used to form the next step
  Hessian Eigenvalues:
     0.008230    0.015698    0.031933    0.046108    0.049145    0.057008
     0.058883    0.061702    0.100453    0.102520    0.109746    0.110649
     0.119675    0.187876    0.221853    0.228213    0.250000    0.282739
     0.337365    0.340095    0.343747    0.346067    0.376756    0.386505
     0.413718    0.426178    0.740494

 Minimum Search - Taking Simple RFO Step
 Searching for Lamda that Minimizes Along All modes
 Value Taken    Lamda =  -0.00019992
 Step Taken.  Stepsize is  0.047645

                             Maximum     Tolerance    Cnvgd?
         Gradient           0.003623      0.000300      NO
         Displacement       0.020170      0.001200      NO
         Energy change     *********      0.000001      NO


 New Cartesian Coordinates Obtained by Inverse Iteration

 Displacement from previous Coordinates is:  0.055510
 ----------------------------------------------------------------
             Standard Nuclear Orientation (Angstroms)
    I     Atom           X                Y                Z
 ----------------------------------------------------------------
    1      O      -2.0927284629     1.1843088623    -0.0556960940
    2      O      -1.9923293259    -1.0842344272    -0.0377619263
    3      O      -0.0431644845     0.1184327726    -0.1139818952
    4      C      -3.4079641841     0.7203548653     0.2101488890
    5      C      -3.3591225118    -0.7570207215    -0.1858658390
    6      C      -1.2715031534     0.0680584319    -0.4495574556
    7      H      -4.1371001314     1.2903138103    -0.3708611251
    8      H      -3.6236346148     0.8462873225     1.2761867823
    9      H      -3.9512814617    -1.4002268607     0.4643864724
   10      H      -3.6751997495    -0.9020540320    -1.2262135585
   11      Li      1.0277257504     1.6633926646    -0.5272035871
 ----------------------------------------------------------------
 Nuclear Repulsion Energy =   264.6860325848 hartrees
 There are       25 alpha and       24 beta electrons
 Discretize the solute cavity surface with Lebedev spheres
	Using 194 Lebedev grid points for each H atom
	Using 194 Lebedev grid points for other atoms
	Atomic van der Waals radii will be scaled by 1.10
 Remove points where switching function is < 1.0e-08
 Keep 1052 surface tesserae and discard 1082 interior tesserae
 Molecular Surface Area = 139.370 Angst**2
 Nucleus-field energy     =     0.0000000012 hartrees
 Requested basis set is 6-311++G(d)
 There are 58 shells and 170 basis functions
 A cutoff of  1.0D-12 yielded   1669 shell pairs
 There are     14617 function pairs (     15864 Cartesian)
 Smallest overlap matrix eigenvalue = 6.04E-05
 Guess MOs from SCF MO coefficient file
 Reading MOs from coefficient file
 Reading MOs from coefficient file

 -----------------------------------------------------------------------
  General SCF calculation program by
  Eric Jon Sundstrom, Paul Horn, Yuezhi Mao, Dmitri Zuev, Alec White,
  David Stuck, Shaama M.S., Shane Yost, Joonho Lee, David Small,
  Daniel Levine, Susi Lehtola, Hugh Burton, Evgeny Epifanovsky
 -----------------------------------------------------------------------
 Exchange:     0.2220 Hartree-Fock + 1.0000 wB97X-D + LR-HF
 Correlation:  1.0000 wB97X-D
 Using SG-3 standard quadrature grid
 Dispersion:   Grimme D
 using 32 threads for integral computing
 -------------------------------------------------------
 OpenMP Integral computing Module                
 Release: version 1.0, May 2013, Q-Chem Inc. Pittsburgh 
 -------------------------------------------------------
 using 32 threads for integral computing
 -------------------------------------------------------
 OpenMP Integral computing Module                
 Release: version 1.0, May 2013, Q-Chem Inc. Pittsburgh 
 -------------------------------------------------------
 -------------------------------------------------------
 OpenMP BLAS3 based DFT computing Module                
 Release: version 1.0, May 2013, Q-Chem Inc. Pittsburgh 
 -------------------------------------------------------
 A unrestricted SCF calculation will be
 performed using Roothaan-Hall, GDM
 SCF converges when RMS gradient is below 1.0e-08
 ---------------------------------------
  Cycle       Energy         DIIS error
 ---------------------------------------
    1    -348.8310907621      4.44e-04  Roothaan Step
 ---------------------------------------
  Cycle       Energy        RMS Gradient
 ---------------------------------------
    1    -349.9419691941      1.01e-02   Normal BFGS step
    2    -349.9459034712      7.01e-03   Normal BFGS step
    3    -349.9472861613      2.67e-03   Normal BFGS step
    4    -349.9474963575      1.19e-03   Normal BFGS step
    5    -349.9475328785      5.21e-04   Normal BFGS step
    6    -349.9475374760      2.14e-04   Normal BFGS step
    7    -349.9475381894      1.23e-04   Normal BFGS step
    8    -349.9475384116      3.60e-05   Normal BFGS step
    9    -349.9475384457      2.31e-05   Normal BFGS step
   10    -349.9475384515      8.54e-06   Normal BFGS step
   11    -349.9475384540      5.16e-06   Normal BFGS step
   12    -349.9475384542      2.05e-06   Normal BFGS step
   13    -349.9475384544      1.11e-06   Normal BFGS step
   14    -349.9475384544      4.15e-07   Normal BFGS step
   15    -349.9475384544      1.25e-07   Normal BFGS step
   16    -349.9475384544      2.79e-08   Normal BFGS step
   17    -349.9475384544      1.28e-08   Normal BFGS step
   18    -349.9475384544      3.32e-09  Convergence criterion met
 ---------------------------------------
 SCF time:   CPU 642.04s  wall 28.00s 
<S^2> =          0.753446596

************** Final PCM Free Energy Summary **************
 G_electrostatic  =      -0.08220718 hartree =     -51.58578608 kcal/mol
 G_cavitation     =       0.00000000 hartree =       0.00000000 kcal/mol
 G_dispersion     =       0.00000000 hartree =       0.00000000 kcal/mol
 G_repulsion      =       0.00000000 hartree =       0.00000000 kcal/mol
 --------------------------------------------------
 Non-electrostatic Free Energy =       0.00000000 hartree =       0.00000000 kcal/mol
 Total                         =      -0.08220718 hartree =     -51.58578608 kcal/mol
 --------------------------------------------------
 SCF Energy (H0 + V/2)                       =    -349.94753845 
 Solute Internal Energy (H0)                 =    -349.86533127 
 Total Free Energy (H0 + V/2 + non-elec)     =    -349.94753845 hartree
                                             = -219595.39473325 kcal/mol
***********************************************************

 SCF   energy in the final basis set =     -349.9475384544
 Total energy in the final basis set =     -349.9475384544
 
 --------------------------------------------------------------
 
                    Orbital Energies (a.u.)
 --------------------------------------------------------------
 
 Alpha MOs
 -- Occupied --
-19.254 -19.248 -19.188 -10.382 -10.326 -10.324  -2.030  -1.195
 -1.094  -1.072  -0.837  -0.722  -0.667  -0.595  -0.575  -0.546
 -0.506  -0.495  -0.478  -0.427  -0.424  -0.368  -0.358  -0.348
 -0.205
 -- Virtual --
  0.014   0.018   0.019   0.022   0.060   0.065   0.070   0.074
  0.075   0.077   0.084   0.097   0.119   0.135   0.142   0.148
  0.170   0.178   0.181   0.195   0.197   0.200   0.205   0.206
  0.217   0.227   0.236   0.242   0.255   0.279   0.282   0.301
  0.316   0.324   0.342   0.353   0.355   0.369   0.378   0.382
  0.388   0.392   0.404   0.430   0.437   0.448   0.455   0.476
  0.501   0.534   0.559   0.579   0.618   0.630   0.658   0.663
  0.668   0.692   0.703   0.716   0.731   0.734   0.756   0.773
  0.781   0.789   0.814   0.843   0.874   0.915   0.951   1.031
  1.063   1.097   1.161   1.181   1.189   1.231   1.272   1.277
  1.296   1.331   1.384   1.395   1.480   1.537   1.602   1.639
  1.678   1.695   1.768   1.793   1.807   1.828   1.868   1.872
  1.909   1.943   1.959   2.051   2.192   2.532   2.597   2.605
  2.659   2.757   2.870   2.914   2.996   3.004   3.019   3.034
  3.078   3.097   3.137   3.179   3.209   3.260   3.297   3.398
  3.415   3.534   3.576   3.699   3.882   3.936   3.991   4.140
  4.194   4.224   5.160   5.174   5.233   5.305   5.367   5.491
  5.508   5.808   5.974  23.675  23.817  23.831  50.040  50.069
 50.135
 
 Beta MOs
 -- Occupied --
-19.251 -19.245 -19.183 -10.372 -10.326 -10.324  -2.030  -1.187
 -1.087  -1.061  -0.833  -0.719  -0.654  -0.589  -0.572  -0.540
 -0.494  -0.488  -0.450  -0.423  -0.420  -0.356  -0.348  -0.337
 -- Virtual --
  0.017   0.022   0.023   0.024   0.054   0.066   0.069   0.074
  0.078   0.083   0.087   0.101   0.105   0.125   0.139   0.145
  0.155   0.174   0.182   0.185   0.198   0.199   0.204   0.206
  0.213   0.221   0.233   0.240   0.244   0.258   0.285   0.288
  0.302   0.318   0.330   0.346   0.357   0.361   0.370   0.384
  0.384   0.391   0.396   0.408   0.436   0.442   0.450   0.458
  0.484   0.503   0.539   0.560   0.584   0.621   0.631   0.659
  0.666   0.670   0.698   0.705   0.719   0.733   0.745   0.756
  0.776   0.782   0.793   0.815   0.844   0.877   0.920   0.955
  1.039   1.068   1.100   1.167   1.185   1.192   1.235   1.278
  1.280   1.299   1.336   1.388   1.397   1.482   1.551   1.605
  1.646   1.695   1.700   1.773   1.809   1.812   1.833   1.872
  1.877   1.916   1.953   1.966   2.067   2.193   2.533   2.598
  2.605   2.661   2.792   2.878   2.917   3.005   3.011   3.023
  3.044   3.086   3.104   3.150   3.184   3.214   3.274   3.301
  3.400   3.426   3.547   3.583   3.711   3.882   3.938   3.994
  4.147   4.197   4.230   5.168   5.182   5.247   5.312   5.371
  5.495   5.511   5.814   5.982  23.676  23.818  23.847  50.043
 50.072  50.139
 --------------------------------------------------------------
 
          Ground-State Mulliken Net Atomic Charges

     Atom                 Charge (a.u.)    Spin (a.u.)
  --------------------------------------------------------
      1 O                    -0.151377       0.017962
      2 O                    -0.138559       0.008046
      3 O                    -0.578516       0.139668
      4 C                    -0.440646      -0.089879
      5 C                    -0.438192       0.059328
      6 C                    -0.084436       0.860470
      7 H                     0.248543      -0.001688
      8 H                     0.247762       0.006081
      9 H                     0.252742      -0.000916
     10 H                     0.251576       0.001494
     11 Li                    0.831104      -0.000567
  --------------------------------------------------------
  Sum of atomic charges =    -0.000000
  Sum of spin   charges =     1.000000

 -----------------------------------------------------------------
                    Cartesian Multipole Moments
 -----------------------------------------------------------------
    Charge (ESU x 10^10)
                 0.0000
    Dipole Moment (Debye)
         X       4.2241      Y       6.7753      Z      -1.3923
       Tot       8.1047
    Quadrupole Moments (Debye-Ang)
        XX     -22.3820     XY       9.5207     YY     -30.1416
        XZ      -3.9393     YZ      -3.7562     ZZ     -37.6341
    Octopole Moments (Debye-Ang^2)
       XXX     178.9607    XXY       2.2396    XYY      96.6455
       YYY      12.7142    XXZ       4.5959    XYZ      -4.8177
       YYZ      -2.3087    XZZ      76.7984    YZZ      -0.4656
       ZZZ      15.5213
    Hexadecapole Moments (Debye-Ang^3)
      XXXX   -1102.9784   XXXY      22.2148   XXYY    -242.0200
      XYYY      31.6237   YYYY    -171.8794   XXXZ     -21.0753
      XXYZ      -7.1384   XYYZ     -12.9835   YYYZ     -17.2184
      XXZZ    -225.1498   XYZZ       4.2251   YYZZ     -41.2071
      XZZZ     -18.6978   YZZZ      -3.9396   ZZZZ     -76.7205
 -----------------------------------------------------------------
 Calculating analytic gradient of the SCF energy
 Gradient of SCF Energy
            1           2           3           4           5           6
    1  -0.0005584   0.0058459  -0.0202888  -0.0024919  -0.0010468   0.0064483
    2  -0.0015667   0.0017999  -0.0217720   0.0055147  -0.0070202   0.0003607
    3   0.0018515   0.0024897   0.0048930   0.0012382  -0.0023990  -0.0017492
            7           8           9          10          11
    1  -0.0002783  -0.0013662  -0.0003921  -0.0015419   0.0156703
    2  -0.0012845  -0.0006983   0.0033986   0.0017809   0.0194868
    3   0.0015200  -0.0032639  -0.0030011   0.0046343  -0.0062134
 Max gradient component =       2.177E-02
 RMS gradient           =       7.441E-03
 Computing fast CPCM-SWIG gradient
 Updating gradient with PCM contributions...
 -- total gradient after adding PCM contribution --
---------------------------------------------------
  Atom         X              Y              Z     
---------------------------------------------------
   1      -0.000169      -0.000402      -0.000007
   2       0.000322      -0.000450       0.000006
   3      -0.000724      -0.002372       0.001463
   4      -0.000403       0.000164      -0.000070
   5       0.000191       0.000324       0.000129
   6      -0.000377       0.000958      -0.000769
   7      -0.000003       0.000063       0.000060
   8       0.000052      -0.000162       0.000000
   9       0.000022       0.000074      -0.000012
  10       0.000000       0.000093       0.000010
  11       0.001089       0.001710      -0.000811
---------------------------------------------------
 Number of fixed atoms: 0
 Gradient time:  CPU 59.73 s  wall 3.50 s
 Geometry Optimization Parameters
   NAtoms,    NIC,     NZ,  NCons,   NDum,   NFix, NCnnct, MaxDiis
       11      72       0       0       0       0       0       0

 Cartesian Hessian Update
 Hessian Updated using BFGS Update


** GEOMETRY OPTIMIZATION IN DELOCALIZED INTERNAL COORDINATES **
   Searching for a Minimum

   Optimization Cycle:   2

                       Coordinates (Angstroms)
     ATOM                X               Y               Z
      1  O        -2.0927284629    1.1843088623   -0.0556960940
      2  O        -1.9923293259   -1.0842344272   -0.0377619263
      3  O        -0.0431644845    0.1184327726   -0.1139818952
      4  C        -3.4079641841    0.7203548653    0.2101488890
      5  C        -3.3591225118   -0.7570207215   -0.1858658390
      6  C        -1.2715031534    0.0680584319   -0.4495574556
      7  H        -4.1371001314    1.2903138103   -0.3708611251
      8  H        -3.6236346148    0.8462873225    1.2761867823
      9  H        -3.9512814617   -1.4002268607    0.4643864724
     10  H        -3.6751997495   -0.9020540320   -1.2262135585
     11  Li        1.0277257504    1.6633926646   -0.5272035871
   Point Group: c1    Number of degrees of freedom:    27


   Energy is   -349.947538454

 Hessian Updated using BFGS Update

 27 Hessian modes will be used to form the next step
  Hessian Eigenvalues:
     0.007969    0.015424    0.024343    0.045894    0.049285    0.056535
     0.057815    0.060387    0.062463    0.102981    0.109748    0.110854
     0.119898    0.190140    0.228168    0.240333    0.249151    0.292782
     0.338724    0.342684    0.344402    0.370130    0.380392    0.389312
     0.418673    0.446147    0.765613

 Minimum Search - Taking Simple RFO Step
 Searching for Lamda that Minimizes Along All modes
 Value Taken    Lamda =  -0.00015751
 Step Taken.  Stepsize is  0.076045

                             Maximum     Tolerance    Cnvgd?
         Gradient           0.001750      0.000300      NO
         Displacement       0.037223      0.001200      NO
         Energy change     -0.000141      0.000001      NO


 New Cartesian Coordinates Obtained by Inverse Iteration

 Displacement from previous Coordinates is:  0.078153
 ----------------------------------------------------------------
             Standard Nuclear Orientation (Angstroms)
    I     Atom           X                Y                Z
 ----------------------------------------------------------------
    1      O      -2.0897737493     1.1847741224    -0.0545074179
    2      O      -1.9900867337    -1.0825271552    -0.0399069836
    3      O      -0.0416402178     0.1189059233    -0.1354657350
    4      C      -3.4049360489     0.7212016558     0.2090005657
    5      C      -3.3571832320    -0.7567644885    -0.1831067270
    6      C      -1.2721539417     0.0688400248    -0.4557577817
    7      H      -4.1321740058     1.2896484596    -0.3748189605
    8      H      -3.6232732775     0.8512222395     1.2729811216
    9      H      -3.9462473850    -1.3981144837     0.4701968463
   10      H      -3.6766858675    -0.9049512638    -1.2206811032
   11      Li      1.0078521295     1.6553776540    -0.5043531618
 ----------------------------------------------------------------
 Nuclear Repulsion Energy =   265.0022534814 hartrees
 There are       25 alpha and       24 beta electrons
 Discretize the solute cavity surface with Lebedev spheres
	Using 194 Lebedev grid points for each H atom
	Using 194 Lebedev grid points for other atoms
	Atomic van der Waals radii will be scaled by 1.10
 Remove points where switching function is < 1.0e-08
 Keep 1051 surface tesserae and discard 1083 interior tesserae
 Molecular Surface Area = 139.160 Angst**2
 Nucleus-field energy     =     0.0000000012 hartrees
 Requested basis set is 6-311++G(d)
 There are 58 shells and 170 basis functions
 A cutoff of  1.0D-12 yielded   1669 shell pairs
 There are     14617 function pairs (     15864 Cartesian)
 Smallest overlap matrix eigenvalue = 6.03E-05
 Guess MOs from SCF MO coefficient file
 Reading MOs from coefficient file
 Reading MOs from coefficient file

 -----------------------------------------------------------------------
  General SCF calculation program by
  Eric Jon Sundstrom, Paul Horn, Yuezhi Mao, Dmitri Zuev, Alec White,
  David Stuck, Shaama M.S., Shane Yost, Joonho Lee, David Small,
  Daniel Levine, Susi Lehtola, Hugh Burton, Evgeny Epifanovsky
 -----------------------------------------------------------------------
 Exchange:     0.2220 Hartree-Fock + 1.0000 wB97X-D + LR-HF
 Correlation:  1.0000 wB97X-D
 Using SG-3 standard quadrature grid
 Dispersion:   Grimme D
 using 32 threads for integral computing
 -------------------------------------------------------
 OpenMP Integral computing Module                
 Release: version 1.0, May 2013, Q-Chem Inc. Pittsburgh 
 -------------------------------------------------------
 using 32 threads for integral computing
 -------------------------------------------------------
 OpenMP Integral computing Module                
 Release: version 1.0, May 2013, Q-Chem Inc. Pittsburgh 
 -------------------------------------------------------
 -------------------------------------------------------
 OpenMP BLAS3 based DFT computing Module                
 Release: version 1.0, May 2013, Q-Chem Inc. Pittsburgh 
 -------------------------------------------------------
 A unrestricted SCF calculation will be
 performed using Roothaan-Hall, GDM
 SCF converges when RMS gradient is below 1.0e-08
 ---------------------------------------
  Cycle       Energy         DIIS error
 ---------------------------------------
    1    -348.8493564119      4.50e-04  Roothaan Step
 ---------------------------------------
  Cycle       Energy        RMS Gradient
 ---------------------------------------
    1    -349.9420672376      1.06e-02   Normal BFGS step
    2    -349.9459821147      7.21e-03   Normal BFGS step
    3    -349.9473785753      2.70e-03   Normal BFGS step
    4    -349.9475896802      1.16e-03   Normal BFGS step
    5    -349.9476268911      5.23e-04   Normal BFGS step
    6    -349.9476313911      2.11e-04   Normal BFGS step
    7    -349.9476320849      1.21e-04   Normal BFGS step
    8    -349.9476322989      3.51e-05   Normal BFGS step
    9    -349.9476323342      2.07e-05   Normal BFGS step
   10    -349.9476323397      8.99e-06   Normal BFGS step
   11    -349.9476323422      5.25e-06   Normal BFGS step
   12    -349.9476323425      2.02e-06   Normal BFGS step
   13    -349.9476323426      1.07e-06   Normal BFGS step
   14    -349.9476323426      4.12e-07   Normal BFGS step
   15    -349.9476323426      1.11e-07   Normal BFGS step
   16    -349.9476323426      2.52e-08   Normal BFGS step
   17    -349.9476323426      1.17e-08   Normal BFGS step
   18    -349.9476323426      3.08e-09  Convergence criterion met
 ---------------------------------------
 SCF time:   CPU 640.44s  wall 28.00s 
<S^2> =          0.753420575

************** Final PCM Free Energy Summary **************
 G_electrostatic  =      -0.08067285 hartree =     -50.62297786 kcal/mol
 G_cavitation     =       0.00000000 hartree =       0.00000000 kcal/mol
 G_dispersion     =       0.00000000 hartree =       0.00000000 kcal/mol
 G_repulsion      =       0.00000000 hartree =       0.00000000 kcal/mol
 --------------------------------------------------
 Non-electrostatic Free Energy =       0.00000000 hartree =       0.00000000 kcal/mol
 Total                         =      -0.08067285 hartree =     -50.62297786 kcal/mol
 --------------------------------------------------
 SCF Energy (H0 + V/2)                       =    -349.94763234 
 Solute Internal Energy (H0)                 =    -349.86695949 
 Total Free Energy (H0 + V/2 + non-elec)     =    -349.94763234 hartree
                                             = -219595.45364902 kcal/mol
***********************************************************

 SCF   energy in the final basis set =     -349.9476323426
 Total energy in the final basis set =     -349.9476323426
 
 --------------------------------------------------------------
 
                    Orbital Energies (a.u.)
 --------------------------------------------------------------
 
 Alpha MOs
 -- Occupied --
-19.254 -19.248 -19.188 -10.382 -10.326 -10.324  -2.029  -1.196
 -1.094  -1.074  -0.837  -0.723  -0.668  -0.595  -0.576  -0.547
 -0.508  -0.496  -0.479  -0.427  -0.424  -0.369  -0.359  -0.349
 -0.205
 -- Virtual --
  0.014   0.018   0.019   0.022   0.060   0.065   0.070   0.074
  0.075   0.077   0.084   0.097   0.119   0.135   0.142   0.148
  0.170   0.179   0.181   0.195   0.197   0.200   0.205   0.207
  0.217   0.227   0.236   0.242   0.256   0.280   0.283   0.301
  0.316   0.324   0.343   0.353   0.356   0.370   0.378   0.382
  0.388   0.392   0.404   0.430   0.437   0.448   0.456   0.477
  0.500   0.535   0.559   0.579   0.619   0.630   0.659   0.663
  0.669   0.693   0.705   0.717   0.732   0.734   0.758   0.772
  0.782   0.790   0.815   0.844   0.875   0.917   0.955   1.032
  1.064   1.098   1.162   1.182   1.190   1.232   1.272   1.278
  1.296   1.331   1.384   1.394   1.479   1.537   1.601   1.640
  1.678   1.695   1.769   1.792   1.809   1.828   1.867   1.872
  1.909   1.945   1.959   2.053   2.193   2.533   2.598   2.605
  2.659   2.756   2.871   2.914   2.997   3.005   3.020   3.036
  3.081   3.099   3.138   3.179   3.210   3.261   3.298   3.399
  3.415   3.535   3.578   3.701   3.883   3.939   3.992   4.141
  4.195   4.225   5.160   5.175   5.232   5.305   5.369   5.492
  5.509   5.810   5.977  23.677  23.818  23.834  50.040  50.070
 50.137
 
 Beta MOs
 -- Occupied --
-19.252 -19.245 -19.184 -10.373 -10.326 -10.324  -2.029  -1.188
 -1.087  -1.062  -0.834  -0.719  -0.654  -0.590  -0.572  -0.540
 -0.495  -0.489  -0.451  -0.423  -0.420  -0.357  -0.348  -0.338
 -- Virtual --
  0.017   0.022   0.023   0.024   0.054   0.066   0.070   0.074
  0.078   0.083   0.087   0.102   0.105   0.125   0.140   0.145
  0.156   0.174   0.182   0.185   0.198   0.199   0.204   0.207
  0.213   0.221   0.233   0.241   0.244   0.258   0.285   0.288
  0.302   0.318   0.330   0.347   0.357   0.361   0.372   0.384
  0.385   0.391   0.396   0.408   0.436   0.443   0.450   0.459
  0.485   0.503   0.540   0.561   0.585   0.622   0.631   0.660
  0.666   0.671   0.699   0.707   0.721   0.734   0.745   0.758
  0.776   0.783   0.793   0.817   0.844   0.878   0.921   0.958
  1.040   1.069   1.100   1.167   1.186   1.193   1.236   1.278
  1.281   1.299   1.336   1.388   1.396   1.482   1.551   1.604
  1.647   1.695   1.701   1.774   1.809   1.814   1.834   1.872
  1.876   1.917   1.954   1.966   2.069   2.194   2.533   2.598
  2.606   2.661   2.791   2.879   2.917   3.007   3.012   3.024
  3.045   3.089   3.106   3.152   3.183   3.214   3.275   3.303
  3.401   3.426   3.548   3.585   3.713   3.883   3.941   3.995
  4.148   4.197   4.231   5.167   5.182   5.247   5.312   5.374
  5.496   5.512   5.815   5.985  23.677  23.819  23.850  50.042
 50.072  50.141
 --------------------------------------------------------------
 
          Ground-State Mulliken Net Atomic Charges

     Atom                 Charge (a.u.)    Spin (a.u.)
  --------------------------------------------------------
      1 O                    -0.150919       0.018402
      2 O                    -0.137681       0.007285
      3 O                    -0.569979       0.139609
      4 C                    -0.437668      -0.091211
      5 C                    -0.441072       0.060749
      6 C                    -0.082564       0.860556
      7 H                     0.248286      -0.001477
      8 H                     0.247922       0.005885
      9 H                     0.252587      -0.000608
     10 H                     0.252216       0.001264
     11 Li                    0.818872      -0.000454
  --------------------------------------------------------
  Sum of atomic charges =    -0.000000
  Sum of spin   charges =     1.000000

 -----------------------------------------------------------------
                    Cartesian Multipole Moments
 -----------------------------------------------------------------
    Charge (ESU x 10^10)
                 0.0000
    Dipole Moment (Debye)
         X       4.1151      Y       6.7214      Z      -1.2110
       Tot       7.9735
    Quadrupole Moments (Debye-Ang)
        XX     -22.5431     XY       9.3379     YY     -30.2332
        XZ      -3.7938     YZ      -3.5516     ZZ     -37.7543
    Octopole Moments (Debye-Ang^2)
       XXX     178.4254    XXY       1.8079    XYY      96.1285
       YYY      12.2985    XXZ       5.0383    XYZ      -4.5190
       YYZ      -1.7745    XZZ      76.6027    YZZ      -0.6976
       ZZZ      16.1472
    Hexadecapole Moments (Debye-Ang^3)
      XXXX   -1101.1165   XXXY      22.0695   XXYY    -242.1585
      XYYY      31.1091   YYYY    -172.3493   XXXZ     -21.2017
      XXYZ      -6.7400   XYYZ     -12.5369   YYYZ     -16.5371
      XXZZ    -224.9943   XYZZ       4.0532   YYZZ     -41.5298
      XZZZ     -18.8733   YZZZ      -3.7721   ZZZZ     -77.1286
 -----------------------------------------------------------------
 Calculating analytic gradient of the SCF energy
 Gradient of SCF Energy
            1           2           3           4           5           6
    1  -0.0012076   0.0053406  -0.0208290  -0.0020016  -0.0013046   0.0084437
    2  -0.0015386   0.0023828  -0.0206236   0.0050238  -0.0071451   0.0005127
    3   0.0017969   0.0021070   0.0032078   0.0012029  -0.0024789  -0.0004594
            7           8           9          10          11
    1  -0.0000154  -0.0012565  -0.0001467  -0.0013191   0.0142963
    2  -0.0014326  -0.0006623   0.0036799   0.0018324   0.0179707
    3   0.0017441  -0.0037073  -0.0033612   0.0053139  -0.0053658
 Max gradient component =       2.083E-02
 RMS gradient           =       7.202E-03
 Computing fast CPCM-SWIG gradient
 Updating gradient with PCM contributions...
 -- total gradient after adding PCM contribution --
---------------------------------------------------
  Atom         X              Y              Z     
---------------------------------------------------
   1      -0.000706      -0.000375      -0.000110
   2      -0.000198       0.000207      -0.000380
   3      -0.001508      -0.001153       0.000068
   4      -0.000058      -0.000232       0.000020
   5      -0.000197       0.000053       0.000031
   6       0.001768       0.001027       0.000752
   7       0.000299      -0.000129       0.000306
   8       0.000130      -0.000137      -0.000606
   9       0.000302       0.000423      -0.000454
  10       0.000233       0.000142       0.000732
  11      -0.000066       0.000175      -0.000361
---------------------------------------------------
 Number of fixed atoms: 0
 Gradient time:  CPU 60.44 s  wall 3.65 s
 Geometry Optimization Parameters
   NAtoms,    NIC,     NZ,  NCons,   NDum,   NFix, NCnnct, MaxDiis
       11      72       0       0       0       0       0       0

 Cartesian Hessian Update
 Hessian Updated using BFGS Update


** GEOMETRY OPTIMIZATION IN DELOCALIZED INTERNAL COORDINATES **
   Searching for a Minimum

   Optimization Cycle:   3

                       Coordinates (Angstroms)
     ATOM                X               Y               Z
      1  O        -2.0897737493    1.1847741224   -0.0545074179
      2  O        -1.9900867337   -1.0825271552   -0.0399069836
      3  O        -0.0416402178    0.1189059233   -0.1354657350
      4  C        -3.4049360489    0.7212016558    0.2090005657
      5  C        -3.3571832320   -0.7567644885   -0.1831067270
      6  C        -1.2721539417    0.0688400248   -0.4557577817
      7  H        -4.1321740058    1.2896484596   -0.3748189605
      8  H        -3.6232732775    0.8512222395    1.2729811216
      9  H        -3.9462473850   -1.3981144837    0.4701968463
     10  H        -3.6766858675   -0.9049512638   -1.2206811032
     11  Li        1.0078521295    1.6553776540   -0.5043531618
   Point Group: c1    Number of degrees of freedom:    27


   Energy is   -349.947632343

 Hessian Updated using BFGS Update

 27 Hessian modes will be used to form the next step
  Hessian Eigenvalues:
     0.007526    0.014570    0.018554    0.046459    0.049304    0.056984
     0.059164    0.061326    0.065857    0.102952    0.109763    0.110950
     0.119965    0.190941    0.228680    0.244693    0.246186    0.291841
     0.338753    0.342671    0.344590    0.372742    0.380643    0.389580
     0.418998    0.449263    0.804395

 Minimum Search - Taking Simple RFO Step
 Searching for Lamda that Minimizes Along All modes
 Value Taken    Lamda =  -0.00004214
 Step Taken.  Stepsize is  0.044367

                             Maximum     Tolerance    Cnvgd?
         Gradient           0.001071      0.000300      NO
         Displacement       0.019337      0.001200      NO
         Energy change     -0.000094      0.000001      NO


 New Cartesian Coordinates Obtained by Inverse Iteration

 Displacement from previous Coordinates is:  0.059242
 ----------------------------------------------------------------
             Standard Nuclear Orientation (Angstroms)
    I     Atom           X                Y                Z
 ----------------------------------------------------------------
    1      O      -2.0872859314     1.1836589997    -0.0575663154
    2      O      -1.9889425717    -1.0830790975    -0.0425936420
    3      O      -0.0416462655     0.1191753898    -0.1496795318
    4      C      -3.4030868355     0.7224157095     0.2079257201
    5      C      -3.3568809367    -0.7574031636    -0.1807579722
    6      C      -1.2737725106     0.0671691766    -0.4655526783
    7      H      -4.1304965459     1.2899163948    -0.3774524001
    8      H      -3.6207805881     0.8559851117     1.2721484273
    9      H      -3.9431707709    -1.3972904979     0.4774420807
   10      H      -3.6813634737    -0.9086291828    -1.2170981425
   11      Li      1.0011241002     1.6556938479    -0.4832348829
 ----------------------------------------------------------------
 Nuclear Repulsion Energy =   265.0531115171 hartrees
 There are       25 alpha and       24 beta electrons
 Discretize the solute cavity surface with Lebedev spheres
	Using 194 Lebedev grid points for each H atom
	Using 194 Lebedev grid points for other atoms
	Atomic van der Waals radii will be scaled by 1.10
 Remove points where switching function is < 1.0e-08
 Keep 1049 surface tesserae and discard 1085 interior tesserae
 Molecular Surface Area = 139.193 Angst**2
 Nucleus-field energy     =     0.0000000012 hartrees
 Requested basis set is 6-311++G(d)
 There are 58 shells and 170 basis functions
 A cutoff of  1.0D-12 yielded   1669 shell pairs
 There are     14617 function pairs (     15864 Cartesian)
 Smallest overlap matrix eigenvalue = 6.04E-05
 Guess MOs from SCF MO coefficient file
 Reading MOs from coefficient file
 Reading MOs from coefficient file

 -----------------------------------------------------------------------
  General SCF calculation program by
  Eric Jon Sundstrom, Paul Horn, Yuezhi Mao, Dmitri Zuev, Alec White,
  David Stuck, Shaama M.S., Shane Yost, Joonho Lee, David Small,
  Daniel Levine, Susi Lehtola, Hugh Burton, Evgeny Epifanovsky
 -----------------------------------------------------------------------
 Exchange:     0.2220 Hartree-Fock + 1.0000 wB97X-D + LR-HF
 Correlation:  1.0000 wB97X-D
 Using SG-3 standard quadrature grid
 Dispersion:   Grimme D
 using 32 threads for integral computing
 -------------------------------------------------------
 OpenMP Integral computing Module                
 Release: version 1.0, May 2013, Q-Chem Inc. Pittsburgh 
 -------------------------------------------------------
 using 32 threads for integral computing
 -------------------------------------------------------
 OpenMP Integral computing Module                
 Release: version 1.0, May 2013, Q-Chem Inc. Pittsburgh 
 -------------------------------------------------------
 -------------------------------------------------------
 OpenMP BLAS3 based DFT computing Module                
 Release: version 1.0, May 2013, Q-Chem Inc. Pittsburgh 
 -------------------------------------------------------
 A unrestricted SCF calculation will be
 performed using Roothaan-Hall, GDM
 SCF converges when RMS gradient is below 1.0e-08
 ---------------------------------------
  Cycle       Energy         DIIS error
 ---------------------------------------
    1    -348.8773739634      4.39e-04  Roothaan Step
 ---------------------------------------
  Cycle       Energy        RMS Gradient
 ---------------------------------------
    1    -349.9421290816      1.08e-02   Normal BFGS step
    2    -349.9460538235      7.17e-03   Normal BFGS step
    3    -349.9474115296      2.70e-03   Normal BFGS step
    4    -349.9476197084      1.17e-03   Normal BFGS step
    5    -349.9476571205      4.98e-04   Normal BFGS step
    6    -349.9476615692      2.02e-04   Normal BFGS step
    7    -349.9476622397      1.27e-04   Normal BFGS step
    8    -349.9476624495      3.45e-05   Normal BFGS step
    9    -349.9476624841      2.23e-05   Normal BFGS step
   10    -349.9476624896      8.35e-06   Normal BFGS step
   11    -349.9476624921      5.15e-06   Normal BFGS step
   12    -349.9476624923      1.95e-06   Normal BFGS step
   13    -349.9476624924      1.04e-06   Normal BFGS step
   14    -349.9476624924      4.00e-07   Normal BFGS step
   15    -349.9476624924      1.04e-07   Normal BFGS step
   16    -349.9476624924      2.32e-08   Normal BFGS step
   17    -349.9476624924      1.04e-08   Normal BFGS step
   18    -349.9476624924      2.25e-09  Convergence criterion met
 ---------------------------------------
 SCF time:   CPU 638.35s  wall 28.00s 
<S^2> =          0.753416786

************** Final PCM Free Energy Summary **************
 G_electrostatic  =      -0.08007459 hartree =     -50.24756451 kcal/mol
 G_cavitation     =       0.00000000 hartree =       0.00000000 kcal/mol
 G_dispersion     =       0.00000000 hartree =       0.00000000 kcal/mol
 G_repulsion      =       0.00000000 hartree =       0.00000000 kcal/mol
 --------------------------------------------------
 Non-electrostatic Free Energy =       0.00000000 hartree =       0.00000000 kcal/mol
 Total                         =      -0.08007459 hartree =     -50.24756451 kcal/mol
 --------------------------------------------------
 SCF Energy (H0 + V/2)                       =    -349.94766249 
 Solute Internal Energy (H0)                 =    -349.86758790 
 Total Free Energy (H0 + V/2 + non-elec)     =    -349.94766249 hartree
                                             = -219595.47256832 kcal/mol
***********************************************************

 SCF   energy in the final basis set =     -349.9476624924
 Total energy in the final basis set =     -349.9476624924
 
 --------------------------------------------------------------
 
                    Orbital Energies (a.u.)
 --------------------------------------------------------------
 
 Alpha MOs
 -- Occupied --
-19.254 -19.248 -19.188 -10.383 -10.326 -10.324  -2.028  -1.196
 -1.094  -1.074  -0.837  -0.722  -0.668  -0.595  -0.576  -0.547
 -0.508  -0.496  -0.478  -0.427  -0.424  -0.369  -0.359  -0.349
 -0.205
 -- Virtual --
  0.014   0.018   0.019   0.022   0.060   0.066   0.070   0.074
  0.075   0.077   0.084   0.097   0.119   0.135   0.142   0.148
  0.170   0.179   0.181   0.195   0.197   0.200   0.205   0.207
  0.217   0.227   0.236   0.242   0.255   0.279   0.283   0.301
  0.316   0.324   0.343   0.353   0.356   0.371   0.378   0.382
  0.388   0.392   0.405   0.430   0.437   0.448   0.456   0.477
  0.500   0.535   0.560   0.579   0.619   0.630   0.659   0.664
  0.670   0.693   0.706   0.717   0.733   0.734   0.759   0.771
  0.781   0.789   0.816   0.844   0.875   0.916   0.955   1.033
  1.064   1.098   1.162   1.183   1.191   1.232   1.272   1.278
  1.296   1.332   1.385   1.393   1.480   1.537   1.601   1.640
  1.678   1.695   1.770   1.792   1.809   1.828   1.866   1.872
  1.909   1.946   1.960   2.053   2.192   2.532   2.598   2.605
  2.658   2.755   2.870   2.913   2.998   3.004   3.019   3.036
  3.081   3.099   3.137   3.177   3.209   3.261   3.298   3.398
  3.415   3.535   3.578   3.700   3.882   3.938   3.992   4.141
  4.194   4.226   5.159   5.176   5.232   5.305   5.370   5.492
  5.508   5.809   5.977  23.676  23.817  23.833  50.040  50.070
 50.137
 
 Beta MOs
 -- Occupied --
-19.252 -19.245 -19.184 -10.373 -10.326 -10.324  -2.028  -1.188
 -1.087  -1.062  -0.833  -0.719  -0.654  -0.589  -0.572  -0.541
 -0.495  -0.489  -0.451  -0.423  -0.420  -0.357  -0.348  -0.338
 -- Virtual --
  0.017   0.022   0.023   0.024   0.054   0.066   0.070   0.074
  0.078   0.083   0.087   0.102   0.105   0.125   0.139   0.146
  0.156   0.174   0.182   0.185   0.198   0.199   0.204   0.207
  0.213   0.221   0.233   0.240   0.244   0.258   0.285   0.288
  0.302   0.317   0.330   0.347   0.357   0.362   0.372   0.383
  0.385   0.391   0.396   0.409   0.436   0.443   0.450   0.460
  0.485   0.502   0.540   0.561   0.585   0.622   0.632   0.661
  0.666   0.671   0.699   0.708   0.720   0.734   0.745   0.759
  0.775   0.782   0.793   0.817   0.844   0.878   0.920   0.958
  1.040   1.069   1.101   1.167   1.186   1.194   1.236   1.278
  1.282   1.299   1.337   1.389   1.396   1.482   1.551   1.604
  1.647   1.695   1.701   1.775   1.808   1.815   1.835   1.872
  1.876   1.917   1.955   1.967   2.069   2.193   2.533   2.598
  2.606   2.660   2.791   2.878   2.916   3.008   3.011   3.023
  3.045   3.089   3.106   3.151   3.182   3.214   3.274   3.303
  3.400   3.425   3.548   3.585   3.712   3.883   3.941   3.995
  4.148   4.196   4.233   5.167   5.183   5.248   5.312   5.374
  5.496   5.511   5.814   5.984  23.676  23.818  23.850  50.042
 50.073  50.141
 --------------------------------------------------------------
 
          Ground-State Mulliken Net Atomic Charges

     Atom                 Charge (a.u.)    Spin (a.u.)
  --------------------------------------------------------
      1 O                    -0.151295       0.019385
      2 O                    -0.137403       0.007672
      3 O                    -0.567710       0.140426
      4 C                    -0.438167      -0.090272
      5 C                    -0.442453       0.059977
      6 C                    -0.078642       0.858058
      7 H                     0.248004      -0.001295
      8 H                     0.248047       0.005727
      9 H                     0.252264      -0.000470
     10 H                     0.252502       0.001103
     11 Li                    0.814854      -0.000312
  --------------------------------------------------------
  Sum of atomic charges =     0.000000
  Sum of spin   charges =     1.000000

 -----------------------------------------------------------------
                    Cartesian Multipole Moments
 -----------------------------------------------------------------
    Charge (ESU x 10^10)
                -0.0000
    Dipole Moment (Debye)
         X       4.0712      Y       6.7213      Z      -1.0621
       Tot       7.9296
    Quadrupole Moments (Debye-Ang)
        XX     -22.5896     XY       9.2773     YY     -30.2115
        XZ      -3.6872     YZ      -3.3799     ZZ     -37.8514
    Octopole Moments (Debye-Ang^2)
       XXX     178.2853    XXY       1.7446    XYY      95.9920
       YYY      12.3804    XXZ       5.3932    XYZ      -4.3189
       YYZ      -1.3060    XZZ      76.4544    YZZ      -0.8473
       ZZZ      16.7342
    Hexadecapole Moments (Debye-Ang^3)
      XXXX   -1100.7382   XXXY      21.7478   XXYY    -242.1455
      XYYY      30.8083   YYYY    -172.3278   XXXZ     -21.5677
      XXYZ      -6.4995   XYYZ     -12.4074   YYYZ     -16.0311
      XXZZ    -224.9650   XYZZ       3.8480   YYZZ     -41.8209
      XZZZ     -19.2241   YZZZ      -3.6120   ZZZZ     -77.5357
 -----------------------------------------------------------------
 Calculating analytic gradient of the SCF energy
 Gradient of SCF Energy
            1           2           3           4           5           6
    1  -0.0008511   0.0055746  -0.0201585  -0.0018580  -0.0010481   0.0078924
    2  -0.0015621   0.0023438  -0.0198639   0.0050765  -0.0070170   0.0002721
    3   0.0020481   0.0023453   0.0031969   0.0011244  -0.0024579  -0.0015414
            7           8           9          10          11
    1  -0.0002126  -0.0013457  -0.0003664  -0.0014476   0.0138209
    2  -0.0012673  -0.0005841   0.0034275   0.0017621   0.0174124
    3   0.0015867  -0.0032388  -0.0030636   0.0048437  -0.0048433
 Max gradient component =       2.016E-02
 RMS gradient           =       6.956E-03
 Computing fast CPCM-SWIG gradient
 Updating gradient with PCM contributions...
 -- total gradient after adding PCM contribution --
---------------------------------------------------
  Atom         X              Y              Z     
---------------------------------------------------
   1      -0.000270      -0.000356       0.000177
   2       0.000069       0.000200      -0.000050
   3      -0.000882      -0.000297       0.000502
   4      -0.000029      -0.000126       0.000043
   5       0.000065       0.000168      -0.000003
   6       0.001193       0.000617      -0.000415
   7       0.000120       0.000015       0.000147
   8       0.000026      -0.000074      -0.000228
   9       0.000101       0.000201      -0.000185
  10       0.000089       0.000059       0.000271
  11      -0.000481      -0.000407      -0.000259
---------------------------------------------------
 Number of fixed atoms: 0
 Gradient time:  CPU 59.92 s  wall 3.57 s
 Geometry Optimization Parameters
   NAtoms,    NIC,     NZ,  NCons,   NDum,   NFix, NCnnct, MaxDiis
       11      72       0       0       0       0       0       0

 Cartesian Hessian Update
 Hessian Updated using BFGS Update


** GEOMETRY OPTIMIZATION IN DELOCALIZED INTERNAL COORDINATES **
   Searching for a Minimum

   Optimization Cycle:   4

                       Coordinates (Angstroms)
     ATOM                X               Y               Z
      1  O        -2.0872859314    1.1836589997   -0.0575663154
      2  O        -1.9889425717   -1.0830790975   -0.0425936420
      3  O        -0.0416462655    0.1191753898   -0.1496795318
      4  C        -3.4030868355    0.7224157095    0.2079257201
      5  C        -3.3568809367   -0.7574031636   -0.1807579722
      6  C        -1.2737725106    0.0671691766   -0.4655526783
      7  H        -4.1304965459    1.2899163948   -0.3774524001
      8  H        -3.6207805881    0.8559851117    1.2721484273
      9  H        -3.9431707709   -1.3972904979    0.4774420807
     10  H        -3.6813634737   -0.9086291828   -1.2170981425
     11  Li        1.0011241002    1.6556938479   -0.4832348829
   Point Group: c1    Number of degrees of freedom:    27


   Energy is   -349.947662492

 Hessian Updated using BFGS Update

 27 Hessian modes will be used to form the next step
  Hessian Eigenvalues:
     0.004961    0.010866    0.016146    0.047762    0.050097    0.057380
     0.060435    0.065165    0.088671    0.102891    0.109743    0.110908
     0.122998    0.190428    0.218296    0.232155    0.248309    0.291332
     0.338758    0.342684    0.344780    0.377125    0.380860    0.388174
     0.419417    0.435720    0.733218

 Minimum Search - Taking Simple RFO Step
 Searching for Lamda that Minimizes Along All modes
 Value Taken    Lamda =  -0.00006557
 Step Taken.  Stepsize is  0.092497

                             Maximum     Tolerance    Cnvgd?
         Gradient           0.001111      0.000300      NO
         Displacement       0.042024      0.001200      NO
         Energy change     -0.000030      0.000001      NO


 New Cartesian Coordinates Obtained by Inverse Iteration

 Displacement from previous Coordinates is:  0.121698
 ----------------------------------------------------------------
             Standard Nuclear Orientation (Angstroms)
    I     Atom           X                Y                Z
 ----------------------------------------------------------------
    1      O      -2.0839235067     1.1825746382    -0.0632763557
    2      O      -1.9878649375    -1.0851983982    -0.0491141099
    3      O      -0.0395238273     0.1189285245    -0.1830213870
    4      C      -3.4006799109     0.7245372062     0.2054613097
    5      C      -3.3575663976    -0.7593493161    -0.1754766852
    6      C      -1.2776673916     0.0646394274    -0.4814455344
    7      H      -4.1286660204     1.2888505155    -0.3835998849
    8      H      -3.6172537343     0.8658441363     1.2697557659
    9      H      -3.9375548347    -1.3964142171     0.4925928673
   10      H      -3.6928291827    -0.9163488835    -1.2086950076
   11      Li      0.9972274139     1.6595490551    -0.4396003151
 ----------------------------------------------------------------
 Nuclear Repulsion Energy =   264.9665657256 hartrees
 There are       25 alpha and       24 beta electrons
 Discretize the solute cavity surface with Lebedev spheres
	Using 194 Lebedev grid points for each H atom
	Using 194 Lebedev grid points for other atoms
	Atomic van der Waals radii will be scaled by 1.10
 Remove points where switching function is < 1.0e-08
 Keep 1046 surface tesserae and discard 1088 interior tesserae
 Molecular Surface Area = 139.258 Angst**2
 Nucleus-field energy     =     0.0000000012 hartrees
 Requested basis set is 6-311++G(d)
 There are 58 shells and 170 basis functions
 A cutoff of  1.0D-12 yielded   1669 shell pairs
 There are     14617 function pairs (     15864 Cartesian)
 Smallest overlap matrix eigenvalue = 6.08E-05
 Guess MOs from SCF MO coefficient file
 Reading MOs from coefficient file
 Reading MOs from coefficient file

 -----------------------------------------------------------------------
  General SCF calculation program by
  Eric Jon Sundstrom, Paul Horn, Yuezhi Mao, Dmitri Zuev, Alec White,
  David Stuck, Shaama M.S., Shane Yost, Joonho Lee, David Small,
  Daniel Levine, Susi Lehtola, Hugh Burton, Evgeny Epifanovsky
 -----------------------------------------------------------------------
 Exchange:     0.2220 Hartree-Fock + 1.0000 wB97X-D + LR-HF
 Correlation:  1.0000 wB97X-D
 Using SG-3 standard quadrature grid
 Dispersion:   Grimme D
 using 32 threads for integral computing
 -------------------------------------------------------
 OpenMP Integral computing Module                
 Release: version 1.0, May 2013, Q-Chem Inc. Pittsburgh 
 -------------------------------------------------------
 using 32 threads for integral computing
 -------------------------------------------------------
 OpenMP Integral computing Module                
 Release: version 1.0, May 2013, Q-Chem Inc. Pittsburgh 
 -------------------------------------------------------
 -------------------------------------------------------
 OpenMP BLAS3 based DFT computing Module                
 Release: version 1.0, May 2013, Q-Chem Inc. Pittsburgh 
 -------------------------------------------------------
 A unrestricted SCF calculation will be
 performed using Roothaan-Hall, GDM
 SCF converges when RMS gradient is below 1.0e-08
 ---------------------------------------
  Cycle       Energy         DIIS error
 ---------------------------------------
    1    -348.8867749061      4.51e-04  Roothaan Step
 ---------------------------------------
  Cycle       Energy        RMS Gradient
 ---------------------------------------
    1    -349.9421513297      1.08e-02   Normal BFGS step
    2    -349.9460869841      7.23e-03   Normal BFGS step
    3    -349.9474632838      2.74e-03   Normal BFGS step
    4    -349.9476691160      1.20e-03   Normal BFGS step
    5    -349.9477084714      5.00e-04   Normal BFGS step
    6    -349.9477129049      1.95e-04   Normal BFGS step
    7    -349.9477135734      1.28e-04   Normal BFGS step
    8    -349.9477137804      3.98e-05   Normal BFGS step
    9    -349.9477138178      2.28e-05   Normal BFGS step
   10    -349.9477138237      8.94e-06   Normal BFGS step
   11    -349.9477138263      5.12e-06   Normal BFGS step
   12    -349.9477138266      1.97e-06   Normal BFGS step
   13    -349.9477138267      9.52e-07   Normal BFGS step
   14    -349.9477138267      4.02e-07   Normal BFGS step
   15    -349.9477138267      9.23e-08   Normal BFGS step
   16    -349.9477138267      2.25e-08   Normal BFGS step
   17    -349.9477138267      9.50e-09  Convergence criterion met
 ---------------------------------------
 SCF time:   CPU 603.54s  wall 27.00s 
<S^2> =          0.753410852

************** Final PCM Free Energy Summary **************
 G_electrostatic  =      -0.07939651 hartree =     -49.82206371 kcal/mol
 G_cavitation     =       0.00000000 hartree =       0.00000000 kcal/mol
 G_dispersion     =       0.00000000 hartree =       0.00000000 kcal/mol
 G_repulsion      =       0.00000000 hartree =       0.00000000 kcal/mol
 --------------------------------------------------
 Non-electrostatic Free Energy =       0.00000000 hartree =       0.00000000 kcal/mol
 Total                         =      -0.07939651 hartree =     -49.82206371 kcal/mol
 --------------------------------------------------
 SCF Energy (H0 + V/2)                       =    -349.94771383 
 Solute Internal Energy (H0)                 =    -349.86831731 
 Total Free Energy (H0 + V/2 + non-elec)     =    -349.94771383 hartree
                                             = -219595.50478106 kcal/mol
***********************************************************

 SCF   energy in the final basis set =     -349.9477138267
 Total energy in the final basis set =     -349.9477138267
 
 --------------------------------------------------------------
 
                    Orbital Energies (a.u.)
 --------------------------------------------------------------
 
 Alpha MOs
 -- Occupied --
-19.255 -19.249 -19.188 -10.383 -10.327 -10.325  -2.028  -1.196
 -1.095  -1.073  -0.837  -0.722  -0.668  -0.594  -0.576  -0.547
 -0.508  -0.496  -0.478  -0.428  -0.424  -0.369  -0.359  -0.350
 -0.206
 -- Virtual --
  0.014   0.018   0.019   0.022   0.060   0.066   0.070   0.074
  0.075   0.077   0.084   0.097   0.119   0.135   0.143   0.148
  0.170   0.179   0.181   0.195   0.197   0.201   0.205   0.207
  0.218   0.227   0.236   0.241   0.255   0.278   0.283   0.301
  0.314   0.323   0.343   0.353   0.356   0.373   0.377   0.381
  0.388   0.393   0.405   0.429   0.436   0.448   0.456   0.477
  0.498   0.533   0.561   0.578   0.621   0.631   0.659   0.664
  0.670   0.692   0.709   0.715   0.733   0.734   0.760   0.770
  0.781   0.789   0.816   0.844   0.876   0.912   0.954   1.034
  1.064   1.098   1.162   1.183   1.193   1.232   1.271   1.279
  1.297   1.333   1.386   1.391   1.480   1.536   1.601   1.640
  1.678   1.694   1.770   1.791   1.810   1.828   1.864   1.872
  1.909   1.947   1.959   2.052   2.191   2.531   2.598   2.604
  2.657   2.753   2.869   2.910   2.999   3.004   3.018   3.036
  3.081   3.099   3.135   3.175   3.208   3.259   3.296   3.395
  3.413   3.533   3.577   3.698   3.879   3.938   3.992   4.140
  4.193   4.228   5.158   5.178   5.232   5.304   5.369   5.491
  5.506   5.808   5.975  23.676  23.814  23.831  50.038  50.070
 50.137
 
 Beta MOs
 -- Occupied --
-19.252 -19.246 -19.184 -10.373 -10.327 -10.325  -2.028  -1.188
 -1.088  -1.062  -0.833  -0.719  -0.655  -0.589  -0.572  -0.541
 -0.495  -0.490  -0.451  -0.423  -0.420  -0.357  -0.348  -0.338
 -- Virtual --
  0.017   0.022   0.023   0.024   0.054   0.066   0.070   0.074
  0.078   0.084   0.087   0.102   0.105   0.125   0.139   0.146
  0.156   0.173   0.182   0.185   0.198   0.199   0.204   0.207
  0.213   0.221   0.233   0.240   0.243   0.258   0.285   0.287
  0.302   0.316   0.329   0.347   0.357   0.362   0.374   0.383
  0.385   0.390   0.396   0.409   0.436   0.443   0.449   0.460
  0.485   0.501   0.539   0.562   0.584   0.624   0.633   0.661
  0.666   0.671   0.697   0.711   0.719   0.735   0.745   0.761
  0.774   0.782   0.792   0.818   0.844   0.879   0.917   0.957
  1.041   1.069   1.100   1.167   1.187   1.196   1.236   1.277
  1.283   1.300   1.338   1.390   1.394   1.482   1.550   1.604
  1.647   1.693   1.701   1.775   1.806   1.815   1.835   1.870
  1.876   1.916   1.957   1.966   2.068   2.192   2.532   2.598
  2.605   2.659   2.789   2.877   2.914   3.008   3.010   3.021
  3.046   3.089   3.105   3.149   3.180   3.212   3.273   3.302
  3.397   3.424   3.546   3.584   3.710   3.880   3.940   3.994
  4.147   4.195   4.235   5.166   5.185   5.247   5.311   5.374
  5.495   5.509   5.813   5.983  23.676  23.815  23.847  50.041
 50.073  50.141
 --------------------------------------------------------------
 
          Ground-State Mulliken Net Atomic Charges

     Atom                 Charge (a.u.)    Spin (a.u.)
  --------------------------------------------------------
      1 O                    -0.150970       0.020692
      2 O                    -0.136070       0.007193
      3 O                    -0.565906       0.141016
      4 C                    -0.435520      -0.089533
      5 C                    -0.447876       0.058695
      6 C                    -0.076490       0.856138
      7 H                     0.247663      -0.001077
      8 H                     0.248207       0.005499
      9 H                     0.251564      -0.000182
     10 H                     0.253256       0.000961
     11 Li                    0.812143       0.000599
  --------------------------------------------------------
  Sum of atomic charges =    -0.000000
  Sum of spin   charges =     1.000000

 -----------------------------------------------------------------
                    Cartesian Multipole Moments
 -----------------------------------------------------------------
    Charge (ESU x 10^10)
                -0.0000
    Dipole Moment (Debye)
         X       4.0224      Y       6.7442      Z      -0.7299
       Tot       7.8865
    Quadrupole Moments (Debye-Ang)
        XX     -22.5828     XY       9.2440     YY     -30.1302
        XZ      -3.5108     YZ      -3.0339     ZZ     -38.0788
    Octopole Moments (Debye-Ang^2)
       XXX     178.0773    XXY       1.7799    XYY      95.9252
       YYY      12.6826    XXZ       6.0915    XYZ      -3.9435
       YYZ      -0.3562    XZZ      76.2352    YZZ      -1.1308
       ZZZ      17.9815
    Hexadecapole Moments (Debye-Ang^3)
      XXXX   -1100.2400   XXXY      21.3226   XXYY    -242.0636
      XYYY      30.5061   YYYY    -172.2835   XXXZ     -22.2950
      XXYZ      -6.1271   XYYZ     -12.1996   YYYZ     -15.0556
      XXZZ    -225.1790   XYZZ       3.4456   YYZZ     -42.4604
      XZZZ     -19.9802   YZZZ      -3.3205   ZZZZ     -78.5466
 -----------------------------------------------------------------
 Calculating analytic gradient of the SCF energy
 Gradient of SCF Energy
            1           2           3           4           5           6
    1  -0.0006578   0.0055679  -0.0178584  -0.0015906  -0.0008840   0.0064446
    2  -0.0009700   0.0017040  -0.0188993   0.0053131  -0.0071036  -0.0000241
    3   0.0020521   0.0022365   0.0023887   0.0007689  -0.0024094  -0.0016830
            7           8           9          10          11
    1  -0.0005847  -0.0013994  -0.0007225  -0.0016843   0.0133693
    2  -0.0010771  -0.0004251   0.0029492   0.0016956   0.0168373
    3   0.0013578  -0.0024434  -0.0025974   0.0041606  -0.0038315
 Max gradient component =       1.890E-02
 RMS gradient           =       6.482E-03
 Computing fast CPCM-SWIG gradient
 Updating gradient with PCM contributions...
 -- total gradient after adding PCM contribution --
---------------------------------------------------
  Atom         X              Y              Z     
---------------------------------------------------
   1       0.000008       0.000305       0.000208
   2       0.000100      -0.000370      -0.000109
   3       0.001581       0.000924       0.000622
   4       0.000046       0.000174      -0.000147
   5       0.000242       0.000112       0.000041
   6      -0.000374      -0.000027      -0.000456
   7      -0.000221       0.000178      -0.000111
   8      -0.000061       0.000065       0.000386
   9      -0.000223      -0.000227       0.000228
  10      -0.000174      -0.000038      -0.000444
  11      -0.000925      -0.001095      -0.000216
---------------------------------------------------
 Number of fixed atoms: 0
 Gradient time:  CPU 60.08 s  wall 3.55 s
 Geometry Optimization Parameters
[...]
 Release: version 1.0, May 2013, Q-Chem Inc. Pittsburgh 
 -------------------------------------------------------
 A unrestricted SCF calculation will be
 performed using Roothaan-Hall, GDM
 SCF converges when RMS gradient is below 1.0e-08
 ---------------------------------------
  Cycle       Energy         DIIS error
 ---------------------------------------
    1    -348.9138849164      4.35e-04  Roothaan Step
 ---------------------------------------
  Cycle       Energy        RMS Gradient
 ---------------------------------------
    1    -349.9422437210      1.20e-02   Normal BFGS step
    2    -349.9462201334      7.84e-03   Normal BFGS step
    3    -349.9476663614      2.60e-03   Normal BFGS step
    4    -349.9478689927      1.23e-03   Normal BFGS step
    5    -349.9479139558      6.01e-04   Normal BFGS step
    6    -349.9479189903      2.81e-04   Normal BFGS step
    7    -349.9479198841      1.58e-04   Normal BFGS step
    8    -349.9479201624      4.97e-05   Normal BFGS step
    9    -349.9479202239      2.35e-05   Normal BFGS step
   10    -349.9479202330      1.06e-05   Normal BFGS step
   11    -349.9479202364      5.35e-06   Normal BFGS step
   12    -349.9479202367      2.03e-06   Normal BFGS step
   13    -349.9479202369      9.55e-07   Normal BFGS step
   14    -349.9479202369      4.00e-07   Normal BFGS step
   15    -349.9479202369      6.93e-08   Normal BFGS step
   16    -349.9479202369      2.91e-08   Normal BFGS step
   17    -349.9479202369      7.50e-09  Convergence criterion met
 ---------------------------------------
 SCF time:   CPU 610.94s  wall 27.00s 
<S^2> =          0.753402186

************** Final PCM Free Energy Summary **************
 G_electrostatic  =      -0.07971551 hartree =     -50.02223528 kcal/mol
 G_cavitation     =       0.00000000 hartree =       0.00000000 kcal/mol
 G_dispersion     =       0.00000000 hartree =       0.00000000 kcal/mol
 G_repulsion      =       0.00000000 hartree =       0.00000000 kcal/mol
 --------------------------------------------------
 Non-electrostatic Free Energy =       0.00000000 hartree =       0.00000000 kcal/mol
 Total                         =      -0.07971551 hartree =     -50.02223528 kcal/mol
 --------------------------------------------------
 SCF Energy (H0 + V/2)                       =    -349.94792024 
 Solute Internal Energy (H0)                 =    -349.86820473 
 Total Free Energy (H0 + V/2 + non-elec)     =    -349.94792024 hartree
                                             = -219595.63430541 kcal/mol
***********************************************************

 SCF   energy in the final basis set =     -349.9479202369
 Total energy in the final basis set =     -349.9479202369
 
 --------------------------------------------------------------
 
                    Orbital Energies (a.u.)
 --------------------------------------------------------------
 
 Alpha MOs
 -- Occupied --
-19.254 -19.249 -19.188 -10.383 -10.326 -10.325  -2.028  -1.196
 -1.094  -1.073  -0.837  -0.722  -0.668  -0.595  -0.576  -0.547
 -0.509  -0.496  -0.478  -0.427  -0.424  -0.367  -0.359  -0.350
 -0.205
 -- Virtual --
  0.013   0.018   0.019   0.022   0.060   0.066   0.070   0.075
  0.075   0.077   0.084   0.098   0.119   0.133   0.142   0.146
  0.168   0.178   0.182   0.195   0.197   0.202   0.205   0.207
  0.219   0.224   0.235   0.241   0.256   0.275   0.284   0.298
  0.309   0.324   0.343   0.352   0.359   0.371   0.373   0.383
  0.393   0.398   0.408   0.429   0.437   0.444   0.458   0.473
  0.489   0.523   0.564   0.577   0.626   0.641   0.654   0.664
  0.666   0.689   0.705   0.720   0.731   0.750   0.764   0.769
  0.779   0.787   0.817   0.848   0.881   0.893   0.944   1.036
  1.058   1.097   1.166   1.184   1.197   1.234   1.269   1.280
  1.299   1.336   1.384   1.392   1.477   1.532   1.599   1.640
  1.680   1.695   1.768   1.788   1.812   1.830   1.863   1.872
  1.908   1.956   1.959   2.054   2.189   2.532   2.597   2.605
  2.656   2.750   2.863   2.911   2.995   3.008   3.018   3.039
  3.084   3.103   3.124   3.176   3.209   3.258   3.298   3.398
  3.415   3.536   3.580   3.702   3.861   3.936   3.995   4.139
  4.191   4.233   5.159   5.183   5.231   5.300   5.370   5.491
  5.505   5.805   5.973  23.674  23.816  23.834  50.037  50.070
 50.138
 
 Beta MOs
 -- Occupied --
-19.252 -19.246 -19.184 -10.373 -10.326 -10.325  -2.028  -1.188
 -1.087  -1.062  -0.833  -0.719  -0.654  -0.589  -0.572  -0.540
 -0.496  -0.490  -0.450  -0.423  -0.421  -0.356  -0.348  -0.338
 -- Virtual --
  0.017   0.021   0.023   0.024   0.054   0.066   0.070   0.074
  0.078   0.084   0.087   0.102   0.105   0.125   0.138   0.147
  0.155   0.172   0.181   0.185   0.197   0.199   0.204   0.209
  0.213   0.223   0.232   0.238   0.243   0.258   0.282   0.288
  0.301   0.312   0.329   0.347   0.357   0.364   0.372   0.380
  0.387   0.395   0.400   0.413   0.435   0.443   0.446   0.462
  0.481   0.490   0.530   0.565   0.583   0.628   0.642   0.656
  0.666   0.668   0.693   0.707   0.725   0.740   0.758   0.766
  0.770   0.779   0.789   0.819   0.850   0.885   0.896   0.947
  1.043   1.063   1.100   1.171   1.188   1.200   1.239   1.275
  1.284   1.302   1.341   1.388   1.395   1.480   1.545   1.603
  1.647   1.695   1.702   1.772   1.802   1.820   1.835   1.869
  1.876   1.915   1.965   1.967   2.070   2.190   2.532   2.598
  2.605   2.659   2.785   2.871   2.914   3.004   3.016   3.021
  3.049   3.090   3.111   3.138   3.181   3.214   3.273   3.302
  3.401   3.425   3.549   3.587   3.714   3.862   3.938   3.997
  4.146   4.193   4.240   5.167   5.190   5.247   5.305   5.375
  5.495   5.508   5.811   5.981  23.675  23.817  23.850  50.040
 50.072  50.142
 --------------------------------------------------------------
 
          Ground-State Mulliken Net Atomic Charges

     Atom                 Charge (a.u.)    Spin (a.u.)
  --------------------------------------------------------
      1 O                    -0.154228       0.022774
      2 O                    -0.136562       0.004479
      3 O                    -0.570573       0.143793
      4 C                    -0.422813      -0.084635
      5 C                    -0.476897       0.044303
      6 C                    -0.076648       0.857563
      7 H                     0.247592      -0.001608
      8 H                     0.249226       0.005736
      9 H                     0.249067      -0.000785
     10 H                     0.254605       0.002749
     11 Li                    0.837231       0.005630
  --------------------------------------------------------
  Sum of atomic charges =    -0.000000
  Sum of spin   charges =     1.000000

 -----------------------------------------------------------------
                    Cartesian Multipole Moments
 -----------------------------------------------------------------
    Charge (ESU x 10^10)
                -0.0000
    Dipole Moment (Debye)
         X       3.9409      Y       7.0057      Z       1.0729
       Tot       8.1094
    Quadrupole Moments (Debye-Ang)
        XX     -23.1078     XY       9.0595     YY     -29.5666
        XZ      -2.7799     YZ      -0.9281     ZZ     -39.1599
    Octopole Moments (Debye-Ang^2)
       XXX     178.5729    XXY       1.8761    XYY      96.0597
       YYY      15.0781    XXZ      10.2339    XYZ      -2.2955
       YYZ       5.2626    XZZ      75.9330    YZZ      -2.0721
       ZZZ      24.9484
    Hexadecapole Moments (Debye-Ang^3)
      XXXX   -1100.6175   XXXY      18.9496   XXYY    -242.2541
      XYYY      29.4317   YYYY    -169.7714   XXXZ     -28.5717
      XXYZ      -3.0679   XYYZ     -12.2080   YYYZ      -7.7277
      XXZZ    -227.6157   XYZZ       2.0957   YYZZ     -45.4941
      XZZZ     -27.0021   YZZZ      -1.1519   ZZZZ     -86.2825
 -----------------------------------------------------------------
 Calculating analytic gradient of the SCF energy
 Gradient of SCF Energy
            1           2           3           4           5           6
    1  -0.0014361   0.0048983  -0.0201555  -0.0009870  -0.0013629   0.0079737
    2  -0.0015839   0.0013757  -0.0203401   0.0048807  -0.0075893   0.0012337
    3   0.0012471   0.0019322  -0.0029098   0.0002189  -0.0028184  -0.0008306
            7           8           9          10          11
    1  -0.0004202  -0.0011210  -0.0005937  -0.0013388   0.0145433
    2  -0.0011434  -0.0002952   0.0030207   0.0019849   0.0184561
    3   0.0017706  -0.0019875  -0.0026600   0.0050076   0.0010297
 Max gradient component =       2.034E-02
 RMS gradient           =       7.034E-03
 Computing fast CPCM-SWIG gradient
 Updating gradient with PCM contributions...
 -- total gradient after adding PCM contribution --
---------------------------------------------------
  Atom         X              Y              Z     
---------------------------------------------------
   1       0.000010      -0.000054      -0.000038
   2      -0.000005       0.000028      -0.000015
   3      -0.000263       0.000026      -0.000042
   4      -0.000064      -0.000055       0.000008
   5      -0.000018       0.000066       0.000022
   6       0.000251      -0.000036       0.000032
   7       0.000033       0.000018       0.000044
   8       0.000017      -0.000015      -0.000020
   9       0.000007       0.000034      -0.000037
  10       0.000015       0.000023       0.000036
  11       0.000019      -0.000033       0.000010
---------------------------------------------------
 Number of fixed atoms: 0
 Gradient time:  CPU 59.49 s  wall 3.60 s
 Geometry Optimization Parameters
   NAtoms,    NIC,     NZ,  NCons,   NDum,   NFix, NCnnct, MaxDiis
       11      72       0       0       0       0       0       0

 Cartesian Hessian Update
 Hessian Updated using BFGS Update


** GEOMETRY OPTIMIZATION IN DELOCALIZED INTERNAL COORDINATES **
   Searching for a Minimum

   Optimization Cycle:  18

                       Coordinates (Angstroms)
     ATOM                X               Y               Z
      1  O        -2.0811227156    1.1763675454   -0.1630340903
      2  O        -1.9885728818   -1.0898907069   -0.0711920703
      3  O        -0.0463985630    0.1020982086   -0.3253820199
      4  C        -3.3826229045    0.7305986033    0.1878467369
      5  C        -3.3610911192   -0.7628840464   -0.1497821962
      6  C        -1.2935470261    0.0420470421   -0.5727434482
      7  H        -4.1388519152    1.2794809239   -0.3787668701
      8  H        -3.5440691472    0.9028478644    1.2568198634
      9  H        -3.9143254259   -1.3768527668    0.5602605417
     10  H        -3.7396859390   -0.9487739419   -1.1622366924
     11  Li        0.9639853078    1.6925739626   -0.1982090917
   Point Group: c1    Number of degrees of freedom:    27


   Energy is   -349.947920237

 Hessian Updated using BFGS Update

 27 Hessian modes will be used to form the next step
  Hessian Eigenvalues:
     0.002028    0.006628    0.015234    0.030220    0.048182    0.051514
     0.058278    0.060569    0.061790    0.081916    0.100762    0.110784
     0.111001    0.126210    0.229166    0.232284    0.254055    0.285448
     0.304040    0.338804    0.343028    0.344796    0.375251    0.384838
     0.412358    0.442903    0.813854

 Minimum Search - Taking Simple RFO Step
 Searching for Lamda that Minimizes Along All modes
 Value Taken    Lamda =   0.00000000
 Step Taken.  Stepsize is  0.011608

                             Maximum     Tolerance    Cnvgd?
         Gradient           0.000161      0.000300     YES
         Displacement       0.008471      0.001200      NO
         Energy change     -0.000001      0.000001     YES


                       Distance Matrix (Angstroms)
             O (  1)   O (  2)   O (  3)   C (  4)   C (  5)   C (  6)
   O (  2)  2.270006
   O (  3)  2.306624  2.292922
   C (  4)  1.419764  2.307522  3.433484
   C (  5)  2.323616  1.413123  3.430192  1.531322
   C (  6)  1.440424  1.419823  1.272860  2.327410  2.258661
   H (  7)  2.071575  3.214378  4.258786  1.092797  2.197408  3.108799
   H (  8)  2.056942  2.855554  3.921513  1.094732  2.187847  3.025414
   H (  9)  3.225325  2.046852  4.234680  2.205165  1.089581  3.188331
   H ( 10)  2.874972  2.068016  3.930016  2.184150  1.096792  2.704223
   Li( 11)  3.088752  4.059045  1.888561  4.468494  4.973721  2.821519
             H (  7)   H (  8)   H (  9)   H ( 10)
   H (  8)  1.780664
   H (  9)  2.826357  2.412327
   H ( 10)  2.395470  3.052639  1.783465
   Li( 11)  5.122714  4.802430  5.813310  5.480017
 
 Final energy is   -349.947920236903     


 ******************************
 **  OPTIMIZATION CONVERGED  **
 ******************************

                       Coordinates (Angstroms)
     ATOM                X               Y               Z
      1  O        -2.0811227156    1.1763675454   -0.1630340903
      2  O        -1.9885728818   -1.0898907069   -0.0711920703
      3  O        -0.0463985630    0.1020982086   -0.3253820199
      4  C        -3.3826229045    0.7305986033    0.1878467369
      5  C        -3.3610911192   -0.7628840464   -0.1497821962
      6  C        -1.2935470261    0.0420470421   -0.5727434482
      7  H        -4.1388519152    1.2794809239   -0.3787668701
      8  H        -3.5440691472    0.9028478644    1.2568198634
      9  H        -3.9143254259   -1.3768527668    0.5602605417
     10  H        -3.7396859390   -0.9487739419   -1.1622366924
     11  Li        0.9639853078    1.6925739626   -0.1982090917

Z-matrix Print:
$molecule
0 2
O 
C  1 1.419764
H  2 1.092797 1 110.397215
H  2 1.094732 1 109.093720 3 -119.728131 0
C  1 1.440424 2 108.921119 3 -125.383201 0
O  5 1.272860 1 116.314218 2 -148.272473 0
O  5 1.419823 1 105.051676 2 -17.638939 0
C  7 1.413123 5 105.742689 1 34.289706 0
H  8 1.089581 7 109.057821 5 -157.321507 0
H  8 1.096792 7 110.327344 5 82.599996 0
Li 6 1.888561 5 125.240722 1 -28.132025 0
$end

 
 --------------------------------------------------------------
 
                    Orbital Energies (a.u.)
 --------------------------------------------------------------
 
 Alpha MOs
 -- Occupied --
-19.254 -19.249 -19.188 -10.383 -10.326 -10.325  -2.028  -1.196
 -1.094  -1.073  -0.837  -0.722  -0.668  -0.595  -0.576  -0.547
 -0.509  -0.496  -0.478  -0.427  -0.424  -0.367  -0.359  -0.350
 -0.205
 -- Virtual --
  0.013   0.018   0.019   0.022   0.060   0.066   0.070   0.075
  0.075   0.077   0.084   0.098   0.119   0.133   0.142   0.146
  0.168   0.178   0.182   0.195   0.197   0.202   0.205   0.207
  0.219   0.224   0.235   0.241   0.256   0.275   0.284   0.298
  0.309   0.324   0.343   0.352   0.359   0.371   0.373   0.383
  0.393   0.398   0.408   0.429   0.437   0.444   0.458   0.473
  0.489   0.523   0.564   0.577   0.626   0.641   0.654   0.664
  0.666   0.689   0.705   0.720   0.731   0.750   0.764   0.769
  0.779   0.787   0.817   0.848   0.881   0.893   0.944   1.036
  1.058   1.097   1.166   1.184   1.197   1.234   1.269   1.280
  1.299   1.336   1.384   1.392   1.477   1.532   1.599   1.640
  1.680   1.695   1.768   1.788   1.812   1.830   1.863   1.872
  1.908   1.956   1.959   2.054   2.189   2.532   2.597   2.605
  2.656   2.750   2.863   2.911   2.995   3.008   3.018   3.039
  3.084   3.103   3.124   3.176   3.209   3.258   3.298   3.398
  3.415   3.536   3.580   3.702   3.861   3.936   3.995   4.139
  4.191   4.233   5.159   5.183   5.231   5.300   5.370   5.491
  5.505   5.805   5.973  23.674  23.816  23.834  50.037  50.070
 50.138
 
 Beta MOs
 -- Occupied --
-19.252 -19.246 -19.184 -10.373 -10.326 -10.325  -2.028  -1.188
 -1.087  -1.062  -0.833  -0.719  -0.654  -0.589  -0.572  -0.540
 -0.496  -0.490  -0.450  -0.423  -0.421  -0.356  -0.348  -0.338
 -- Virtual --
  0.017   0.021   0.023   0.024   0.054   0.066   0.070   0.074
  0.078   0.084   0.087   0.102   0.105   0.125   0.138   0.147
  0.155   0.172   0.181   0.185   0.197   0.199   0.204   0.209
  0.213   0.223   0.232   0.238   0.243   0.258   0.282   0.288
  0.301   0.312   0.329   0.347   0.357   0.364   0.372   0.380
  0.387   0.395   0.400   0.413   0.435   0.443   0.446   0.462
  0.481   0.490   0.530   0.565   0.583   0.628   0.642   0.656
  0.666   0.668   0.693   0.707   0.725   0.740   0.758   0.766
  0.770   0.779   0.789   0.819   0.850   0.885   0.896   0.947
  1.043   1.063   1.100   1.171   1.188   1.200   1.239   1.275
  1.284   1.302   1.341   1.388   1.395   1.480   1.545   1.603
  1.647   1.695   1.702   1.772   1.802   1.820   1.835   1.869
  1.876   1.915   1.965   1.967   2.070   2.190   2.532   2.598
  2.605   2.659   2.785   2.871   2.914   3.004   3.016   3.021
  3.049   3.090   3.111   3.138   3.181   3.214   3.273   3.302
  3.401   3.425   3.549   3.587   3.714   3.862   3.938   3.997
  4.146   4.193   4.240   5.167   5.190   5.247   5.305   5.375
  5.495   5.508   5.811   5.981  23.675  23.817  23.850  50.040
 50.072  50.142
 --------------------------------------------------------------
 
          Ground-State Mulliken Net Atomic Charges

     Atom                 Charge (a.u.)    Spin (a.u.)
  --------------------------------------------------------
      1 O                    -0.154228       0.022774
      2 O                    -0.136562       0.004479
      3 O                    -0.570573       0.143793
      4 C                    -0.422813      -0.084635
      5 C                    -0.476897       0.044303
      6 C                    -0.076648       0.857563
      7 H                     0.247592      -0.001608
      8 H                     0.249226       0.005736
      9 H                     0.249067      -0.000785
     10 H                     0.254605       0.002749
     11 Li                    0.837231       0.005630
  --------------------------------------------------------
  Sum of atomic charges =    -0.000000
  Sum of spin   charges =     1.000000

 -----------------------------------------------------------------
                    Cartesian Multipole Moments
 -----------------------------------------------------------------
    Charge (ESU x 10^10)
                -0.0000
    Dipole Moment (Debye)
         X       3.9409      Y       7.0057      Z       1.0729
       Tot       8.1094
    Quadrupole Moments (Debye-Ang)
        XX     -23.1078     XY       9.0595     YY     -29.5666
        XZ      -2.7799     YZ      -0.9281     ZZ     -39.1599
    Octopole Moments (Debye-Ang^2)
       XXX     178.5729    XXY       1.8761    XYY      96.0597
       YYY      15.0781    XXZ      10.2339    XYZ      -2.2955
       YYZ       5.2626    XZZ      75.9330    YZZ      -2.0721
       ZZZ      24.9484
    Hexadecapole Moments (Debye-Ang^3)
      XXXX   -1100.6175   XXXY      18.9496   XXYY    -242.2541
      XYYY      29.4317   YYYY    -169.7714   XXXZ     -28.5717
      XXYZ      -3.0679   XYYZ     -12.2080   YYYZ      -7.7277
      XXZZ    -227.6157   XYZZ       2.0957   YYZZ     -45.4941
      XZZZ     -27.0021   YZZZ      -1.1519   ZZZZ     -86.2825
 -----------------------------------------------------------------
Archival summary:
1\1\nid01333\OPT\ProcedureUnspecified\BasisUnspecified\33i14(2)\sblau\TueNov1315:39:162018TueNov1315:39:162018\0\\#,OPT,ProcedureUnspecified,BasisUnspecified,\\0,2\O\C,1,1.41976\H,2,1.0928,1,110.397\H,2,1.09473,1,109.094,3,-119.728,0\C,1,1.44042,2,108.921,3,-125.383,0\O,5,1.27286,1,116.314,2,-148.272,0\O,5,1.41982,1,105.052,2,-17.6389,0\C,7,1.41312,5,105.743,1,34.2897,0\H,8,1.08958,7,109.058,5,-157.322,0\H,8,1.09679,7,110.327,5,82.6,0\Li,6,1.88856,5,125.241,1,-28.132,0\\\@

 Total job time:  569.60s(wall), 12341.55s(cpu) 
 Tue Nov 13 15:39:16 2018

        *************************************************************
        *                                                           *
        *  Thank you very much for using Q-Chem.  Have a nice day.  *
        *                                                           *
        *************************************************************


