
Running Job 1 of 1 mol.qin
qchem mol.qin_50098.0 /tmp/qchem50098/ 1
/global/common/cori/software/qchem/5.1/exe/qcprog.exe mol.qin_50098.0 /tmp/qchem50098/
Check license passed

                  Welcome to Q-Chem
     A Quantum Leap Into The Future Of Chemistry


 Q-Chem 5.1, Q-Chem, Inc., Pleasanton, CA (2018)

 Yihan Shao,  Zhengting Gan,  E. Epifanovsky,  A. T. B. Gilbert,  M. Wormit,  
 J. Kussmann,  A. W. Lange,  A. Behn,  Jia Deng,  Xintian Feng,  D. Ghosh,  
 M. Goldey,  P. R. Horn,  L. D. Jacobson,  I. Kaliman,  T. Kus,  A. Landau,  
 Jie Liu,  E. I. Proynov,  R. M. Richard,  R. P. Steele,  E. J. Sundstrom,  
 H. L. Woodcock III,  P. M. Zimmerman,  D. Zuev,  B. Albrecht,  E. Alguire,  
 S. A. Baeppler,  D. Barton,  Z. Benda,  Y. A. Bernard,  E. J. Berquist,  
 K. B. Bravaya,  H. Burton,  D. Casanova,  Chun-Min Chang,  Yunqing Chen,  
 A. Chien,  K. D. Closser,  M. P. Coons,  S. Coriani,  S. Dasgupta,  
 A. L. Dempwolff,  M. Diedenhofen,  Hainam Do,  R. G. Edgar,  Po-Tung Fang,  
 S. Faraji,  S. Fatehi,  Qingguo Feng,  K. D. Fenk,  J. Fosso-Tande,  
 Qinghui Ge,  A. Ghysels,  G. Gidofalvi,  J. Gomes,  J. Gonthier,  A. Gunina,  
 D. Hait,  M. W. D. Hanson-Heine,  P. H. P. Harbach,  A. W. Hauser,  
 J. E. Herr,  E. G. Hohenstein,  Z. C. Holden,  Kerwin Hui,  B. C. Huynh,  
 T.-C. Jagau,  Hyunjun Ji,  B. Kaduk,  K. Khistyaev,  Jaehoon Kim,  
 P. Klunzinger,  K. Koh,  D. Kosenkov,  L. Koulias,  T. Kowalczyk,  
 C. M. Krauter,  A. Kunitsa,  Ka Un Lao,  A. Laurent,  K. V. Lawler,  
 Joonho Lee,  D. Lefrancois,  S. Lehtola,  D. S. Levine,  Yi-Pei Li,  
 You-Sheng Lin,  Fenglai Liu,  E. Livshits,  A. Luenser,  P. Manohar,  
 E. Mansoor,  S. F. Manzer,  Shan-Ping Mao,  Yuezhi Mao,  N. Mardirossian,  
 A. V. Marenich,  T. Markovich,  L. A. Martinez-Martinez,  S. A. Maurer,  
 N. J. Mayhall,  S. C. McKenzie,  J.-M. Mewes,  A. F. Morrison,  
 J. W. Mullinax,  K. Nanda,  T. S. Nguyen-Beck,  R. Olivares-Amaya,  
 J. A. Parkhill,  T. M. Perrine,  F. Plasser,  P. Pokhilko,  S. Prager,  
 A. Prociuk,  E. Ramos,  D. R. Rehn,  F. Rob,  M. Schneider,  N. Sergueev,  
 S. M. Sharada,  S. Sharma,  D. W. Small,  T. Stauch,  T. Stein,  
 Yu-Chuan Su,  A. J. W. Thom,  A. Tkatchenko,  T. Tsuchimochi,  N. M. Tubman,  
 L. Vogt,  M. L. Vidal,  O. Vydrov,  M. A. Watson,  J. Wenzel,  
 M. de Wergifosse,  T. A. Wesolowski,  A. White,  J. Witte,  A. Yamada,  
 Jun Yang,  K. Yao,  S. Yeganeh,  S. R. Yost,  Zhi-Qiang You,  A. Zech,  
 Igor Ying Zhang,  Xing Zhang,  Yan Zhao,  Ying Zhu,  B. R. Brooks,  
 G. K. L. Chan,  C. J. Cramer,  M. S. Gordon,  W. J. Hehre,  A. Klamt,  
 M. W. Schmidt,  C. D. Sherrill,  D. G. Truhlar,  A. Aspuru-Guzik,  R. Baer,  
 A. T. Bell,  N. A. Besley,  Jeng-Da Chai,  R. A. DiStasio Jr.,  A. Dreuw,  
 B. D. Dunietz,  T. R. Furlani,  Chao-Ping Hsu,  Yousung Jung,  Jing Kong,  
 D. S. Lambrecht,  WanZhen Liang,  C. Ochsenfeld,  V. A. Rassolov,  
 L. V. Slipchenko,  J. E. Subotnik,  T. Van Voorhis,  J. M. Herbert,  
 A. I. Krylov,  P. M. W. Gill,  M. Head-Gordon

 Contributors to earlier versions of Q-Chem not listed above: 
 R. D. Adamson,  B. Austin,  J. Baker,  G. J. O. Beran,  K. Brandhorst,  
 S. T. Brown,  E. F. C. Byrd,  A. K. Chakraborty,  C.-L. Cheng,  
 Siu Hung Chien,  D. M. Chipman,  D. L. Crittenden,  H. Dachsel,  
 R. J. Doerksen,  A. D. Dutoi,  L. Fusti-Molnar,  W. A. Goddard III,  
 A. Golubeva-Zadorozhnaya,  S. R. Gwaltney,  G. Hawkins,  A. Heyden,  
 S. Hirata,  G. Kedziora,  F. J. Keil,  C. Kelley,  Jihan Kim,  R. A. King,  
 R. Z. Khaliullin,  P. P. Korambath,  W. Kurlancheek,  A. M. Lee,  M. S. Lee,  
 S. V. Levchenko,  Ching Yeh Lin,  D. Liotard,  R. C. Lochan,  I. Lotan,  
 P. E. Maslen,  N. Nair,  D. P. O'Neill,  D. Neuhauser,  E. Neuscamman,  
 C. M. Oana,  R. Olson,  B. Peters,  R. Peverati,  P. A. Pieniazek,  
 Y. M. Rhee,  J. Ritchie,  M. A. Rohrdanz,  E. Rosta,  N. J. Russ,  
 H. F. Schaefer III,  N. E. Schultz,  N. Shenvi,  A. C. Simmonett,  A. Sodt,  
 D. Stuck,  K. S. Thanthiriwatte,  V. Vanovschi,  Tao Wang,  A. Warshel,  
 C. F. Williams,  Q. Wu,  X. Xu,  W. Zhang

 Please cite Q-Chem as follows:
 Y. Shao et al., Mol. Phys. 113, 184-215 (2015)
 DOI: 10.1080/00268976.2014.952696

 Q-Chem 5.1.0 for Intel X86 EM64T Linux

 Parts of Q-Chem use Armadillo 8.300.2 (Tropical Shenanigans).
 http://arma.sourceforge.net/

 Q-Chem begins on Tue Nov 13 15:15:07 2018  

Host: cori01
0

     Scratch files written to /tmp/qchem50098//
 Jun2518 |scratch|qcdevops|jenkins|workspace|build_RNUM -1
Processing $rem in /global/common/cori/software/qchem/5.1/config/preferences.
 MEM_TOTAL  96000 
Symmetry turned off for PCM/SM12/SMD calculation

Checking the input file for inconsistencies... 	...done.

--------------------------------------------------------------
User input:
--------------------------------------------------------------
$molecule
0 2
O     -2.0702724456      1.1706747271     -0.1961087451
O     -1.9775542709     -1.0859292143      0.0345680532
O     -0.0387472452      0.0880850737     -0.3160833406
C     -3.3666034775      0.7500403276      0.2013270110
C     -3.3511754816     -0.7623698474     -0.0400096735
C     -1.2888156606      0.0121519018     -0.5450853210
H     -4.1308368955      1.2625134259     -0.3882240081
H     -3.5127548346      0.9902303278      1.2593223097
H     -3.8905709245     -1.3281112210      0.7191607739
H     -3.7487976925     -1.0139034526     -1.0306730125
Li      0.8827357795      1.6996080085      0.0241977189
$end

$rem
job_type = freq
basis = 6-311++g*
max_scf_cycles = 200
gen_scfman = true
scf_algorithm = gdm
method = wb97xd
geom_opt_max_cycles = 200
solvent_method = pcm
xc_grid = 3
$end

$pcm
heavypoints 194
hpoints 194
radii uff
theory cpcm
vdwscale 1.1
$end

$solvent
dielectric 30.0
$end
--------------------------------------------------------------
 ----------------------------------------------------------------
             Standard Nuclear Orientation (Angstroms)
    I     Atom           X                Y                Z
 ----------------------------------------------------------------
    1      O      -2.0702724456     1.1706747271    -0.1961087451
    2      O      -1.9775542709    -1.0859292143     0.0345680532
    3      O      -0.0387472452     0.0880850737    -0.3160833406
    4      C      -3.3666034775     0.7500403276     0.2013270110
    5      C      -3.3511754816    -0.7623698474    -0.0400096735
    6      C      -1.2888156606     0.0121519018    -0.5450853210
    7      H      -4.1308368955     1.2625134259    -0.3882240081
    8      H      -3.5127548346     0.9902303278     1.2593223097
    9      H      -3.8905709245    -1.3281112210     0.7191607739
   10      H      -3.7487976925    -1.0139034526    -1.0306730125
   11      Li      0.8827357795     1.6996080085     0.0241977189
 ----------------------------------------------------------------
 Nuclear Repulsion Energy =   265.3681925659 hartrees
 There are       25 alpha and       24 beta electrons
 Requested basis set is 6-311++G(d)
 There are 58 shells and 170 basis functions

 Total QAlloc Memory Limit  96000 MB
 Mega-Array Size       188 MB
 MEM_STATIC part       192 MB
 Discretize the solute cavity surface with Lebedev spheres
	Using 194 Lebedev grid points for each H atom
	Using 194 Lebedev grid points for other atoms
	Atomic van der Waals radii will be scaled by 1.10
 Remove points where switching function is < 1.0e-08
 Keep 1049 surface tesserae and discard 1085 interior tesserae
 Molecular Surface Area = 139.599 Angst**2

                       Distance Matrix (Angstroms)
             O (  1)   O (  2)   O (  3)   C (  4)   C (  5)   C (  6)
   O (  2)  2.270258
   O (  3)  2.305101  2.293521
   C (  4)  1.419635  2.308257  3.432277
   C (  5)  2.324165  1.413184  3.430987  1.531622
   C (  6)  1.440359  1.419909  1.273137  2.327834  2.260158
   H (  7)  2.071538  3.214119  4.257897  1.092818  2.197562  3.108873
   H (  8)  2.057084  2.857849  3.919757  1.094717  2.187688  3.026290
   H (  9)  3.224149  2.046204  4.232480  2.204860  1.089656  3.188064
   H ( 10)  2.878598  2.068146  3.935669  2.185268  1.096716  2.709261
   Li( 11)  3.008083  3.992566  1.887307  4.357745  4.898108  2.808421
             H (  7)   H (  8)   H (  9)   H ( 10)
   H (  8)  1.780610
   H (  9)  2.827608  2.410234
   H ( 10)  2.395990  3.052269  1.783464
   Li( 11)  5.049461  4.620507  5.695131  5.470557
 
 A cutoff of  1.0D-12 yielded   1670 shell pairs
 There are     14618 function pairs (     15865 Cartesian)
 
 -------------------------------------------------------
 OpenMP Integral Computing Module                       
 Release: version 1.0, May 2013, Q-Chem Inc. Pittsburgh 
 -------------------------------------------------------
 Integral Job Info:
 Integral job number is                      11
 Integral operator is                         1
 short-range coefficients              22203600
 long-range coefficients              100000000
 Omega coefficients                         200
 if combine SR and LR in K                    1
 Integral screening is                        0
 Integral computing path is                   2
 max size of driver memory is            800000
 size of driver memory is                593474
 size of scratch memory is              2428936
 max col of scratch BK array               1296
 max len of scratch array in speh3          155
 max len of scratch index in speh4           18
 max int batch size is                      520
 min int batch size is                       52
 fixed nKL is                                52
 max L of basis functions is                  2
 order of int derivative is                   0
 number of shells is                         58
 number of basis is                         177
 number of cartesian basis is               177
 number of contracted shell pairs          1670
 number of primitive shell pairs           4787
 maxK2 (contraction) of shell pair           36
 max number of K2 of shell pair               1
 max number of CS2 of shell pair            269
 max number of PS2 of shell pair            894
 mem total for path MDJ                  537338
 -------------------------------------------------------
 Smallest overlap matrix eigenvalue = 6.43E-05
 Guess from superposition of atomic densities
 Warning:  Energy on first SCF cycle will be non-variational
 SAD guess density has 49.000000 electrons

 -----------------------------------------------------------------------
  General SCF calculation program by
  Eric Jon Sundstrom, Paul Horn, Yuezhi Mao, Dmitri Zuev, Alec White,
  David Stuck, Shaama M.S., Shane Yost, Joonho Lee, David Small,
  Daniel Levine, Susi Lehtola, Hugh Burton, Evgeny Epifanovsky
 -----------------------------------------------------------------------
 Exchange:     0.2220 Hartree-Fock + 1.0000 wB97X-D + LR-HF
 Correlation:  1.0000 wB97X-D
 Using SG-3 standard quadrature grid
 Dispersion:   Grimme D
 using 32 threads for integral computing
 -------------------------------------------------------
 OpenMP Integral computing Module                
 Release: version 1.0, May 2013, Q-Chem Inc. Pittsburgh 
 -------------------------------------------------------
 using 32 threads for integral computing
 -------------------------------------------------------
 OpenMP Integral computing Module                
 Release: version 1.0, May 2013, Q-Chem Inc. Pittsburgh 
 -------------------------------------------------------
 -------------------------------------------------------
 OpenMP BLAS3 based DFT computing Module                
 Release: version 1.0, May 2013, Q-Chem Inc. Pittsburgh 
 -------------------------------------------------------
 A unrestricted SCF calculation will be
 performed using Roothaan-Hall, GDM
 SCF converges when RMS gradient is below 1.0e-08
 ---------------------------------------
  Cycle       Energy         DIIS error
 ---------------------------------------
    1    -350.9850673005      2.32e-02  Roothaan Step
 ---------------------------------------
  Cycle       Energy        RMS Gradient
 ---------------------------------------
    1    -349.7886014389      1.05e-01   Descent step
    2    -349.9353045554      1.83e-02   Normal BFGS step
    3    -349.9457511988      1.01e-02   Normal BFGS step
    4    -349.9470999715      5.46e-03   Normal BFGS step
    5    -349.9478308743      1.23e-03   Normal BFGS step
    6    -349.9478651724      6.94e-04   Normal BFGS step
    7    -349.9478739743      3.30e-04   Normal BFGS step
    8    -349.9478750816      1.04e-04   Normal BFGS step
    9    -349.9478752454      4.97e-05   Normal BFGS step
   10    -349.9478753250      3.20e-05   Normal BFGS step
   11    -349.9478753307      9.13e-06   Normal BFGS step
   12    -349.9478753321      5.17e-06   Normal BFGS step
   13    -349.9478753323      1.76e-06   Normal BFGS step
   14    -349.9478753324      5.16e-07   Normal BFGS step
   15    -349.9478753324      1.31e-07   Normal BFGS step
   16    -349.9478753324      1.02e-07   Normal BFGS step
   17    -349.9478753324      3.89e-08   Normal BFGS step
   18    -349.9478753324      1.54e-08   Normal BFGS step
   19    -349.9478753324      4.23e-09  Convergence criterion met
 ---------------------------------------
 SCF time:   CPU 667.20s  wall 29.00s 
<S^2> =          0.753396363

************** Final PCM Free Energy Summary **************
 G_electrostatic  =      -0.07896500 hartree =     -49.55128377 kcal/mol
 G_cavitation     =       0.00000000 hartree =       0.00000000 kcal/mol
 G_dispersion     =       0.00000000 hartree =       0.00000000 kcal/mol
 G_repulsion      =       0.00000000 hartree =       0.00000000 kcal/mol
 --------------------------------------------------
 Non-electrostatic Free Energy =       0.00000000 hartree =       0.00000000 kcal/mol
 Total                         =      -0.07896500 hartree =     -49.55128377 kcal/mol
 --------------------------------------------------
 SCF Energy (H0 + V/2)                       =    -349.94787533 
 Solute Internal Energy (H0)                 =    -349.86891033 
 Total Free Energy (H0 + V/2 + non-elec)     =    -349.94787533 hartree
                                             = -219595.60612740 kcal/mol
***********************************************************

 SCF   energy in the final basis set =     -349.9478753324
 Total energy in the final basis set =     -349.9478753324
 
 --------------------------------------------------------------
 
                    Orbital Energies (a.u.)
 --------------------------------------------------------------
 
 Alpha MOs
 -- Occupied --
-19.254 -19.249 -19.188 -10.383 -10.326 -10.325  -2.028  -1.196
 -1.095  -1.073  -0.837  -0.723  -0.668  -0.595  -0.576  -0.547
 -0.510  -0.496  -0.477  -0.427  -0.424  -0.366  -0.360  -0.350
 -0.206
 -- Virtual --
  0.014   0.018   0.019   0.022   0.060   0.066   0.071   0.075
  0.076   0.078   0.084   0.099   0.120   0.133   0.141   0.147
  0.167   0.178   0.183   0.194   0.197   0.202   0.204   0.208
  0.219   0.223   0.234   0.243   0.256   0.274   0.284   0.298
  0.309   0.324   0.343   0.352   0.360   0.367   0.371   0.385
  0.398   0.402   0.410   0.430   0.437   0.442   0.458   0.466
  0.482   0.519   0.566   0.576   0.627   0.644   0.654   0.663
  0.668   0.687   0.704   0.721   0.733   0.755   0.769   0.774
  0.777   0.787   0.818   0.851   0.873   0.896   0.944   1.032
  1.056   1.097   1.169   1.189   1.199   1.236   1.269   1.280
  1.302   1.337   1.378   1.393   1.467   1.531   1.596   1.642
  1.679   1.695   1.768   1.786   1.812   1.831   1.862   1.872
  1.909   1.958   1.959   2.055   2.187   2.530   2.597   2.604
  2.655   2.749   2.861   2.910   2.994   3.012   3.017   3.041
  3.083   3.105   3.122   3.176   3.209   3.258   3.296   3.400
  3.415   3.539   3.581   3.704   3.857   3.936   3.996   4.139
  4.189   4.232   5.158   5.188   5.230   5.299   5.368   5.491
  5.506   5.805   5.970  23.673  23.815  23.834  50.036  50.069
 50.138
 
 Beta MOs
 -- Occupied --
-19.252 -19.246 -19.184 -10.373 -10.326 -10.325  -2.028  -1.188
 -1.088  -1.062  -0.833  -0.719  -0.654  -0.589  -0.572  -0.541
 -0.496  -0.490  -0.450  -0.423  -0.421  -0.355  -0.348  -0.339
 -- Virtual --
  0.017   0.021   0.023   0.024   0.054   0.066   0.070   0.074
  0.078   0.084   0.087   0.103   0.105   0.126   0.137   0.148
  0.154   0.171   0.181   0.186   0.197   0.199   0.204   0.209
  0.214   0.224   0.230   0.237   0.245   0.258   0.281   0.287
  0.302   0.311   0.328   0.348   0.356   0.364   0.369   0.377
  0.387   0.401   0.404   0.417   0.436   0.441   0.446   0.462
  0.470   0.486   0.527   0.567   0.582   0.629   0.645   0.656
  0.665   0.671   0.690   0.707   0.726   0.740   0.761   0.771
  0.775   0.778   0.790   0.821   0.854   0.878   0.897   0.946
  1.040   1.060   1.100   1.173   1.194   1.201   1.241   1.274
  1.284   1.305   1.342   1.382   1.396   1.470   1.544   1.601
  1.649   1.696   1.699   1.772   1.800   1.822   1.835   1.869
  1.877   1.915   1.965   1.970   2.071   2.188   2.531   2.598
  2.605   2.658   2.784   2.869   2.913   3.002   3.019   3.021
  3.051   3.089   3.113   3.136   3.181   3.214   3.273   3.301
  3.403   3.425   3.552   3.587   3.716   3.858   3.938   3.999
  4.146   4.192   4.239   5.166   5.194   5.247   5.303   5.373
  5.495   5.509   5.810   5.978  23.673  23.816  23.851  50.039
 50.072  50.142
 --------------------------------------------------------------
 
          Ground-State Mulliken Net Atomic Charges

     Atom                 Charge (a.u.)    Spin (a.u.)
  --------------------------------------------------------
      1 O                    -0.153927       0.023946
      2 O                    -0.136098       0.004683
      3 O                    -0.570166       0.142515
      4 C                    -0.415189      -0.080533
      5 C                    -0.493129       0.035264
      6 C                    -0.078546       0.859386
      7 H                     0.248162      -0.001687
      8 H                     0.249577       0.005470
      9 H                     0.247759      -0.001046
     10 H                     0.256478       0.003478
     11 Li                    0.845078       0.008524
  --------------------------------------------------------
  Sum of atomic charges =     0.000000
  Sum of spin   charges =     1.000000

 -----------------------------------------------------------------
                    Cartesian Multipole Moments
 -----------------------------------------------------------------
    Charge (ESU x 10^10)
                 0.0000
    Dipole Moment (Debye)
         X       3.5273      Y       7.1395      Z       2.0852
       Tot       8.2318
    Quadrupole Moments (Debye-Ang)
        XX     -23.8505     XY       8.2940     YY     -29.3534
        XZ      -1.9904     YZ       1.0811     ZZ     -39.2775
    Octopole Moments (Debye-Ang^2)
       XXX     177.0032    XXY       1.2742    XYY      94.5461
       YYY      16.0024    XXZ      10.6704    XYZ      -0.9305
       YYZ       6.6909    XZZ      75.3408    YZZ      -2.0473
       ZZZ      20.2051
    Hexadecapole Moments (Debye-Ang^3)
      XXXX   -1093.6894   XXXY      16.5395   XXYY    -242.4611
      XYYY      27.7846   YYYY    -169.5580   XXXZ     -20.1192
      XXYZ      -0.0555   XYYZ      -5.5598   YYYZ       1.2575
      XXZZ    -225.1901   XYZZ       1.9088   YYZZ     -45.4093
      XZZZ     -16.1635   YZZZ       1.4495   ZZZZ     -83.6821
 -----------------------------------------------------------------
 Calculating MO derivatives via CPSCF
 Computing fast CPCM-SWIG hessian.
 D1JvT checksum  = 559812 28679.6587662724
 D1KAT checksum  = 1107480 2688.7220506210
 D1JvT checksum  = 559812 17238.3237760826
 D1KAT checksum  = 1107480 1173.6738120689
   1         3          33      0.219942    0.034682
   2         3          33      0.051351    0.010326
   3         3          33      0.011273    0.002648
   4         3          33      0.002243    0.000544
   5         5          31      0.000383    0.000102
   6        29           7      0.000045    0.000016
   7        33           3      0.000006    0.000003
   8        36           0      0.000000    0.000000    Roots Converged
 Time for AOints: 72.4 s (CPU) 4.1 s (wall)
 ------------------------------------------------------------------------------
                     AOints        : Timing summary (seconds)
 ------------------------------------------------------------------------------
     job step          cpu (% of tot)      sys (% of tot)     wall (% of tot)
 ------------------------------------------------------------------------------
  cpscf_lag         0.7960E+03 (41.8)   0.4378E-02 (49.6)   0.2778E+03 (63.2)
  iterzp            0.1037E+04 (54.4)   0.3721E-02 (42.1)   0.1575E+03 (35.8)
  make_fx           0.0000E+00 ( 0.0)   0.0000E+00 ( 0.0)   0.0000E+00 ( 0.0)
  AOints            0.7235E+02 ( 3.8)   0.7330E-03 ( 8.3)   0.4143E+01 ( 0.9)
 ------------------------------------------------------------------------------
   Grand Totals     0.1906E+04          0.8835E-02          0.4396E+03
 ------------------------------------------------------------------------------
 Calculating analytic Hessian of the SCF energy
 Polarizability Matrix (a.u.)
            1           2           3
    1 -79.7481378  -0.5516750  -2.7950776
    2  -0.5516750 -62.8879522  -1.9865817
    3  -2.7950776  -1.9865817 -69.9106485
atom: 0 element: 8
atom: 1 element: 8
atom: 2 element: 8
atom: 3 element: 6
atom: 4 element: 6
atom: 5 element: 6
atom: 6 element: 1
atom: 7 element: 1
atom: 8 element: 1
atom: 9 element: 1
atom: 10 element: 3
 
 Direct stationary perturbation theory relativistic correction:
 
 rels  =       0.117530653798
 relv  =      -0.527733000263
 rel2e =       0.000000000000
 E_rel =      -0.410202346465
 
 Computing fast CPCM-SWIG hessian
 Hessian of the SCF Energy
            1           2           3           4           5           6
    1   0.3512010   0.0261180  -0.0913676   0.0062934   0.0170270  -0.0070031
    2   0.0261180   0.2899344  -0.0027278  -0.0141647  -0.0657450  -0.0003622
    3  -0.0913676  -0.0027278   0.0749330  -0.0039496   0.0151597   0.0147666
    4   0.0062934  -0.0141647  -0.0039496   0.3976210  -0.0173385  -0.0057613
    5   0.0170270  -0.0657450   0.0151597  -0.0173385   0.2744333  -0.0722516
    6  -0.0070031  -0.0003622   0.0147666  -0.0057613  -0.0722516   0.0895181
    7  -0.0643151   0.0347963   0.0163832  -0.0578270  -0.0345820   0.0194202
    8   0.0393259   0.0126621   0.0087541  -0.0449189   0.0017473  -0.0075953
    9   0.0099731   0.0078504   0.0208013   0.0171615  -0.0045675   0.0211768
   10  -0.1734861  -0.0259155   0.0344772  -0.0309447   0.0272558   0.0104401
   11  -0.0518163  -0.0986101   0.0066047   0.0235787  -0.0310116   0.0025833
   12   0.0413553   0.0074582  -0.0642478  -0.0022638   0.0064291   0.0086221
   13  -0.0235924  -0.0211239  -0.0001384  -0.2010802   0.0191795  -0.0122861
   14  -0.0227335  -0.0319713   0.0074940   0.0528616  -0.0817278   0.0129967
   15   0.0073536   0.0167816   0.0040661  -0.0161754   0.0142668  -0.0621827
   16  -0.0498527  -0.0198514   0.0135079  -0.0575353   0.0132172   0.0050533
   17   0.0118140  -0.1163685  -0.0426943  -0.0236825  -0.1084908   0.0676553
   18   0.0149069  -0.0171330  -0.0554111   0.0174512   0.0419107  -0.0809934
   19  -0.0356154   0.0140738  -0.0057838   0.0011549   0.0000690  -0.0004743
   20  -0.0122185   0.0093058  -0.0049670   0.0042739  -0.0053539  -0.0019335
   21   0.0095717  -0.0092721   0.0106942   0.0011949  -0.0009383   0.0002212
   22  -0.0214715   0.0064874   0.0371560   0.0017288   0.0013216  -0.0019181
   23  -0.0070741   0.0070255   0.0113867   0.0016593   0.0010009   0.0005005
   24   0.0167856   0.0007771  -0.0043770   0.0018133  -0.0010349   0.0000050
   25   0.0006435  -0.0001081  -0.0003815  -0.0289580  -0.0214702   0.0247342
   26  -0.0038708  -0.0049141   0.0009970   0.0076229   0.0077815  -0.0092114
   27  -0.0015436  -0.0016359   0.0006678   0.0001779  -0.0029992   0.0043101
   28   0.0009174  -0.0009526   0.0003302  -0.0326865  -0.0066306  -0.0310948
   29  -0.0006582   0.0007212   0.0009137   0.0065168   0.0052129   0.0092994
   30  -0.0009953  -0.0016762  -0.0008225  -0.0104569   0.0036502   0.0049787
   31   0.0092778   0.0006406  -0.0002336   0.0022336   0.0019512  -0.0011102
   32   0.0040864  -0.0020401  -0.0009207   0.0035912   0.0021531  -0.0016813
   33   0.0009632  -0.0000600  -0.0010707   0.0008081   0.0003750  -0.0004225
            7           8           9          10          11          12
    1  -0.0643151   0.0393259   0.0099731  -0.1734861  -0.0518163   0.0413553
    2   0.0347963   0.0126621   0.0078504  -0.0259155  -0.0986101   0.0074582
    3   0.0163832   0.0087541   0.0208013   0.0344772   0.0066047  -0.0642478
    4  -0.0578270  -0.0449189   0.0171615  -0.0309447   0.0235787  -0.0022638
    5  -0.0345820   0.0017473  -0.0045675   0.0272558  -0.0310116   0.0064291
    6   0.0194202  -0.0075953   0.0211768   0.0104401   0.0025833   0.0086221
    7   0.5400053   0.0417586   0.0758629   0.0052668   0.0076909  -0.0054678
    8   0.0417586   0.0737737   0.0057788  -0.0003202  -0.0042317   0.0033536
    9   0.0758629   0.0057788   0.0259542   0.0032500   0.0004826   0.0020356
   10   0.0052668  -0.0003202   0.0032500   0.5063641  -0.0948126   0.0335255
   11   0.0076909  -0.0042317   0.0004826  -0.0948126   0.4756587   0.0097041
   12  -0.0054678   0.0033536   0.0020356   0.0335255   0.0097041   0.5843436
   13   0.0068195   0.0018211   0.0039718  -0.0585603   0.0087107  -0.0017619
   14  -0.0068626  -0.0062713   0.0012681  -0.0100078  -0.1718940  -0.0243901
   15   0.0030101   0.0020647   0.0025666  -0.0016856  -0.0279979  -0.0888818
   16  -0.4166640  -0.0264045  -0.1103551  -0.0430002   0.0102223   0.0150016
   17  -0.0303777  -0.0633661  -0.0081162   0.0279354   0.0211907  -0.0067185
   18  -0.1076262  -0.0077366  -0.0782465   0.0082155  -0.0032054  -0.0133321
   19  -0.0041847   0.0018933   0.0007513  -0.1591506   0.0841472  -0.0987486
   20   0.0000908   0.0009082   0.0002163   0.0873934  -0.1100538   0.0694224
   21   0.0002751  -0.0002784  -0.0006892  -0.1023220   0.0733118  -0.1370908
   22  -0.0021432   0.0000983  -0.0009289  -0.0478224   0.0090952   0.0172455
   23  -0.0003226   0.0000556  -0.0003421   0.0106335  -0.0642903  -0.0554106
   24   0.0015192  -0.0005244  -0.0003282   0.0181277  -0.0564011  -0.2916067
   25  -0.0028485  -0.0020884   0.0002650   0.0029409  -0.0001437  -0.0025483
   26  -0.0002658   0.0008542   0.0000846  -0.0137886  -0.0087127   0.0210883
   27   0.0006241   0.0003422   0.0000264  -0.0043209  -0.0048410   0.0046762
   28  -0.0019708  -0.0011050   0.0014688   0.0008891   0.0017790   0.0022378
   29   0.0000292   0.0002319   0.0000382  -0.0071731  -0.0080324  -0.0312208
   30  -0.0016751  -0.0003943  -0.0006591   0.0004175  -0.0000731  -0.0040914
   31  -0.0021384  -0.0100603  -0.0014204  -0.0024967   0.0015486   0.0014247
   32  -0.0119552  -0.0163639  -0.0026931  -0.0012004  -0.0000128   0.0002843
   33  -0.0023257  -0.0037645   0.0073621  -0.0001248  -0.0001681  -0.0004270
           13          14          15          16          17          18
    1  -0.0235924  -0.0227335   0.0073536  -0.0498527   0.0118140   0.0149069
    2  -0.0211239  -0.0319713   0.0167816  -0.0198514  -0.1163685  -0.0171330
    3  -0.0001384   0.0074940   0.0040661   0.0135079  -0.0426943  -0.0554111
    4  -0.2010802   0.0528616  -0.0161754  -0.0575353  -0.0236825   0.0174512
    5   0.0191795  -0.0817278   0.0142668   0.0132172  -0.1084908   0.0419107
    6  -0.0122861   0.0129967  -0.0621827   0.0050533   0.0676553  -0.0809934
    7   0.0068195  -0.0068626   0.0030101  -0.4166640  -0.0303777  -0.1076262
    8   0.0018211  -0.0062713   0.0020647  -0.0264045  -0.0633661  -0.0077366
    9   0.0039718   0.0012681   0.0025666  -0.1103551  -0.0081162  -0.0782465
   10  -0.0585603  -0.0100078  -0.0016856  -0.0430002   0.0279354   0.0082155
   11   0.0087107  -0.1718940  -0.0279979   0.0102223   0.0211907  -0.0032054
   12  -0.0017619  -0.0243901  -0.0888818   0.0150016  -0.0067185  -0.0133321
   13   0.4923025   0.0943918  -0.0237644  -0.0506048  -0.0279997   0.0088058
   14   0.0943918   0.4801185  -0.0370490  -0.0184986   0.0105616  -0.0053723
   15  -0.0237644  -0.0370490   0.5927524   0.0165862  -0.0018870  -0.0012345
   16  -0.0506048  -0.0184986   0.0165862   0.6207916   0.0483428   0.0642516
   17  -0.0279997   0.0105616  -0.0018870   0.0483428   0.2732282  -0.0109248
   18   0.0088058  -0.0053723  -0.0012345   0.0642516  -0.0109248   0.2257383
   19   0.0033943  -0.0000613   0.0007872   0.0002420  -0.0075818  -0.0040582
   20   0.0199137  -0.0083088   0.0175341  -0.0011368  -0.0047349  -0.0003304
   21   0.0045547  -0.0050427   0.0029474   0.0007175   0.0008093   0.0009191
   22  -0.0006483  -0.0007637  -0.0013162   0.0022754  -0.0060525   0.0041517
   23  -0.0012106  -0.0065987  -0.0326586   0.0011359  -0.0032018   0.0016768
   24  -0.0020927   0.0003581  -0.0022013  -0.0028958   0.0035984  -0.0003353
   25  -0.1000798  -0.0633548   0.0864682  -0.0015142   0.0075251  -0.0004250
   26  -0.0694028  -0.1227659   0.1024715   0.0013933  -0.0043061  -0.0001451
   27   0.0935172   0.1046635  -0.1874353  -0.0006380  -0.0018445   0.0006222
   28  -0.0667916  -0.0236985  -0.0707925   0.0028959   0.0060405  -0.0050591
   29  -0.0232085  -0.0605186  -0.0531750  -0.0001362  -0.0015993   0.0001539
   30  -0.0706920  -0.0550539  -0.2599158   0.0012024   0.0010926   0.0014078
   31  -0.0011589  -0.0012727  -0.0004712  -0.0070336  -0.0059637  -0.0006141
   32  -0.0010714  -0.0006238  -0.0003513  -0.0082839  -0.0029130   0.0011061
   33  -0.0001140   0.0001277  -0.0004812  -0.0024316  -0.0009701   0.0008654
           19          20          21          22          23          24
    1  -0.0356154  -0.0122185   0.0095717  -0.0214715  -0.0070741   0.0167856
    2   0.0140738   0.0093058  -0.0092721   0.0064874   0.0070255   0.0007771
    3  -0.0057838  -0.0049670   0.0106942   0.0371560   0.0113867  -0.0043770
    4   0.0011549   0.0042739   0.0011949   0.0017288   0.0016593   0.0018133
    5   0.0000690  -0.0053539  -0.0009383   0.0013216   0.0010009  -0.0010349
    6  -0.0004743  -0.0019335   0.0002212  -0.0019181   0.0005005   0.0000050
    7  -0.0041847   0.0000908   0.0002751  -0.0021432  -0.0003226   0.0015192
    8   0.0018933   0.0009082  -0.0002784   0.0000983   0.0000556  -0.0005244
    9   0.0007513   0.0002163  -0.0006892  -0.0009289  -0.0003421  -0.0003282
   10  -0.1591506   0.0873934  -0.1023220  -0.0478224   0.0106335   0.0181277
   11   0.0841472  -0.1100538   0.0733118   0.0090952  -0.0642903  -0.0564011
   12  -0.0987486   0.0694224  -0.1370908   0.0172455  -0.0554106  -0.2916067
   13   0.0033943   0.0199137   0.0045547  -0.0006483  -0.0012106  -0.0020927
   14  -0.0000613  -0.0083088  -0.0050427  -0.0007637  -0.0065987   0.0003581
   15   0.0007872   0.0175341   0.0029474  -0.0013162  -0.0326586  -0.0022013
   16   0.0002420  -0.0011368   0.0007175   0.0022754   0.0011359  -0.0028958
   17  -0.0075818  -0.0047349   0.0008093  -0.0060525  -0.0032018   0.0035984
   18  -0.0040582  -0.0003304   0.0009191   0.0041517   0.0016768  -0.0003353
   19   0.1886001  -0.0926694   0.1058202   0.0047033  -0.0007349   0.0010256
   20  -0.0926694   0.1134796  -0.0743804  -0.0047821   0.0049900  -0.0050650
   21   0.1058202  -0.0743804   0.1377623  -0.0210200   0.0158337  -0.0164320
   22   0.0047033  -0.0047821  -0.0210200   0.0623674  -0.0043674  -0.0330919
   23  -0.0007349   0.0049900   0.0158337  -0.0043674   0.0651600   0.0599042
   24   0.0010256  -0.0050650  -0.0164320  -0.0330919   0.0599042   0.3125672
   25  -0.0006796  -0.0002762  -0.0000179   0.0005773  -0.0000463   0.0000845
   26   0.0004189  -0.0017401  -0.0004067  -0.0002925   0.0015202  -0.0001837
   27   0.0004180  -0.0002248   0.0004527  -0.0003149   0.0001673   0.0010645
   28   0.0006824   0.0001994   0.0004381   0.0006449   0.0008246   0.0002011
   29   0.0000520   0.0015705   0.0002135  -0.0008480  -0.0057326  -0.0009562
   30   0.0002629  -0.0001575   0.0009562  -0.0001999  -0.0012190   0.0012509
   31   0.0008534  -0.0007883   0.0007879  -0.0002117  -0.0004974  -0.0014767
   32   0.0003933  -0.0000627   0.0001504   0.0001037   0.0000712  -0.0004724
   33  -0.0000002  -0.0001141   0.0002589   0.0002366   0.0001611   0.0003928
           25          26          27          28          29          30
    1   0.0006435  -0.0038708  -0.0015436   0.0009174  -0.0006582  -0.0009953
    2  -0.0001081  -0.0049141  -0.0016359  -0.0009526   0.0007212  -0.0016762
    3  -0.0003815   0.0009970   0.0006678   0.0003302   0.0009137  -0.0008225
    4  -0.0289580   0.0076229   0.0001779  -0.0326865   0.0065168  -0.0104569
    5  -0.0214702   0.0077815  -0.0029992  -0.0066306   0.0052129   0.0036502
    6   0.0247342  -0.0092114   0.0043101  -0.0310948   0.0092994   0.0049787
    7  -0.0028485  -0.0002658   0.0006241  -0.0019708   0.0000292  -0.0016751
    8  -0.0020884   0.0008542   0.0003422  -0.0011050   0.0002319  -0.0003943
    9   0.0002650   0.0000846   0.0000264   0.0014688   0.0000382  -0.0006591
   10   0.0029409  -0.0137886  -0.0043209   0.0008891  -0.0071731   0.0004175
   11  -0.0001437  -0.0087127  -0.0048410   0.0017790  -0.0080324  -0.0000731
   12  -0.0025483   0.0210883   0.0046762   0.0022378  -0.0312208  -0.0040914
   13  -0.1000798  -0.0694028   0.0935172  -0.0667916  -0.0232085  -0.0706920
   14  -0.0633548  -0.1227659   0.1046635  -0.0236985  -0.0605186  -0.0550539
   15   0.0864682   0.1024715  -0.1874353  -0.0707925  -0.0531750  -0.2599158
   16  -0.0015142   0.0013933  -0.0006380   0.0028959  -0.0001362   0.0012024
   17   0.0075251  -0.0043061  -0.0018445   0.0060405  -0.0015993   0.0010926
   18  -0.0004250  -0.0001451   0.0006222  -0.0050591   0.0001539   0.0014078
   19  -0.0006796   0.0004189   0.0004180   0.0006824   0.0000520   0.0002629
   20  -0.0002762  -0.0017401  -0.0002248   0.0001994   0.0015705  -0.0001575
   21  -0.0000179  -0.0004067   0.0004527   0.0004381   0.0002135   0.0009562
   22   0.0005773  -0.0002925  -0.0003149   0.0006449  -0.0008480  -0.0001999
   23  -0.0000463   0.0015202   0.0001673   0.0008246  -0.0057326  -0.0012190
   24   0.0000845  -0.0001837   0.0010645   0.0002011  -0.0009562   0.0012509
   25   0.1220419   0.0740068  -0.1009141   0.0074406   0.0056037  -0.0073243
   26   0.0740068   0.1268265  -0.1084377   0.0036941   0.0050636  -0.0062148
   27  -0.1009141  -0.1084377   0.1936254   0.0135957   0.0152929  -0.0181758
   28   0.0074406   0.0036941   0.0135957   0.0876941   0.0196678   0.0886224
   29   0.0056037   0.0050636   0.0152929   0.0196678   0.0629237   0.0593937
   30  -0.0073243  -0.0062148  -0.0181758   0.0886224   0.0593937   0.2747831
   31   0.0004358   0.0004845  -0.0006013   0.0002847   0.0001545   0.0008383
   32   0.0003521   0.0003928  -0.0004828   0.0001813   0.0001590   0.0006523
   33   0.0000593  -0.0000422   0.0001658   0.0000524   0.0000467   0.0002876
           31          32          33
    1   0.0092778   0.0040864   0.0009632
    2   0.0006406  -0.0020401  -0.0000600
    3  -0.0002336  -0.0009207  -0.0010707
    4   0.0022336   0.0035912   0.0008081
    5   0.0019512   0.0021531   0.0003750
    6  -0.0011102  -0.0016813  -0.0004225
    7  -0.0021384  -0.0119552  -0.0023257
    8  -0.0100603  -0.0163639  -0.0037645
    9  -0.0014204  -0.0026931   0.0073621
   10  -0.0024967  -0.0012004  -0.0001248
   11   0.0015486  -0.0000128  -0.0001681
   12   0.0014247   0.0002843  -0.0004270
   13  -0.0011589  -0.0010714  -0.0001140
   14  -0.0012727  -0.0006238   0.0001277
   15  -0.0004712  -0.0003513  -0.0004812
   16  -0.0070336  -0.0082839  -0.0024316
   17  -0.0059637  -0.0029130  -0.0009701
   18  -0.0006141   0.0011061   0.0008654
   19   0.0008534   0.0003933  -0.0000002
   20  -0.0007883  -0.0000627  -0.0001141
   21   0.0007879   0.0001504   0.0002589
   22  -0.0002117   0.0001037   0.0002366
   23  -0.0004974   0.0000712   0.0001611
   24  -0.0014767  -0.0004724   0.0003928
   25   0.0004358   0.0003521   0.0000593
   26   0.0004845   0.0003928  -0.0000422
   27  -0.0006013  -0.0004828   0.0001658
   28   0.0002847   0.0001813   0.0000524
   29   0.0001545   0.0001590   0.0000467
   30   0.0008383   0.0006523   0.0002876
   31  -0.0000460   0.0138029   0.0028765
   32   0.0138029   0.0192402   0.0044085
   33   0.0028765   0.0044085  -0.0069312
 Gradient time:  CPU 2503.67 s  wall 849.47 s
 **********************************************************************
 **                                                                  **
 **                       VIBRATIONAL ANALYSIS                       **
 **                       --------------------                       **
 **                                                                  **
 **        VIBRATIONAL FREQUENCIES (CM**-1) AND NORMAL MODES         **
 **     FORCE CONSTANTS (mDYN/ANGSTROM) AND REDUCED MASSES (AMU)     **
 **                  INFRARED INTENSITIES (KM/MOL)                   **
 **                                                                  **
 **********************************************************************
 

 Mode:                 1                      2                      3
 Frequency:       -49.74                  78.63                  90.10
 Force Cnst:      0.0098                 0.0255                 0.0156
 Red. Mass:       6.7519                 6.9955                 3.2598
 IR Active:          YES                    YES                    YES
 IR Intens:      135.942                129.639                  1.985
 Raman Active:       YES                    YES                    YES
               X      Y      Z        X      Y      Z        X      Y      Z
 O          0.051 -0.010 -0.156   -0.172  0.028 -0.124    0.066  0.005  0.273
 O          0.028  0.013  0.063    0.056  0.053  0.053    0.021  0.012  0.059
 O          0.013 -0.047 -0.264   -0.061  0.172 -0.087    0.006 -0.011 -0.164
 C          0.076  0.060  0.002   -0.109 -0.072 -0.022   -0.085  0.023 -0.204
 C          0.025  0.030  0.172    0.024 -0.087  0.092    0.013 -0.037  0.018
 C         -0.011 -0.061 -0.126   -0.061  0.079 -0.047   -0.029  0.031  0.030
 H          0.035  0.006  0.009   -0.192 -0.190 -0.017    0.131 -0.095 -0.592
 H          0.171  0.184 -0.014   -0.076 -0.009 -0.031   -0.507  0.205 -0.309
 H          0.096  0.128  0.295    0.114 -0.078  0.163    0.039  0.054  0.105
 H         -0.085 -0.077  0.244    0.000 -0.203  0.131    0.017 -0.211  0.062
 Li        -0.394  0.013  0.656    0.676 -0.370  0.285    0.005 -0.034 -0.011
 TransDip  -0.148  0.028  0.342    0.275 -0.192  0.143   -0.005 -0.010 -0.044

 Mode:                 4                      5                      6
 Frequency:       220.21                 391.17                 504.20
 Force Cnst:      0.0778                 0.6586                 1.4141
 Red. Mass:       2.7241                 7.3051                 9.4412
 IR Active:          YES                    YES                    YES
 IR Intens:        3.972                154.244                 49.910
 Raman Active:       YES                    YES                    YES
               X      Y      Z        X      Y      Z        X      Y      Z
 O         -0.017  0.008  0.003    0.093 -0.181  0.012    0.190 -0.188  0.011
 O          0.007  0.046  0.241   -0.184 -0.184  0.032   -0.040 -0.203  0.032
 O          0.001 -0.004 -0.134    0.008  0.112 -0.100   -0.125  0.526  0.039
 C          0.003 -0.035  0.053    0.050  0.038 -0.007    0.181  0.060 -0.040
 C          0.021  0.023 -0.198   -0.170  0.043  0.002   -0.032  0.046 -0.015
 C         -0.023 -0.035  0.049   -0.003 -0.154  0.003   -0.059 -0.060  0.019
 H         -0.041  0.080  0.213    0.139  0.159 -0.020    0.282  0.166 -0.081
 H          0.101 -0.243  0.116    0.074  0.076 -0.010    0.196  0.130 -0.054
 H         -0.267 -0.120 -0.513   -0.282  0.128 -0.014   -0.185  0.144 -0.054
 H          0.409  0.229 -0.408   -0.185  0.111 -0.009   -0.014  0.130 -0.042
 Li        -0.010 -0.027  0.001    0.433  0.635  0.139   -0.251 -0.470 -0.094
 TransDip   0.032 -0.045 -0.031    0.210  0.331  0.069   -0.160 -0.148 -0.062

 Mode:                 7                      8                      9
 Frequency:       649.74                 671.15                 724.05
 Force Cnst:      2.6756                 0.7825                 3.3978
 Red. Mass:      10.7571                 2.9484                11.0006
 IR Active:          YES                    YES                    YES
 IR Intens:       66.439                 11.696                 12.125
 Raman Active:       YES                    YES                    YES
               X      Y      Z        X      Y      Z        X      Y      Z
 O         -0.164 -0.200 -0.040   -0.122 -0.029  0.005   -0.064  0.502 -0.089
 O         -0.110  0.081 -0.059    0.120 -0.132 -0.048   -0.060 -0.481 -0.026
 O          0.527  0.124 -0.124   -0.031 -0.007  0.003    0.094  0.008 -0.137
 C         -0.277 -0.002  0.073   -0.102  0.157  0.065    0.078  0.028 -0.068
 C         -0.248  0.103  0.031    0.150  0.148  0.040   -0.016 -0.094 -0.018
 C          0.334 -0.012  0.208   -0.002 -0.147 -0.002    0.027  0.065  0.403
 H         -0.165  0.094  0.017   -0.106 -0.145 -0.214   -0.160 -0.110  0.123
 H         -0.258  0.080  0.057   -0.309  0.469 -0.030    0.109 -0.177 -0.015
 H         -0.103 -0.026  0.035    0.009 -0.106 -0.261   -0.211  0.258  0.119
 H         -0.293  0.131  0.048    0.306  0.511 -0.114   -0.135 -0.196  0.060
 Li        -0.133 -0.202 -0.046    0.011  0.011  0.004   -0.029 -0.033 -0.008
 TransDip  -0.242 -0.086  0.049    0.103 -0.036  0.007    0.094 -0.002  0.060

 Mode:                10                     11                     12
 Frequency:       850.43                 875.83                 959.61
 Force Cnst:      2.2322                 0.9448                 1.5875
 Red. Mass:       5.2385                 2.0904                 2.9259
 IR Active:          YES                    YES                    YES
 IR Intens:      220.060                 39.829                114.319
 Raman Active:       YES                    YES                    YES
               X      Y      Z        X      Y      Z        X      Y      Z
 O          0.070 -0.180 -0.131   -0.059 -0.061  0.018   -0.089 -0.080  0.031
 O         -0.003  0.070 -0.106    0.090  0.050 -0.045   -0.026 -0.078  0.033
 O         -0.047 -0.069 -0.079   -0.039  0.003 -0.030    0.005 -0.038  0.005
 C          0.059 -0.039  0.035    0.003  0.071 -0.064    0.060 -0.175 -0.076
 C          0.064 -0.023  0.044    0.035  0.070 -0.085    0.097  0.244  0.017
 C         -0.193  0.253  0.395   -0.058 -0.130  0.157    0.015  0.169 -0.050
 H          0.253 -0.153 -0.297   -0.057  0.379  0.282   -0.098 -0.302  0.022
 H          0.025  0.427 -0.090    0.156 -0.385  0.072    0.068 -0.303 -0.046
 H          0.011 -0.291 -0.200    0.313  0.338  0.306   -0.212  0.727  0.155
 H          0.142  0.355 -0.093   -0.123 -0.413  0.116   -0.014  0.172  0.083
 Li         0.014  0.035  0.008    0.010  0.013  0.004   -0.006 -0.001 -0.001
 TransDip  -0.324  0.266  0.224   -0.112 -0.141  0.091    0.148  0.304 -0.054

 Mode:                13                     14                     15
 Frequency:       975.94                1084.84                1106.73
 Force Cnst:      2.0673                 4.0925                 4.5343
 Red. Mass:       3.6840                 5.9020                 6.2832
 IR Active:          YES                    YES                    YES
 IR Intens:      219.793                146.064                210.079
 Raman Active:       YES                    YES                    YES
               X      Y      Z        X      Y      Z        X      Y      Z
 O          0.005 -0.112 -0.011   -0.362 -0.053  0.084    0.054  0.048 -0.012
 O          0.101 -0.161  0.071    0.017  0.029  0.018    0.401 -0.005 -0.026
 O          0.018 -0.062  0.022    0.038 -0.024  0.001   -0.038 -0.023  0.009
 C         -0.150  0.194 -0.004    0.441  0.138 -0.038    0.010 -0.136 -0.041
 C         -0.022 -0.087 -0.034   -0.103 -0.135 -0.022   -0.453  0.113  0.083
 C         -0.006  0.289 -0.101    0.043  0.037 -0.034   -0.058 -0.026  0.020
 H          0.033  0.762  0.256    0.571  0.115 -0.264    0.072 -0.055 -0.046
 H          0.203  0.036  0.084    0.062  0.353 -0.106   -0.038 -0.124 -0.063
 H         -0.105  0.049  0.017   -0.183 -0.111 -0.059   -0.637  0.022 -0.129
 H          0.034 -0.257 -0.009   -0.057 -0.022 -0.074   -0.102  0.334 -0.075
 Li        -0.004  0.003 -0.000   -0.008 -0.006 -0.002    0.008  0.012  0.003
 TransDip  -0.109  0.459 -0.058    0.369 -0.000 -0.116   -0.462 -0.047  0.011

 Mode:                16                     17                     18
 Frequency:      1163.49                1246.65                1274.30
 Force Cnst:      1.3975                 1.0480                 1.0975
 Red. Mass:       1.7521                 1.1446                 1.1471
 IR Active:          YES                    YES                    YES
 IR Intens:        6.542                 12.623                 29.199
 Raman Active:       YES                    YES                    YES
               X      Y      Z        X      Y      Z        X      Y      Z
 O          0.017  0.005 -0.051   -0.010  0.020 -0.033   -0.014  0.007  0.008
 O          0.034 -0.024  0.047   -0.024 -0.003 -0.018    0.005 -0.030  0.048
 O         -0.013 -0.005  0.002   -0.006  0.003 -0.001   -0.012 -0.005 -0.002
 C          0.002 -0.024  0.174   -0.003 -0.038  0.007    0.000 -0.034 -0.060
 C         -0.024  0.023 -0.160    0.028  0.022  0.078   -0.007  0.046 -0.014
 C         -0.001  0.021 -0.013    0.009 -0.009 -0.004    0.014  0.019 -0.003
 H          0.321 -0.140 -0.332    0.496  0.496 -0.150    0.068  0.150  0.018
 H         -0.514  0.199  0.051   -0.433 -0.467  0.054    0.110 -0.086 -0.037
 H          0.247  0.280  0.222   -0.059 -0.078 -0.059    0.550 -0.443  0.005
 H         -0.390 -0.226  0.058    0.225  0.041 -0.003   -0.486  0.447  0.068
 Li         0.001  0.001  0.000   -0.000 -0.001 -0.000   -0.001 -0.000 -0.000
 TransDip  -0.067  0.047 -0.002    0.105 -0.024  0.037    0.145  0.061 -0.072

 Mode:                19                     20                     21
 Frequency:      1388.00                1399.35                1449.71
 Force Cnst:      1.5217                 1.5625                10.3634
 Red. Mass:       1.3406                 1.3543                 8.3693
 IR Active:          YES                    YES                    YES
 IR Intens:       10.419                 21.895                804.701
 Raman Active:       YES                    YES                    YES
               X      Y      Z        X      Y      Z        X      Y      Z
 O         -0.016  0.033  0.014    0.018 -0.024 -0.014    0.001 -0.039 -0.009
 O          0.007  0.027 -0.008    0.017  0.030  0.003   -0.007  0.024 -0.020
 O         -0.007  0.006 -0.002   -0.018 -0.001 -0.005   -0.407 -0.032 -0.093
 C         -0.066 -0.105 -0.000    0.012  0.097 -0.011   -0.015 -0.024  0.009
 C          0.061 -0.069 -0.014    0.045 -0.124  0.003   -0.032  0.042  0.018
 C          0.010 -0.050  0.008    0.027  0.001  0.014    0.632  0.068  0.137
 H          0.292  0.446  0.019   -0.208 -0.160  0.037   -0.097  0.067  0.168
 H          0.319  0.472 -0.080   -0.320 -0.414  0.069   -0.060  0.249 -0.044
 H         -0.244  0.382  0.100   -0.304  0.272  0.057   -0.183 -0.187 -0.232
 H         -0.190  0.321 -0.012   -0.422  0.522  0.016   -0.030 -0.388  0.108
 Li         0.001  0.000  0.000   -0.000 -0.000 -0.000   -0.004 -0.000 -0.001
 TransDip   0.024 -0.098  0.022    0.149 -0.011 -0.008    0.907  0.053  0.008

 Mode:                22                     23                     24
 Frequency:      1518.69                1540.51                3031.72
 Force Cnst:      1.5054                 1.5542                 5.7928
 Red. Mass:       1.1078                 1.1115                 1.0697
 IR Active:          YES                    YES                    YES
 IR Intens:       22.873                 10.722                 98.124
 Raman Active:       YES                    YES                    YES
               X      Y      Z        X      Y      Z        X      Y      Z
 O          0.005 -0.003 -0.002    0.010 -0.002 -0.005    0.000 -0.000 -0.000
 O         -0.011 -0.007 -0.001   -0.001  0.000  0.002   -0.003  0.001  0.000
 O         -0.016 -0.002 -0.003    0.018  0.001  0.004   -0.000 -0.000 -0.000
 C          0.015 -0.007 -0.008    0.061 -0.050 -0.030    0.006 -0.002  0.008
 C         -0.070 -0.045 -0.009    0.020  0.015  0.003   -0.035 -0.031 -0.057
 C          0.029  0.013  0.001   -0.032  0.002 -0.003    0.001  0.001 -0.000
 H         -0.096  0.028  0.150   -0.253  0.234  0.586   -0.074  0.047 -0.057
 H         -0.158  0.073 -0.043   -0.575  0.333 -0.181    0.007 -0.012 -0.045
 H          0.403  0.209  0.495   -0.068 -0.077 -0.128    0.115  0.119 -0.185
 H          0.504  0.347 -0.319   -0.115 -0.086  0.078    0.335  0.219  0.872
 Li        -0.001 -0.000 -0.000   -0.000 -0.000 -0.000    0.000  0.000  0.000
 TransDip   0.131  0.078  0.017   -0.101  0.028 -0.003   -0.212 -0.145 -0.186

 Mode:                25                     26                     27
 Frequency:      3047.31                3098.76                3139.13
 Force Cnst:      5.8024                 6.2557                 6.3765
 Red. Mass:       1.0605                 1.1057                 1.0983
 IR Active:          YES                    YES                    YES
 IR Intens:       94.718                 78.783                 56.645
 Raman Active:       YES                    YES                    YES
               X      Y      Z        X      Y      Z        X      Y      Z
 O          0.003  0.001 -0.001    0.000 -0.000  0.001   -0.000 -0.000  0.000
 O         -0.000  0.000 -0.000    0.000 -0.000  0.000    0.000  0.000  0.000
 O          0.001 -0.000  0.000   -0.000 -0.000 -0.000    0.000  0.000  0.000
 C          0.035 -0.037 -0.046   -0.045  0.026 -0.078   -0.004  0.001 -0.014
 C         -0.002 -0.001  0.005   -0.009 -0.010  0.004    0.032  0.038 -0.074
 C         -0.002  0.001  0.000    0.001  0.000 -0.000   -0.001 -0.001  0.000
 H         -0.338  0.226 -0.287    0.590 -0.411  0.467    0.064 -0.044  0.050
 H         -0.096  0.183  0.838   -0.063  0.113  0.452   -0.016  0.031  0.117
 H          0.030  0.025 -0.040    0.081  0.087 -0.118   -0.464 -0.498  0.669
 H         -0.009 -0.007 -0.020    0.027  0.019  0.073    0.089  0.065  0.213
 Li        -0.000 -0.000 -0.000    0.000  0.000  0.000    0.000  0.000 -0.000
 TransDip   0.221 -0.136 -0.173   -0.206  0.047 -0.190    0.090  0.087 -0.206

 STANDARD THERMODYNAMIC QUANTITIES AT   298.15 K  AND     1.00 ATM

   This Molecule has  1 Imaginary Frequencies
   Zero point vibrational energy:       46.433 kcal/mol

   Atom    1 Element O  Has Mass   15.99491
   Atom    2 Element O  Has Mass   15.99491
   Atom    3 Element O  Has Mass   15.99491
   Atom    4 Element C  Has Mass   12.00000
   Atom    5 Element C  Has Mass   12.00000
   Atom    6 Element C  Has Mass   12.00000
   Atom    7 Element H  Has Mass    1.00783
   Atom    8 Element H  Has Mass    1.00783
   Atom    9 Element H  Has Mass    1.00783
   Atom   10 Element H  Has Mass    1.00783
   Atom   11 Element Li Has Mass    7.01600
   Molecular Mass:    95.032050 amu
   Principal axes and moments of inertia in amu*Bohr^2:
                             1           2           3
    Eigenvalues --      270.07083   705.09363   926.27421
          X               0.95744    -0.27294     0.09389
          Y               0.27812     0.95939    -0.04718
          Z              -0.07720     0.07129     0.99446
   Rotational Symmetry Number is   1
   The Molecule is an Asymmetric Top
   Translational Enthalpy:        0.889 kcal/mol
   Rotational Enthalpy:           0.889 kcal/mol
   Vibrational Enthalpy:         48.501 kcal/mol
   gas constant (RT):             0.592 kcal/mol
   Translational Entropy:        39.566  cal/mol.K
   Rotational Entropy:           26.669  cal/mol.K
   Vibrational Entropy:          13.024  cal/mol.K

   Total Enthalpy:               50.871 kcal/mol
   Total Entropy:                79.260  cal/mol.K
Archival summary:
1\1\nid01333\FREQ\ProcedureUnspecified\BasisUnspecified\33i14(2)\sblau\TueNov1315:29:462018TueNov1315:29:462018\0\\#,FREQ,ProcedureUnspecified,BasisUnspecified,\\0,2\O\C,1,1.41963\H,2,1.09282,1,110.402\H,2,1.09472,1,109.115,3,-119.738,0\C,1,1.44036,2,108.961,3,-125.332,0\O,5,1.27314,1,116.178,2,-148.102,0\O,5,1.41991,1,105.067,2,-17.5286,0\C,7,1.41318,5,105.835,1,34.0548,0\H,8,1.08966,7,108.997,5,-156.981,0\H,8,1.09672,7,110.338,5,82.9723,0\Li,6,1.88731,5,124.247,1,-15.7864,0\\\@

 Total job time:  878.92s(wall), 3183.36s(cpu) 
 Tue Nov 13 15:29:46 2018

        *************************************************************
        *                                                           *
        *  Thank you very much for using Q-Chem.  Have a nice day.  *
        *                                                           *
        *************************************************************


