
Running Job 1 of 1 mol.qin
qchem mol.qin_50921.0 /tmp/qchem50921/ 1
/global/common/cori/software/qchem/5.1/exe/qcprog.exe mol.qin_50921.0 /tmp/qchem50921/
Check license passed

                  Welcome to Q-Chem
     A Quantum Leap Into The Future Of Chemistry


 Q-Chem 5.1, Q-Chem, Inc., Pleasanton, CA (2018)

 Yihan Shao,  Zhengting Gan,  E. Epifanovsky,  A. T. B. Gilbert,  M. Wormit,  
 J. Kussmann,  A. W. Lange,  A. Behn,  Jia Deng,  Xintian Feng,  D. Ghosh,  
 M. Goldey,  P. R. Horn,  L. D. Jacobson,  I. Kaliman,  T. Kus,  A. Landau,  
 Jie Liu,  E. I. Proynov,  R. M. Richard,  R. P. Steele,  E. J. Sundstrom,  
 H. L. Woodcock III,  P. M. Zimmerman,  D. Zuev,  B. Albrecht,  E. Alguire,  
 S. A. Baeppler,  D. Barton,  Z. Benda,  Y. A. Bernard,  E. J. Berquist,  
 K. B. Bravaya,  H. Burton,  D. Casanova,  Chun-Min Chang,  Yunqing Chen,  
 A. Chien,  K. D. Closser,  M. P. Coons,  S. Coriani,  S. Dasgupta,  
 A. L. Dempwolff,  M. Diedenhofen,  Hainam Do,  R. G. Edgar,  Po-Tung Fang,  
 S. Faraji,  S. Fatehi,  Qingguo Feng,  K. D. Fenk,  J. Fosso-Tande,  
 Qinghui Ge,  A. Ghysels,  G. Gidofalvi,  J. Gomes,  J. Gonthier,  A. Gunina,  
 D. Hait,  M. W. D. Hanson-Heine,  P. H. P. Harbach,  A. W. Hauser,  
 J. E. Herr,  E. G. Hohenstein,  Z. C. Holden,  Kerwin Hui,  B. C. Huynh,  
 T.-C. Jagau,  Hyunjun Ji,  B. Kaduk,  K. Khistyaev,  Jaehoon Kim,  
 P. Klunzinger,  K. Koh,  D. Kosenkov,  L. Koulias,  T. Kowalczyk,  
 C. M. Krauter,  A. Kunitsa,  Ka Un Lao,  A. Laurent,  K. V. Lawler,  
 Joonho Lee,  D. Lefrancois,  S. Lehtola,  D. S. Levine,  Yi-Pei Li,  
 You-Sheng Lin,  Fenglai Liu,  E. Livshits,  A. Luenser,  P. Manohar,  
 E. Mansoor,  S. F. Manzer,  Shan-Ping Mao,  Yuezhi Mao,  N. Mardirossian,  
 A. V. Marenich,  T. Markovich,  L. A. Martinez-Martinez,  S. A. Maurer,  
 N. J. Mayhall,  S. C. McKenzie,  J.-M. Mewes,  A. F. Morrison,  
 J. W. Mullinax,  K. Nanda,  T. S. Nguyen-Beck,  R. Olivares-Amaya,  
 J. A. Parkhill,  T. M. Perrine,  F. Plasser,  P. Pokhilko,  S. Prager,  
 A. Prociuk,  E. Ramos,  D. R. Rehn,  F. Rob,  M. Schneider,  N. Sergueev,  
 S. M. Sharada,  S. Sharma,  D. W. Small,  T. Stauch,  T. Stein,  
 Yu-Chuan Su,  A. J. W. Thom,  A. Tkatchenko,  T. Tsuchimochi,  N. M. Tubman,  
 L. Vogt,  M. L. Vidal,  O. Vydrov,  M. A. Watson,  J. Wenzel,  
 M. de Wergifosse,  T. A. Wesolowski,  A. White,  J. Witte,  A. Yamada,  
 Jun Yang,  K. Yao,  S. Yeganeh,  S. R. Yost,  Zhi-Qiang You,  A. Zech,  
 Igor Ying Zhang,  Xing Zhang,  Yan Zhao,  Ying Zhu,  B. R. Brooks,  
 G. K. L. Chan,  C. J. Cramer,  M. S. Gordon,  W. J. Hehre,  A. Klamt,  
 M. W. Schmidt,  C. D. Sherrill,  D. G. Truhlar,  A. Aspuru-Guzik,  R. Baer,  
 A. T. Bell,  N. A. Besley,  Jeng-Da Chai,  R. A. DiStasio Jr.,  A. Dreuw,  
 B. D. Dunietz,  T. R. Furlani,  Chao-Ping Hsu,  Yousung Jung,  Jing Kong,  
 D. S. Lambrecht,  WanZhen Liang,  C. Ochsenfeld,  V. A. Rassolov,  
 L. V. Slipchenko,  J. E. Subotnik,  T. Van Voorhis,  J. M. Herbert,  
 A. I. Krylov,  P. M. W. Gill,  M. Head-Gordon

 Contributors to earlier versions of Q-Chem not listed above: 
 R. D. Adamson,  B. Austin,  J. Baker,  G. J. O. Beran,  K. Brandhorst,  
 S. T. Brown,  E. F. C. Byrd,  A. K. Chakraborty,  C.-L. Cheng,  
 Siu Hung Chien,  D. M. Chipman,  D. L. Crittenden,  H. Dachsel,  
 R. J. Doerksen,  A. D. Dutoi,  L. Fusti-Molnar,  W. A. Goddard III,  
 A. Golubeva-Zadorozhnaya,  S. R. Gwaltney,  G. Hawkins,  A. Heyden,  
 S. Hirata,  G. Kedziora,  F. J. Keil,  C. Kelley,  Jihan Kim,  R. A. King,  
 R. Z. Khaliullin,  P. P. Korambath,  W. Kurlancheek,  A. M. Lee,  M. S. Lee,  
 S. V. Levchenko,  Ching Yeh Lin,  D. Liotard,  R. C. Lochan,  I. Lotan,  
 P. E. Maslen,  N. Nair,  D. P. O'Neill,  D. Neuhauser,  E. Neuscamman,  
 C. M. Oana,  R. Olson,  B. Peters,  R. Peverati,  P. A. Pieniazek,  
 Y. M. Rhee,  J. Ritchie,  M. A. Rohrdanz,  E. Rosta,  N. J. Russ,  
 H. F. Schaefer III,  N. E. Schultz,  N. Shenvi,  A. C. Simmonett,  A. Sodt,  
 D. Stuck,  K. S. Thanthiriwatte,  V. Vanovschi,  Tao Wang,  A. Warshel,  
 C. F. Williams,  Q. Wu,  X. Xu,  W. Zhang

 Please cite Q-Chem as follows:
 Y. Shao et al., Mol. Phys. 113, 184-215 (2015)
 DOI: 10.1080/00268976.2014.952696

 Q-Chem 5.1.0 for Intel X86 EM64T Linux

 Parts of Q-Chem use Armadillo 8.300.2 (Tropical Shenanigans).
 http://arma.sourceforge.net/

 Q-Chem begins on Tue Nov 13 15:39:17 2018  

Host: cori01
0

     Scratch files written to /tmp/qchem50921//
 Jun2518 |scratch|qcdevops|jenkins|workspace|build_RNUM -1
Processing $rem in /global/common/cori/software/qchem/5.1/config/preferences.
 MEM_TOTAL  96000 
Symmetry turned off for PCM/SM12/SMD calculation

Checking the input file for inconsistencies... 	...done.

--------------------------------------------------------------
User input:
--------------------------------------------------------------
$molecule
0 2
O     -2.0811227156      1.1763675454     -0.1630340903
O     -1.9885728818     -1.0898907069     -0.0711920703
O     -0.0463985630      0.1020982086     -0.3253820199
C     -3.3826229045      0.7305986033      0.1878467369
C     -3.3610911192     -0.7628840464     -0.1497821962
C     -1.2935470261      0.0420470421     -0.5727434482
H     -4.1388519152      1.2794809239     -0.3787668701
H     -3.5440691472      0.9028478644      1.2568198634
H     -3.9143254259     -1.3768527668      0.5602605417
H     -3.7396859390     -0.9487739419     -1.1622366924
Li      0.9639853078      1.6925739626     -0.1982090917
$end

$rem
job_type = freq
basis = 6-311++g*
max_scf_cycles = 200
gen_scfman = true
scf_algorithm = gdm
method = wb97xd
geom_opt_max_cycles = 200
solvent_method = pcm
xc_grid = 3
$end

$pcm
heavypoints 194
hpoints 194
radii uff
theory cpcm
vdwscale 1.1
$end

$solvent
dielectric 30.0
$end
--------------------------------------------------------------
 ----------------------------------------------------------------
             Standard Nuclear Orientation (Angstroms)
    I     Atom           X                Y                Z
 ----------------------------------------------------------------
    1      O      -2.0811227156     1.1763675454    -0.1630340903
    2      O      -1.9885728818    -1.0898907069    -0.0711920703
    3      O      -0.0463985630     0.1020982086    -0.3253820199
    4      C      -3.3826229045     0.7305986033     0.1878467369
    5      C      -3.3610911192    -0.7628840464    -0.1497821962
    6      C      -1.2935470261     0.0420470421    -0.5727434482
    7      H      -4.1388519152     1.2794809239    -0.3787668701
    8      H      -3.5440691472     0.9028478644     1.2568198634
    9      H      -3.9143254259    -1.3768527668     0.5602605417
   10      H      -3.7396859390    -0.9487739419    -1.1622366924
   11      Li      0.9639853078     1.6925739626    -0.1982090917
 ----------------------------------------------------------------
 Nuclear Repulsion Energy =   265.0978719855 hartrees
 There are       25 alpha and       24 beta electrons
 Requested basis set is 6-311++G(d)
 There are 58 shells and 170 basis functions

 Total QAlloc Memory Limit  96000 MB
 Mega-Array Size       188 MB
 MEM_STATIC part       192 MB
 Discretize the solute cavity surface with Lebedev spheres
	Using 194 Lebedev grid points for each H atom
	Using 194 Lebedev grid points for other atoms
	Atomic van der Waals radii will be scaled by 1.10
 Remove points where switching function is < 1.0e-08
 Keep 1052 surface tesserae and discard 1082 interior tesserae
 Molecular Surface Area = 139.292 Angst**2

                       Distance Matrix (Angstroms)
             O (  1)   O (  2)   O (  3)   C (  4)   C (  5)   C (  6)
   O (  2)  2.270006
   O (  3)  2.306624  2.292922
   C (  4)  1.419764  2.307522  3.433484
   C (  5)  2.323616  1.413123  3.430192  1.531322
   C (  6)  1.440424  1.419823  1.272860  2.327410  2.258661
   H (  7)  2.071575  3.214378  4.258786  1.092797  2.197408  3.108799
   H (  8)  2.056942  2.855554  3.921513  1.094732  2.187847  3.025414
   H (  9)  3.225325  2.046852  4.234680  2.205165  1.089581  3.188331
   H ( 10)  2.874972  2.068016  3.930016  2.184150  1.096792  2.704223
   Li( 11)  3.088752  4.059045  1.888561  4.468494  4.973721  2.821519
             H (  7)   H (  8)   H (  9)   H ( 10)
   H (  8)  1.780664
   H (  9)  2.826357  2.412327
   H ( 10)  2.395470  3.052639  1.783465
   Li( 11)  5.122714  4.802430  5.813310  5.480017
 
 A cutoff of  1.0D-12 yielded   1669 shell pairs
 There are     14617 function pairs (     15864 Cartesian)
 
 -------------------------------------------------------
 OpenMP Integral Computing Module                       
 Release: version 1.0, May 2013, Q-Chem Inc. Pittsburgh 
 -------------------------------------------------------
 Integral Job Info:
 Integral job number is                      11
 Integral operator is                         1
 short-range coefficients              22203600
 long-range coefficients              100000000
 Omega coefficients                         200
 if combine SR and LR in K                    1
 Integral screening is                        0
 Integral computing path is                   2
 max size of driver memory is            800000
 size of driver memory is                593474
 size of scratch memory is              2428936
 max col of scratch BK array               1296
 max len of scratch array in speh3          155
 max len of scratch index in speh4           18
 max int batch size is                      520
 min int batch size is                       52
 fixed nKL is                                52
 max L of basis functions is                  2
 order of int derivative is                   0
 number of shells is                         58
 number of basis is                         177
 number of cartesian basis is               177
 number of contracted shell pairs          1669
 number of primitive shell pairs           4773
 maxK2 (contraction) of shell pair           36
 max number of K2 of shell pair               1
 max number of CS2 of shell pair            270
 max number of PS2 of shell pair            894
 mem total for path MDJ                  537338
 -------------------------------------------------------
 Smallest overlap matrix eigenvalue = 6.30E-05
 Guess from superposition of atomic densities
 Warning:  Energy on first SCF cycle will be non-variational
 SAD guess density has 49.000000 electrons

 -----------------------------------------------------------------------
  General SCF calculation program by
  Eric Jon Sundstrom, Paul Horn, Yuezhi Mao, Dmitri Zuev, Alec White,
  David Stuck, Shaama M.S., Shane Yost, Joonho Lee, David Small,
  Daniel Levine, Susi Lehtola, Hugh Burton, Evgeny Epifanovsky
 -----------------------------------------------------------------------
 Exchange:     0.2220 Hartree-Fock + 1.0000 wB97X-D + LR-HF
 Correlation:  1.0000 wB97X-D
 Using SG-3 standard quadrature grid
 Dispersion:   Grimme D
 using 32 threads for integral computing
 -------------------------------------------------------
 OpenMP Integral computing Module                
 Release: version 1.0, May 2013, Q-Chem Inc. Pittsburgh 
 -------------------------------------------------------
 using 32 threads for integral computing
 -------------------------------------------------------
 OpenMP Integral computing Module                
 Release: version 1.0, May 2013, Q-Chem Inc. Pittsburgh 
 -------------------------------------------------------
 -------------------------------------------------------
 OpenMP BLAS3 based DFT computing Module                
 Release: version 1.0, May 2013, Q-Chem Inc. Pittsburgh 
 -------------------------------------------------------
 A unrestricted SCF calculation will be
 performed using Roothaan-Hall, GDM
 SCF converges when RMS gradient is below 1.0e-08
 ---------------------------------------
  Cycle       Energy         DIIS error
 ---------------------------------------
    1    -350.9818688337      2.32e-02  Roothaan Step
 ---------------------------------------
  Cycle       Energy        RMS Gradient
 ---------------------------------------
    1    -349.7885821012      1.04e-01   Descent step
    2    -349.9353069515      1.79e-02   Normal BFGS step
    3    -349.9457836490      9.89e-03   Normal BFGS step
    4    -349.9471446139      5.31e-03   Normal BFGS step
    5    -349.9478753824      1.26e-03   Normal BFGS step
    6    -349.9479099533      6.85e-04   Normal BFGS step
    7    -349.9479188361      3.33e-04   Normal BFGS step
    8    -349.9479199742      1.08e-04   Normal BFGS step
    9    -349.9479201458      5.05e-05   Normal BFGS step
   10    -349.9479202287      3.17e-05   Normal BFGS step
   11    -349.9479202351      9.31e-06   Normal BFGS step
   12    -349.9479202367      5.10e-06   Normal BFGS step
   13    -349.9479202369      1.53e-06   Normal BFGS step
   14    -349.9479202369      6.17e-07   Normal BFGS step
   15    -349.9479202369      1.70e-07   Normal BFGS step
   16    -349.9479202369      9.48e-08   Normal BFGS step
   17    -349.9479202369      3.70e-08   Normal BFGS step
   18    -349.9479202369      1.54e-08   Normal BFGS step
   19    -349.9479202369      4.83e-09  Convergence criterion met
 ---------------------------------------
 SCF time:   CPU 664.12s  wall 30.00s 
<S^2> =          0.753402186

************** Final PCM Free Energy Summary **************
 G_electrostatic  =      -0.07971551 hartree =     -50.02223528 kcal/mol
 G_cavitation     =       0.00000000 hartree =       0.00000000 kcal/mol
 G_dispersion     =       0.00000000 hartree =       0.00000000 kcal/mol
 G_repulsion      =       0.00000000 hartree =       0.00000000 kcal/mol
 --------------------------------------------------
 Non-electrostatic Free Energy =       0.00000000 hartree =       0.00000000 kcal/mol
 Total                         =      -0.07971551 hartree =     -50.02223528 kcal/mol
 --------------------------------------------------
 SCF Energy (H0 + V/2)                       =    -349.94792024 
 Solute Internal Energy (H0)                 =    -349.86820473 
 Total Free Energy (H0 + V/2 + non-elec)     =    -349.94792024 hartree
                                             = -219595.63430543 kcal/mol
***********************************************************

 SCF   energy in the final basis set =     -349.9479202369
 Total energy in the final basis set =     -349.9479202369
 
 --------------------------------------------------------------
 
                    Orbital Energies (a.u.)
 --------------------------------------------------------------
 
 Alpha MOs
 -- Occupied --
-19.254 -19.249 -19.188 -10.383 -10.326 -10.325  -2.028  -1.196
 -1.094  -1.073  -0.837  -0.722  -0.668  -0.595  -0.576  -0.547
 -0.509  -0.496  -0.478  -0.427  -0.424  -0.367  -0.359  -0.350
 -0.205
 -- Virtual --
  0.013   0.018   0.019   0.022   0.060   0.066   0.070   0.075
  0.075   0.077   0.084   0.098   0.119   0.133   0.142   0.146
  0.168   0.178   0.182   0.195   0.197   0.202   0.205   0.207
  0.219   0.224   0.235   0.241   0.256   0.275   0.284   0.298
  0.309   0.324   0.343   0.352   0.359   0.371   0.373   0.383
  0.393   0.398   0.408   0.429   0.437   0.444   0.458   0.473
  0.489   0.523   0.564   0.577   0.626   0.641   0.654   0.664
  0.666   0.689   0.705   0.720   0.731   0.750   0.764   0.769
  0.779   0.787   0.817   0.848   0.881   0.893   0.944   1.036
  1.058   1.097   1.166   1.184   1.197   1.234   1.269   1.280
  1.299   1.336   1.384   1.392   1.477   1.532   1.599   1.640
  1.680   1.695   1.768   1.788   1.812   1.830   1.863   1.872
  1.908   1.956   1.959   2.054   2.189   2.532   2.597   2.605
  2.656   2.750   2.863   2.911   2.995   3.008   3.018   3.039
  3.084   3.103   3.124   3.176   3.209   3.258   3.298   3.398
  3.415   3.536   3.580   3.702   3.861   3.936   3.995   4.139
  4.191   4.233   5.159   5.183   5.231   5.300   5.370   5.491
  5.505   5.805   5.973  23.674  23.816  23.834  50.037  50.070
 50.138
 
 Beta MOs
 -- Occupied --
-19.252 -19.246 -19.184 -10.373 -10.326 -10.325  -2.028  -1.188
 -1.087  -1.062  -0.833  -0.719  -0.654  -0.589  -0.572  -0.540
 -0.496  -0.490  -0.450  -0.423  -0.421  -0.356  -0.348  -0.338
 -- Virtual --
  0.017   0.021   0.023   0.024   0.054   0.066   0.070   0.074
  0.078   0.084   0.087   0.102   0.105   0.125   0.138   0.147
  0.155   0.172   0.181   0.185   0.197   0.199   0.204   0.209
  0.213   0.223   0.232   0.238   0.243   0.258   0.282   0.288
  0.301   0.312   0.329   0.347   0.357   0.364   0.372   0.380
  0.387   0.395   0.400   0.413   0.435   0.443   0.446   0.462
  0.481   0.490   0.530   0.565   0.583   0.628   0.642   0.656
  0.666   0.668   0.693   0.707   0.725   0.740   0.758   0.766
  0.770   0.779   0.789   0.819   0.850   0.885   0.896   0.947
  1.043   1.063   1.100   1.171   1.188   1.200   1.239   1.275
  1.284   1.302   1.341   1.388   1.395   1.480   1.545   1.603
  1.647   1.695   1.702   1.772   1.802   1.820   1.835   1.869
  1.876   1.915   1.965   1.967   2.070   2.190   2.532   2.598
  2.605   2.659   2.785   2.871   2.914   3.004   3.016   3.021
  3.049   3.090   3.111   3.138   3.181   3.214   3.273   3.302
  3.401   3.425   3.549   3.587   3.714   3.862   3.938   3.997
  4.146   4.193   4.240   5.167   5.190   5.247   5.305   5.375
  5.495   5.508   5.811   5.981  23.675  23.817  23.850  50.040
 50.072  50.142
 --------------------------------------------------------------
 
          Ground-State Mulliken Net Atomic Charges

     Atom                 Charge (a.u.)    Spin (a.u.)
  --------------------------------------------------------
      1 O                    -0.154228       0.022774
      2 O                    -0.136562       0.004479
      3 O                    -0.570573       0.143793
      4 C                    -0.422813      -0.084635
      5 C                    -0.476897       0.044303
      6 C                    -0.076648       0.857563
      7 H                     0.247592      -0.001608
      8 H                     0.249226       0.005736
      9 H                     0.249067      -0.000785
     10 H                     0.254605       0.002749
     11 Li                    0.837231       0.005630
  --------------------------------------------------------
  Sum of atomic charges =     0.000000
  Sum of spin   charges =     1.000000

 -----------------------------------------------------------------
                    Cartesian Multipole Moments
 -----------------------------------------------------------------
    Charge (ESU x 10^10)
                 0.0000
    Dipole Moment (Debye)
         X       3.9409      Y       7.0057      Z       1.0729
       Tot       8.1094
    Quadrupole Moments (Debye-Ang)
        XX     -23.1078     XY       9.0595     YY     -29.5666
        XZ      -2.7799     YZ      -0.9281     ZZ     -39.1599
    Octopole Moments (Debye-Ang^2)
       XXX     178.5729    XXY       1.8761    XYY      96.0597
       YYY      15.0781    XXZ      10.2339    XYZ      -2.2955
       YYZ       5.2626    XZZ      75.9330    YZZ      -2.0721
       ZZZ      24.9484
    Hexadecapole Moments (Debye-Ang^3)
      XXXX   -1100.6175   XXXY      18.9496   XXYY    -242.2541
      XYYY      29.4317   YYYY    -169.7714   XXXZ     -28.5717
      XXYZ      -3.0679   XYYZ     -12.2080   YYYZ      -7.7277
      XXZZ    -227.6157   XYZZ       2.0957   YYZZ     -45.4941
      XZZZ     -27.0021   YZZZ      -1.1519   ZZZZ     -86.2825
 -----------------------------------------------------------------
 Calculating MO derivatives via CPSCF
 Computing fast CPCM-SWIG hessian.
 D1JvT checksum  = 559680 28346.2254275339
 D1KAT checksum  = 1107480 2669.4914694771
 D1JvT checksum  = 559680 17031.1136830112
 D1KAT checksum  = 1107480 1166.7455637900
   1         3          33      0.220795    0.034751
   2         3          33      0.051790    0.010385
   3         3          33      0.011404    0.002709
   4         3          33      0.002263    0.000556
   5         5          31      0.000385    0.000102
   6        30           6      0.000043    0.000016
   7        33           3      0.000006    0.000003
   8        36           0      0.000000    0.000000    Roots Converged
 Time for AOints: 73.1 s (CPU) 4.3 s (wall)
 ------------------------------------------------------------------------------
                     AOints        : Timing summary (seconds)
 ------------------------------------------------------------------------------
     job step          cpu (% of tot)      sys (% of tot)     wall (% of tot)
 ------------------------------------------------------------------------------
  cpscf_lag         0.7925E+03 (41.9)   0.4222E-02 (48.8)   0.2751E+03 (63.1)
  iterzp            0.1026E+04 (54.2)   0.3680E-02 (42.6)   0.1565E+03 (35.9)
  make_fx           0.0000E+00 ( 0.0)   0.0000E+00 ( 0.0)   0.0000E+00 ( 0.0)
  AOints            0.7313E+02 ( 3.9)   0.7410E-03 ( 8.6)   0.4301E+01 ( 1.0)
 ------------------------------------------------------------------------------
   Grand Totals     0.1892E+04          0.8643E-02          0.4360E+03
 ------------------------------------------------------------------------------
 Calculating analytic Hessian of the SCF energy
 Polarizability Matrix (a.u.)
            1           2           3
    1 -79.9431436  -0.4980251  -3.1215625
    2  -0.4980251 -62.9302282  -1.7514842
    3  -3.1215625  -1.7514842 -70.3514884
atom: 0 element: 8
atom: 1 element: 8
atom: 2 element: 8
atom: 3 element: 6
atom: 4 element: 6
atom: 5 element: 6
atom: 6 element: 1
atom: 7 element: 1
atom: 8 element: 1
atom: 9 element: 1
atom: 10 element: 3
 
 Direct stationary perturbation theory relativistic correction:
 
 rels  =       0.117529773727
 relv  =      -0.527661003776
 rel2e =       0.000000000000
 E_rel =      -0.410131230049
 
 Computing fast CPCM-SWIG hessian
 Hessian of the SCF Energy
            1           2           3           4           5           6
    1   0.3537762   0.0324501  -0.0845035   0.0064550   0.0171050  -0.0061761
    2   0.0324501   0.2882337   0.0108535  -0.0139287  -0.0661414  -0.0057325
    3  -0.0845035   0.0108535   0.0708975  -0.0049514   0.0104309   0.0151530
    4   0.0064550  -0.0139287  -0.0049514   0.3971421  -0.0159630  -0.0018051
    5   0.0171050  -0.0661414   0.0104309  -0.0159630   0.2826866  -0.0603459
    6  -0.0061761  -0.0057325   0.0151530  -0.0018051  -0.0603459   0.0805214
    7  -0.0643664   0.0336541   0.0176761  -0.0579536  -0.0353670   0.0162692
    8   0.0379513   0.0120343   0.0087985  -0.0458052   0.0028096  -0.0096438
    9   0.0117930   0.0077680   0.0217419   0.0139278  -0.0061933   0.0204780
   10  -0.1736593  -0.0285371   0.0311748  -0.0312535   0.0265402   0.0116212
   11  -0.0546105  -0.0987883   0.0038912   0.0238590  -0.0317996   0.0004845
   12   0.0363236   0.0052214  -0.0612713  -0.0014515   0.0044377   0.0092920
   13  -0.0236415  -0.0212518  -0.0020497  -0.2008487   0.0197101  -0.0134654
   14  -0.0231486  -0.0335475   0.0047368   0.0536143  -0.0831609   0.0126032
   15   0.0054283   0.0141291   0.0054633  -0.0154016   0.0132901  -0.0610295
   16  -0.0488925  -0.0201974   0.0121524  -0.0576212   0.0121168   0.0064166
   17   0.0120371  -0.1116989  -0.0459102  -0.0256588  -0.1152424   0.0652036
   18   0.0160092  -0.0208883  -0.0576106   0.0165699   0.0400523  -0.0731531
   19  -0.0355862   0.0146216  -0.0056231   0.0011387   0.0001249  -0.0004625
   20  -0.0127191   0.0102268  -0.0051832   0.0042565  -0.0051795  -0.0022360
   21   0.0080723  -0.0090774   0.0098006   0.0014693  -0.0012787   0.0000413
   22  -0.0222541   0.0040334   0.0369657   0.0017204   0.0014600  -0.0017897
   23  -0.0083235   0.0060248   0.0119087   0.0015123   0.0010526   0.0006160
   24   0.0160043   0.0015007  -0.0029337   0.0019608  -0.0009498  -0.0000009
   25   0.0006821  -0.0000506  -0.0003528  -0.0291558  -0.0229861   0.0226590
   26  -0.0037679  -0.0048760   0.0005887   0.0077637   0.0084563  -0.0088146
   27  -0.0017958  -0.0020067   0.0005950   0.0000201  -0.0031641   0.0038613
   28   0.0009146  -0.0009404   0.0003058  -0.0319326  -0.0046705  -0.0321950
   29  -0.0005784   0.0007749   0.0010263   0.0069734   0.0043728   0.0093632
   30  -0.0010056  -0.0016029  -0.0008688  -0.0107666   0.0035214   0.0049860
   31   0.0065719   0.0001469  -0.0007943   0.0023092   0.0019296  -0.0010723
   32   0.0036045  -0.0022425  -0.0011414   0.0033766   0.0021459  -0.0014977
   33  -0.0001497  -0.0001651  -0.0009669   0.0004283   0.0001995  -0.0001494
            7           8           9          10          11          12
    1  -0.0643664   0.0379513   0.0117930  -0.1736593  -0.0546105   0.0363236
    2   0.0336541   0.0120343   0.0077680  -0.0285371  -0.0987883   0.0052214
    3   0.0176761   0.0087985   0.0217419   0.0311748   0.0038912  -0.0612713
    4  -0.0579536  -0.0458052   0.0139278  -0.0312535   0.0238590  -0.0014515
    5  -0.0353670   0.0028096  -0.0061933   0.0265402  -0.0317996   0.0044377
    6   0.0162692  -0.0096438   0.0204780   0.0116212   0.0004845   0.0092920
    7   0.5376370   0.0391453   0.0821673   0.0052945   0.0079665  -0.0049468
    8   0.0391453   0.0631881   0.0037882  -0.0006272  -0.0044999   0.0028718
    9   0.0821673   0.0037882   0.0271034   0.0032566   0.0000767   0.0021616
   10   0.0052945  -0.0006272   0.0032566   0.5036898  -0.0965142   0.0263244
   11   0.0079665  -0.0044999   0.0000767  -0.0965142   0.4742265   0.0014257
   12  -0.0049468   0.0028718   0.0021616   0.0263244   0.0014257   0.5839887
   13   0.0067079   0.0016420   0.0041369  -0.0584503   0.0092505  -0.0005449
   14  -0.0070057  -0.0063402   0.0007962  -0.0095241  -0.1684491  -0.0296810
   15   0.0026690   0.0015835   0.0027840  -0.0017216  -0.0331107  -0.0924375
   16  -0.4154618  -0.0186130  -0.1155968  -0.0435602   0.0092293   0.0152261
   17  -0.0237598  -0.0619376  -0.0066987   0.0276802   0.0213363  -0.0041986
   18  -0.1131806  -0.0062693  -0.0805473   0.0093626  -0.0008252  -0.0136331
   19  -0.0042137   0.0017918   0.0008454  -0.1560919   0.0892311  -0.0937259
   20   0.0000722   0.0009004   0.0003244   0.0927254  -0.1191068   0.0717270
   21   0.0002331  -0.0001467  -0.0006981  -0.0972110   0.0757079  -0.1303136
   22  -0.0021407   0.0001744  -0.0008590  -0.0474709   0.0084614   0.0217193
   23  -0.0003966   0.0000985  -0.0003097   0.0098495  -0.0572449  -0.0404742
   24   0.0015406  -0.0004799  -0.0003840   0.0222800  -0.0415739  -0.2967322
   25  -0.0028854  -0.0021335   0.0001692   0.0030645   0.0001294  -0.0026250
   26  -0.0003144   0.0008158   0.0001119  -0.0138808  -0.0096168   0.0199212
   27   0.0005697   0.0003693   0.0000851  -0.0052756  -0.0057601   0.0055334
   28  -0.0019470  -0.0011861   0.0014159   0.0008283   0.0016369   0.0024698
   29   0.0001269   0.0002351   0.0000877  -0.0066048  -0.0060132  -0.0315244
   30  -0.0016887  -0.0003641  -0.0006629   0.0000832  -0.0001525  -0.0061362
   31  -0.0006708  -0.0123397  -0.0012563  -0.0023910   0.0013607   0.0012309
   32  -0.0141216  -0.0073040   0.0002487  -0.0011070  -0.0000443   0.0002735
   33  -0.0013089  -0.0005076   0.0079382   0.0001055  -0.0001635  -0.0004519
           13          14          15          16          17          18
    1  -0.0236415  -0.0231486   0.0054283  -0.0488925   0.0120371   0.0160092
    2  -0.0212518  -0.0335475   0.0141291  -0.0201974  -0.1116989  -0.0208883
    3  -0.0020497   0.0047368   0.0054633   0.0121524  -0.0459102  -0.0576106
    4  -0.2008487   0.0536143  -0.0154016  -0.0576212  -0.0256588   0.0165699
    5   0.0197101  -0.0831609   0.0132901   0.0121168  -0.1152424   0.0400523
    6  -0.0134654   0.0126032  -0.0610295   0.0064166   0.0652036  -0.0731531
    7   0.0067079  -0.0070057   0.0026690  -0.4154618  -0.0237598  -0.1131806
    8   0.0016420  -0.0063402   0.0015835  -0.0186130  -0.0619376  -0.0062693
    9   0.0041369   0.0007962   0.0027840  -0.1155968  -0.0066987  -0.0805473
   10  -0.0584503  -0.0095241  -0.0017216  -0.0435602   0.0276802   0.0093626
   11   0.0092505  -0.1684491  -0.0331107   0.0092293   0.0213363  -0.0008252
   12  -0.0005449  -0.0296810  -0.0924375   0.0152261  -0.0041986  -0.0136331
   13   0.4928752   0.0972668  -0.0195797  -0.0508960  -0.0284181   0.0061785
   14   0.0972668   0.4851172  -0.0426943  -0.0193850   0.0110674  -0.0050209
   15  -0.0195797  -0.0426943   0.5862725   0.0147339  -0.0015479  -0.0011404
   16  -0.0508960  -0.0193850   0.0147339   0.6199616   0.0434487   0.0701391
   17  -0.0284181   0.0110674  -0.0015479   0.0434487   0.2731798  -0.0089070
   18   0.0061785  -0.0050209  -0.0011404   0.0701391  -0.0089070   0.2227611
   19   0.0032699  -0.0000463   0.0007776   0.0002973  -0.0073185  -0.0045261
   20   0.0193489  -0.0090000   0.0170785  -0.0011543  -0.0047729  -0.0006992
   21   0.0058299  -0.0058443   0.0037695   0.0006256   0.0003427   0.0008740
   22  -0.0006479  -0.0006916  -0.0013659   0.0022631  -0.0063462   0.0037868
   23  -0.0005689  -0.0044703  -0.0328174   0.0012990  -0.0035240   0.0014905
   24  -0.0021185   0.0002401  -0.0043444  -0.0028125   0.0033151   0.0000025
   25  -0.1034457  -0.0712890   0.0834864  -0.0015759   0.0075549  -0.0000411
   26  -0.0777604  -0.1364004   0.1042132   0.0014455  -0.0041460  -0.0003893
   27   0.0900334   0.1063755  -0.1703547  -0.0005372  -0.0019861   0.0004633
   28  -0.0636449  -0.0185573  -0.0684162   0.0029747   0.0063580  -0.0046567
   29  -0.0181120  -0.0542139  -0.0397241  -0.0001892  -0.0016275  -0.0000609
   30  -0.0683235  -0.0416556  -0.2685633   0.0012215   0.0010172   0.0014277
   31  -0.0012781  -0.0012335  -0.0006103  -0.0074891  -0.0055775   0.0003584
   32  -0.0011070  -0.0006023  -0.0004000  -0.0080004  -0.0026341   0.0015172
   33  -0.0000972   0.0001442  -0.0004196  -0.0015687  -0.0006300   0.0005558
           19          20          21          22          23          24
    1  -0.0355862  -0.0127191   0.0080723  -0.0222541  -0.0083235   0.0160043
    2   0.0146216   0.0102268  -0.0090774   0.0040334   0.0060248   0.0015007
    3  -0.0056231  -0.0051832   0.0098006   0.0369657   0.0119087  -0.0029337
    4   0.0011387   0.0042565   0.0014693   0.0017204   0.0015123   0.0019608
    5   0.0001249  -0.0051795  -0.0012787   0.0014600   0.0010526  -0.0009498
    6  -0.0004625  -0.0022360   0.0000413  -0.0017897   0.0006160  -0.0000009
    7  -0.0042137   0.0000722   0.0002331  -0.0021407  -0.0003966   0.0015406
    8   0.0017918   0.0009004  -0.0001467   0.0001744   0.0000985  -0.0004799
    9   0.0008454   0.0003244  -0.0006981  -0.0008590  -0.0003097  -0.0003840
   10  -0.1560919   0.0927254  -0.0972110  -0.0474709   0.0098495   0.0222800
   11   0.0892311  -0.1191068   0.0757079   0.0084614  -0.0572449  -0.0415739
   12  -0.0937259   0.0717270  -0.1303136   0.0217193  -0.0404742  -0.2967322
   13   0.0032699   0.0193489   0.0058299  -0.0006479  -0.0005689  -0.0021185
   14  -0.0000463  -0.0090000  -0.0058443  -0.0006916  -0.0044703   0.0002401
   15   0.0007776   0.0170785   0.0037695  -0.0013659  -0.0328174  -0.0043444
   16   0.0002973  -0.0011543   0.0006256   0.0022631   0.0012990  -0.0028125
   17  -0.0073185  -0.0047729   0.0003427  -0.0063462  -0.0035240   0.0033151
   18  -0.0045261  -0.0006992   0.0008740   0.0037868   0.0014905   0.0000025
   19   0.1855003  -0.0981884   0.1007664   0.0049384  -0.0010491   0.0013066
   20  -0.0981884   0.1229292  -0.0766739  -0.0033817   0.0041784  -0.0038060
   21   0.1007664  -0.0766739   0.1308165  -0.0209694   0.0171048  -0.0158967
   22   0.0049384  -0.0033817  -0.0209694   0.0624658  -0.0027590  -0.0371077
   23  -0.0010491   0.0041784   0.0171048  -0.0027590   0.0578271   0.0437677
   24   0.0013066  -0.0038060  -0.0158967  -0.0371077   0.0437677   0.3177024
   25  -0.0006850  -0.0002773  -0.0000517   0.0005676  -0.0000546   0.0000792
   26   0.0004069  -0.0016777  -0.0005303  -0.0002642   0.0015506  -0.0001438
   27   0.0004253  -0.0003662   0.0004108  -0.0003428   0.0002196   0.0010767
   28   0.0006635   0.0001743   0.0004538   0.0006565   0.0008352   0.0002406
   29   0.0000404   0.0015696   0.0002562  -0.0008154  -0.0055855  -0.0014159
   30   0.0002667  -0.0000956   0.0009941  -0.0002577  -0.0016570   0.0010756
   31   0.0007687  -0.0008566   0.0007815  -0.0000982  -0.0003443  -0.0013734
   32   0.0003856  -0.0000676   0.0001398   0.0001290   0.0000928  -0.0004542
   33  -0.0000505  -0.0000698   0.0002016   0.0002204   0.0001510   0.0004345
           25          26          27          28          29          30
    1   0.0006821  -0.0037679  -0.0017958   0.0009146  -0.0005784  -0.0010056
    2  -0.0000506  -0.0048760  -0.0020067  -0.0009404   0.0007749  -0.0016029
    3  -0.0003528   0.0005887   0.0005950   0.0003058   0.0010263  -0.0008688
    4  -0.0291558   0.0077637   0.0000201  -0.0319326   0.0069734  -0.0107666
    5  -0.0229861   0.0084563  -0.0031641  -0.0046705   0.0043728   0.0035214
    6   0.0226590  -0.0088146   0.0038613  -0.0321950   0.0093632   0.0049860
    7  -0.0028854  -0.0003144   0.0005697  -0.0019470   0.0001269  -0.0016887
    8  -0.0021335   0.0008158   0.0003693  -0.0011861   0.0002351  -0.0003641
    9   0.0001692   0.0001119   0.0000851   0.0014159   0.0000877  -0.0006629
   10   0.0030645  -0.0138808  -0.0052756   0.0008283  -0.0066048   0.0000832
   11   0.0001294  -0.0096168  -0.0057601   0.0016369  -0.0060132  -0.0001525
   12  -0.0026250   0.0199212   0.0055334   0.0024698  -0.0315244  -0.0061362
   13  -0.1034457  -0.0777604   0.0900334  -0.0636449  -0.0181120  -0.0683235
   14  -0.0712890  -0.1364004   0.1063755  -0.0185573  -0.0542139  -0.0416556
   15   0.0834864   0.1042132  -0.1703547  -0.0684162  -0.0397241  -0.2685633
   16  -0.0015759   0.0014455  -0.0005372   0.0029747  -0.0001892   0.0012215
   17   0.0075549  -0.0041460  -0.0019861   0.0063580  -0.0016275   0.0010172
   18  -0.0000411  -0.0003893   0.0004633  -0.0046567  -0.0000609   0.0014277
   19  -0.0006850   0.0004069   0.0004253   0.0006635   0.0000404   0.0002667
   20  -0.0002773  -0.0016777  -0.0003662   0.0001743   0.0015696  -0.0000956
   21  -0.0000517  -0.0005303   0.0004108   0.0004538   0.0002562   0.0009941
   22   0.0005676  -0.0002642  -0.0003428   0.0006565  -0.0008154  -0.0002577
   23  -0.0000546   0.0015506   0.0002196   0.0008352  -0.0055855  -0.0016570
   24   0.0000792  -0.0001438   0.0010767   0.0002406  -0.0014159   0.0010756
   25   0.1256872   0.0829686  -0.0968531   0.0072916   0.0057789  -0.0064894
   26   0.0829686   0.1410954  -0.1101638   0.0029110   0.0043895  -0.0047266
   27  -0.0968531  -0.1101638   0.1755079   0.0142898   0.0169144  -0.0173467
   28   0.0072916   0.0029110   0.0142898   0.0839194   0.0132789   0.0860646
   29   0.0057789   0.0043895   0.0169144   0.0132789   0.0559818   0.0450518
   30  -0.0064894  -0.0047266  -0.0173467   0.0860646   0.0450518   0.2848365
   31   0.0004548   0.0004921  -0.0005338   0.0002759   0.0001015   0.0008957
   32   0.0003593   0.0004092  -0.0004319   0.0001601   0.0001165   0.0006639
   33   0.0000192  -0.0000664   0.0001679   0.0000276   0.0000256   0.0002579
           31          32          33
    1   0.0065719   0.0036045  -0.0001497
    2   0.0001469  -0.0022425  -0.0001651
    3  -0.0007943  -0.0011414  -0.0009669
    4   0.0023092   0.0033766   0.0004283
    5   0.0019296   0.0021459   0.0001995
    6  -0.0010723  -0.0014977  -0.0001494
    7  -0.0006708  -0.0141216  -0.0013089
    8  -0.0123397  -0.0073040  -0.0005076
    9  -0.0012563   0.0002487   0.0079382
   10  -0.0023910  -0.0011070   0.0001055
   11   0.0013607  -0.0000443  -0.0001635
   12   0.0012309   0.0002735  -0.0004519
   13  -0.0012781  -0.0011070  -0.0000972
   14  -0.0012335  -0.0006023   0.0001442
   15  -0.0006103  -0.0004000  -0.0004196
   16  -0.0074891  -0.0080004  -0.0015687
   17  -0.0055775  -0.0026341  -0.0006300
   18   0.0003584   0.0015172   0.0005558
   19   0.0007687   0.0003856  -0.0000505
   20  -0.0008566  -0.0000676  -0.0000698
   21   0.0007815   0.0001398   0.0002016
   22  -0.0000982   0.0001290   0.0002204
   23  -0.0003443   0.0000928   0.0001510
   24  -0.0013734  -0.0004542   0.0004345
   25   0.0004548   0.0003593   0.0000192
   26   0.0004921   0.0004092  -0.0000664
   27  -0.0005338  -0.0004319   0.0001679
   28   0.0002759   0.0001601   0.0000276
   29   0.0001015   0.0001165   0.0000256
   30   0.0008957   0.0006639   0.0002579
   31   0.0015468   0.0163209   0.0023739
   32   0.0163209   0.0101305   0.0010821
   33   0.0023739   0.0010821  -0.0075682
 Gradient time:  CPU 2454.36 s  wall 812.49 s
 **********************************************************************
 **                                                                  **
 **                       VIBRATIONAL ANALYSIS                       **
 **                       --------------------                       **
 **                                                                  **
 **        VIBRATIONAL FREQUENCIES (CM**-1) AND NORMAL MODES         **
 **     FORCE CONSTANTS (mDYN/ANGSTROM) AND REDUCED MASSES (AMU)     **
 **                  INFRARED INTENSITIES (KM/MOL)                   **
 **                                                                  **
 **********************************************************************
 

 Mode:                 1                      2                      3
 Frequency:        83.19                 107.52                 129.43
 Force Cnst:      0.0180                 0.0318                 0.0595
 Red. Mass:       4.4129                 4.6734                 6.0270
 IR Active:          YES                    YES                    YES
 IR Intens:       77.632                 68.928                120.783
 Raman Active:       YES                    YES                    YES
               X      Y      Z        X      Y      Z        X      Y      Z
 O          0.024 -0.007  0.324   -0.122  0.024 -0.142   -0.120  0.028 -0.048
 O          0.009  0.007  0.025   -0.007  0.007 -0.068    0.063  0.046  0.049
 O          0.002  0.027 -0.002   -0.026  0.083  0.260   -0.052  0.151 -0.176
 C         -0.110 -0.004 -0.173   -0.007 -0.084  0.155   -0.100 -0.043 -0.061
 C          0.005 -0.042 -0.090   -0.009 -0.004 -0.097    0.028 -0.093  0.134
 C         -0.018  0.059  0.102    0.016  0.040  0.043   -0.068  0.078 -0.068
 H          0.100 -0.050 -0.504   -0.179 -0.008  0.463   -0.122 -0.185 -0.170
 H         -0.518  0.080 -0.253    0.273 -0.298  0.236   -0.166  0.092 -0.094
 H         -0.021 -0.026 -0.095   -0.047 -0.130 -0.236    0.155 -0.051  0.269
 H          0.085 -0.123 -0.103    0.056  0.176 -0.157   -0.051 -0.271  0.197
 Li         0.182 -0.064 -0.377    0.338 -0.140 -0.329    0.515 -0.356  0.362
 TransDip   0.079 -0.039 -0.268    0.159 -0.112 -0.181    0.220 -0.193  0.195

 Mode:                 4                      5                      6
 Frequency:       226.63                 386.39                 493.59
 Force Cnst:      0.0856                 0.6371                 1.3466
 Red. Mass:       2.8292                 7.2422                 9.3813
 IR Active:          YES                    YES                    YES
 IR Intens:        3.335                165.110                 41.147
 Raman Active:       YES                    YES                    YES
               X      Y      Z        X      Y      Z        X      Y      Z
 O         -0.020  0.008 -0.004    0.068 -0.166 -0.005    0.205 -0.205  0.007
 O          0.003  0.032  0.250   -0.182 -0.171  0.019   -0.055 -0.216  0.022
 O          0.000  0.003 -0.149    0.012  0.093 -0.056   -0.117  0.525  0.034
 C          0.002 -0.039  0.052    0.028  0.030 -0.002    0.188  0.067 -0.031
 C          0.025  0.035 -0.193   -0.170  0.034  0.009   -0.045  0.055 -0.016
 C         -0.027 -0.039  0.041    0.000 -0.143  0.005   -0.058 -0.079  0.002
 H         -0.049  0.064  0.224    0.106  0.137 -0.005    0.301  0.189 -0.066
 H          0.108 -0.252  0.105    0.052  0.067 -0.003    0.204  0.138 -0.041
 H         -0.255 -0.084 -0.517   -0.265  0.115  0.006   -0.208  0.159 -0.055
 H          0.419  0.248 -0.381   -0.191  0.089  0.007   -0.023  0.148 -0.039
 Li         0.005 -0.021  0.031    0.520  0.632  0.074   -0.261 -0.402 -0.038
 TransDip   0.043 -0.038 -0.009    0.247  0.326  0.042   -0.164 -0.119 -0.035

 Mode:                 7                      8                      9
 Frequency:       653.57                 672.44                 724.25
 Force Cnst:      2.7060                 0.7947                 3.3929
 Red. Mass:      10.7523                 2.9831                10.9785
 IR Active:          YES                    YES                    YES
 IR Intens:       73.688                 13.164                 11.125
 Raman Active:       YES                    YES                    YES
               X      Y      Z        X      Y      Z        X      Y      Z
 O         -0.162 -0.206 -0.054   -0.123 -0.028  0.002   -0.064  0.500 -0.061
 O         -0.103  0.090 -0.054    0.122 -0.131 -0.054   -0.060 -0.476 -0.058
 O          0.527  0.125 -0.125   -0.034 -0.008  0.004    0.101  0.021 -0.141
 C         -0.281 -0.003  0.072   -0.103  0.153  0.073    0.077  0.031 -0.066
 C         -0.244  0.107  0.035    0.152  0.146  0.050   -0.020 -0.091 -0.022
 C          0.329 -0.028  0.203   -0.003 -0.149 -0.012    0.026  0.042  0.414
 H         -0.162  0.094  0.012   -0.103 -0.129 -0.223   -0.161 -0.117  0.112
 H         -0.267  0.091  0.059   -0.310  0.469 -0.004    0.111 -0.170 -0.026
 H         -0.099 -0.035  0.021    0.017 -0.084 -0.266   -0.215  0.249  0.133
 H         -0.282  0.146  0.048    0.310  0.516 -0.076   -0.141 -0.198  0.047
 Li        -0.148 -0.191 -0.017    0.014  0.012  0.002   -0.033 -0.039 -0.002
 TransDip  -0.254 -0.088  0.058    0.110 -0.036  0.002    0.083 -0.008  0.067

 Mode:                10                     11                     12
 Frequency:       849.59                 879.26                 960.41
 Force Cnst:      2.3916                 0.9287                 1.5817
 Red. Mass:       5.6238                 2.0389                 2.9104
 IR Active:          YES                    YES                    YES
 IR Intens:      219.315                 39.947                111.273
 Raman Active:       YES                    YES                    YES
               X      Y      Z        X      Y      Z        X      Y      Z
 O          0.071 -0.184 -0.146    0.060  0.057 -0.016   -0.090 -0.082  0.025
 O          0.006  0.081 -0.107   -0.089 -0.052  0.038   -0.027 -0.078  0.027
 O         -0.055 -0.065 -0.085    0.037 -0.007  0.027    0.005 -0.037  0.002
 C          0.058 -0.037  0.032   -0.004 -0.074  0.061    0.063 -0.171 -0.088
 C          0.070 -0.021  0.040   -0.033 -0.074  0.078    0.095  0.242  0.035
 C         -0.208  0.229  0.429    0.054  0.144 -0.137    0.015  0.168 -0.039
 H          0.264 -0.111 -0.294    0.069 -0.355 -0.307   -0.099 -0.305  0.001
 H          0.032  0.424 -0.060   -0.156  0.396 -0.049    0.070 -0.302 -0.065
 H          0.039 -0.265 -0.204   -0.300 -0.315 -0.333   -0.217  0.714  0.197
 H          0.141  0.349 -0.064    0.128  0.425 -0.088   -0.016  0.165  0.094
 Li         0.019  0.035  0.005   -0.011 -0.012 -0.002   -0.006 -0.002 -0.001
 TransDip  -0.332  0.246  0.234    0.100  0.162 -0.070    0.149  0.301 -0.033

 Mode:                13                     14                     15
 Frequency:       977.31                1085.32                1107.31
 Force Cnst:      2.0614                 4.0502                 4.5292
 Red. Mass:       3.6630                 5.8360                 6.2696
 IR Active:          YES                    YES                    YES
 IR Intens:      219.400                146.154                208.309
 Raman Active:       YES                    YES                    YES
               X      Y      Z        X      Y      Z        X      Y      Z
 O          0.004 -0.112 -0.017   -0.361 -0.059  0.073    0.054  0.048 -0.008
 O          0.101 -0.166  0.062    0.015  0.027  0.020    0.401 -0.003 -0.019
 O          0.017 -0.063  0.019    0.037 -0.023 -0.001   -0.039 -0.023  0.009
 C         -0.150  0.193  0.005    0.438  0.139 -0.020    0.012 -0.132 -0.047
 C         -0.020 -0.081 -0.040   -0.101 -0.133 -0.033   -0.455  0.106  0.080
 C         -0.004  0.293 -0.084    0.043  0.040 -0.030   -0.058 -0.027  0.018
 H          0.024  0.741  0.308    0.577  0.134 -0.250    0.078 -0.057 -0.055
 H          0.203  0.018  0.089    0.058  0.362 -0.081   -0.042 -0.109 -0.071
 H         -0.106  0.059  0.024   -0.178 -0.108 -0.070   -0.637  0.033 -0.138
 H          0.035 -0.262 -0.024   -0.056 -0.019 -0.076   -0.098  0.335 -0.056
 Li        -0.004  0.002 -0.001   -0.006 -0.006 -0.001    0.009  0.012  0.001
 TransDip  -0.107  0.461 -0.033    0.371  0.008 -0.110   -0.460 -0.048 -0.000

 Mode:                16                     17                     18
 Frequency:      1165.41                1249.36                1272.82
 Force Cnst:      1.3939                 1.0555                 1.0925
 Red. Mass:       1.7419                 1.1477                 1.1446
 IR Active:          YES                    YES                    YES
 IR Intens:        5.997                 11.527                 30.040
 Raman Active:       YES                    YES                    YES
               X      Y      Z        X      Y      Z        X      Y      Z
 O          0.017  0.009 -0.049   -0.009  0.022 -0.031   -0.014  0.008  0.007
 O          0.032 -0.027  0.046   -0.024 -0.001 -0.020    0.004 -0.032  0.046
 O         -0.013 -0.005  0.001   -0.005  0.003 -0.000   -0.012 -0.005 -0.002
 C         -0.002 -0.036  0.171   -0.005 -0.038  0.006    0.001 -0.030 -0.063
 C         -0.018  0.035 -0.158    0.026  0.016  0.081   -0.005  0.045 -0.008
 C         -0.000  0.021 -0.012    0.008 -0.010 -0.004    0.014  0.018 -0.002
 H          0.328 -0.109 -0.332    0.498  0.503 -0.113    0.083  0.168  0.027
 H         -0.513  0.187  0.056   -0.427 -0.464  0.020    0.096 -0.106 -0.040
 H          0.245  0.265  0.245   -0.075 -0.060 -0.064    0.537 -0.440 -0.017
 H         -0.398 -0.231  0.040    0.251  0.023 -0.002   -0.486  0.452  0.090
 Li         0.001  0.001  0.000   -0.000 -0.000 -0.000   -0.000 -0.000 -0.000
 TransDip  -0.063  0.047 -0.001    0.097 -0.030  0.040    0.149  0.064 -0.066

 Mode:                19                     20                     21
 Frequency:      1389.54                1400.14                1451.62
 Force Cnst:      1.5302                 1.5599                10.6225
 Red. Mass:       1.3451                 1.3506                 8.5560
 IR Active:          YES                    YES                    YES
 IR Intens:       12.762                 18.583                809.101
 Raman Active:       YES                    YES                    YES
               X      Y      Z        X      Y      Z        X      Y      Z
 O         -0.011  0.024  0.011   -0.022  0.030  0.019    0.001 -0.038 -0.011
 O          0.012  0.035 -0.005   -0.014 -0.022 -0.006   -0.007  0.025 -0.019
 O         -0.010  0.006 -0.003    0.016  0.002  0.005   -0.412 -0.025 -0.100
 C         -0.061 -0.074 -0.009   -0.030 -0.122  0.002   -0.016 -0.027  0.006
 C          0.073 -0.099 -0.018   -0.028  0.100 -0.003   -0.034  0.039  0.020
 C          0.015 -0.049  0.008   -0.023 -0.013 -0.012    0.639  0.059  0.148
 H          0.223  0.383  0.056    0.273  0.272 -0.007   -0.099  0.065  0.178
 H          0.226  0.345 -0.032    0.403  0.535 -0.050   -0.062  0.262 -0.031
 H         -0.334  0.435  0.125    0.241 -0.157 -0.024   -0.170 -0.165 -0.233
 H         -0.300  0.438  0.021    0.352 -0.400 -0.041   -0.019 -0.379  0.074
 Li         0.001  0.000  0.000    0.000  0.000  0.000   -0.004 -0.001 -0.001
 TransDip   0.052 -0.101  0.015   -0.137 -0.013  0.010    0.909  0.049  0.022

 Mode:                22                     23                     24
 Frequency:      1522.95                1541.30                3031.36
 Force Cnst:      1.5074                 1.5606                 5.7924
 Red. Mass:       1.1031                 1.1150                 1.0699
 IR Active:          YES                    YES                    YES
 IR Intens:       19.558                 12.134                 98.430
 Raman Active:       YES                    YES                    YES
               X      Y      Z        X      Y      Z        X      Y      Z
 O          0.006 -0.003 -0.002    0.009 -0.002 -0.005    0.000 -0.000 -0.000
 O         -0.011 -0.006 -0.001   -0.000  0.000  0.002   -0.003  0.000  0.000
 O         -0.014 -0.002 -0.003    0.019  0.001  0.004   -0.001 -0.000 -0.000
 C          0.019 -0.009 -0.010    0.061 -0.048 -0.032    0.006 -0.003  0.009
 C         -0.067 -0.046 -0.014    0.024  0.019  0.005   -0.034 -0.027 -0.060
 C          0.025  0.013  0.001   -0.034  0.002 -0.003    0.001  0.001 -0.000
 H         -0.112  0.032  0.185   -0.252  0.199  0.587   -0.072  0.049 -0.054
 H         -0.192  0.095 -0.050   -0.565  0.337 -0.165    0.008 -0.009 -0.049
 H          0.385  0.181  0.511   -0.088 -0.081 -0.166    0.117  0.129 -0.172
 H          0.486  0.373 -0.279   -0.143 -0.115  0.087    0.318  0.161  0.891
 Li        -0.001 -0.000 -0.000   -0.000 -0.000 -0.000    0.000  0.000 -0.000
 TransDip   0.117  0.076  0.022   -0.109  0.024 -0.003   -0.209 -0.132 -0.199

 Mode:                25                     26                     27
 Frequency:      3047.21                3099.10                3140.14
 Force Cnst:      5.8028                 6.2563                 6.3795
 Red. Mass:       1.0607                 1.1056                 1.0981
 IR Active:          YES                    YES                    YES
 IR Intens:       95.093                 79.691                 56.368
 Raman Active:       YES                    YES                    YES
               X      Y      Z        X      Y      Z        X      Y      Z
 O          0.003  0.001 -0.000    0.000 -0.000  0.001   -0.000 -0.000  0.000
 O         -0.000  0.000 -0.000    0.000 -0.000  0.000    0.000  0.000  0.000
 O          0.001 -0.000  0.000   -0.000 -0.000 -0.000    0.000  0.000  0.000
 C          0.035 -0.034 -0.049   -0.044  0.031 -0.076   -0.004  0.001 -0.014
 C         -0.003 -0.001  0.005   -0.009 -0.010  0.002    0.034  0.043 -0.071
 C         -0.002  0.001  0.001    0.001  0.000 -0.000   -0.001 -0.001  0.000
 H         -0.331  0.241 -0.274    0.587 -0.441  0.451    0.061 -0.045  0.046
 H         -0.108  0.130  0.849   -0.068  0.084  0.452   -0.017  0.023  0.115
 H          0.031  0.028 -0.038    0.081  0.091 -0.108   -0.477 -0.541  0.627
 H         -0.007 -0.004 -0.016    0.026  0.015  0.076    0.084  0.051  0.216
 Li        -0.000 -0.000 -0.000    0.000  0.000  0.000    0.000  0.000 -0.000
 TransDip   0.222 -0.125 -0.181   -0.204  0.060 -0.191    0.095  0.100 -0.197

 STANDARD THERMODYNAMIC QUANTITIES AT   298.15 K  AND     1.00 ATM

   This Molecule has  0 Imaginary Frequencies
   Zero point vibrational energy:       46.671 kcal/mol

   Atom    1 Element O  Has Mass   15.99491
   Atom    2 Element O  Has Mass   15.99491
   Atom    3 Element O  Has Mass   15.99491
   Atom    4 Element C  Has Mass   12.00000
   Atom    5 Element C  Has Mass   12.00000
   Atom    6 Element C  Has Mass   12.00000
   Atom    7 Element H  Has Mass    1.00783
   Atom    8 Element H  Has Mass    1.00783
   Atom    9 Element H  Has Mass    1.00783
   Atom   10 Element H  Has Mass    1.00783
   Atom   11 Element Li Has Mass    7.01600
   Molecular Mass:    95.032050 amu
   Principal axes and moments of inertia in amu*Bohr^2:
                             1           2           3
    Eigenvalues --      264.00963   718.36515   941.06349
          X               0.95659    -0.27151     0.10590
          Y               0.27976     0.95732    -0.07261
          Z              -0.08167     0.09909     0.99172
   Rotational Symmetry Number is   1
   The Molecule is an Asymmetric Top
   Translational Enthalpy:        0.889 kcal/mol
   Rotational Enthalpy:           0.889 kcal/mol
   Vibrational Enthalpy:         49.139 kcal/mol
   gas constant (RT):             0.592 kcal/mol
   Translational Entropy:        39.566  cal/mol.K
   Rotational Entropy:           26.681  cal/mol.K
   Vibrational Entropy:          15.506  cal/mol.K

   Total Enthalpy:               51.509 kcal/mol
   Total Entropy:                81.753  cal/mol.K
Archival summary:
1\1\nid01333\FREQ\ProcedureUnspecified\BasisUnspecified\33i14(2)\sblau\TueNov1315:53:192018TueNov1315:53:192018\0\\#,FREQ,ProcedureUnspecified,BasisUnspecified,\\0,2\O\C,1,1.41976\H,2,1.0928,1,110.397\H,2,1.09473,1,109.094,3,-119.728,0\C,1,1.44042,2,108.921,3,-125.383,0\O,5,1.27286,1,116.314,2,-148.272,0\O,5,1.41982,1,105.052,2,-17.6389,0\C,7,1.41312,5,105.743,1,34.2897,0\H,8,1.08958,7,109.058,5,-157.322,0\H,8,1.09679,7,110.327,5,82.6,0\Li,6,1.88856,5,125.241,1,-28.132,0\\\@

 Total job time:  842.68s(wall), 3131.63s(cpu) 
 Tue Nov 13 15:53:19 2018

        *************************************************************
        *                                                           *
        *  Thank you very much for using Q-Chem.  Have a nice day.  *
        *                                                           *
        *************************************************************


