
Running Job 1 of 1 mol.qin
qchem mol.qin_49413.0 /tmp/qchem49413/ 1
/global/common/cori/software/qchem/5.1/exe/qcprog.exe mol.qin_49413.0 /tmp/qchem49413/
Check license passed

                  Welcome to Q-Chem
     A Quantum Leap Into The Future Of Chemistry


 Q-Chem 5.1, Q-Chem, Inc., Pleasanton, CA (2018)

 Yihan Shao,  Zhengting Gan,  E. Epifanovsky,  A. T. B. Gilbert,  M. Wormit,  
 J. Kussmann,  A. W. Lange,  A. Behn,  Jia Deng,  Xintian Feng,  D. Ghosh,  
 M. Goldey,  P. R. Horn,  L. D. Jacobson,  I. Kaliman,  T. Kus,  A. Landau,  
 Jie Liu,  E. I. Proynov,  R. M. Richard,  R. P. Steele,  E. J. Sundstrom,  
 H. L. Woodcock III,  P. M. Zimmerman,  D. Zuev,  B. Albrecht,  E. Alguire,  
 S. A. Baeppler,  D. Barton,  Z. Benda,  Y. A. Bernard,  E. J. Berquist,  
 K. B. Bravaya,  H. Burton,  D. Casanova,  Chun-Min Chang,  Yunqing Chen,  
 A. Chien,  K. D. Closser,  M. P. Coons,  S. Coriani,  S. Dasgupta,  
 A. L. Dempwolff,  M. Diedenhofen,  Hainam Do,  R. G. Edgar,  Po-Tung Fang,  
 S. Faraji,  S. Fatehi,  Qingguo Feng,  K. D. Fenk,  J. Fosso-Tande,  
 Qinghui Ge,  A. Ghysels,  G. Gidofalvi,  J. Gomes,  J. Gonthier,  A. Gunina,  
 D. Hait,  M. W. D. Hanson-Heine,  P. H. P. Harbach,  A. W. Hauser,  
 J. E. Herr,  E. G. Hohenstein,  Z. C. Holden,  Kerwin Hui,  B. C. Huynh,  
 T.-C. Jagau,  Hyunjun Ji,  B. Kaduk,  K. Khistyaev,  Jaehoon Kim,  
 P. Klunzinger,  K. Koh,  D. Kosenkov,  L. Koulias,  T. Kowalczyk,  
 C. M. Krauter,  A. Kunitsa,  Ka Un Lao,  A. Laurent,  K. V. Lawler,  
 Joonho Lee,  D. Lefrancois,  S. Lehtola,  D. S. Levine,  Yi-Pei Li,  
 You-Sheng Lin,  Fenglai Liu,  E. Livshits,  A. Luenser,  P. Manohar,  
 E. Mansoor,  S. F. Manzer,  Shan-Ping Mao,  Yuezhi Mao,  N. Mardirossian,  
 A. V. Marenich,  T. Markovich,  L. A. Martinez-Martinez,  S. A. Maurer,  
 N. J. Mayhall,  S. C. McKenzie,  J.-M. Mewes,  A. F. Morrison,  
 J. W. Mullinax,  K. Nanda,  T. S. Nguyen-Beck,  R. Olivares-Amaya,  
 J. A. Parkhill,  T. M. Perrine,  F. Plasser,  P. Pokhilko,  S. Prager,  
 A. Prociuk,  E. Ramos,  D. R. Rehn,  F. Rob,  M. Schneider,  N. Sergueev,  
 S. M. Sharada,  S. Sharma,  D. W. Small,  T. Stauch,  T. Stein,  
 Yu-Chuan Su,  A. J. W. Thom,  A. Tkatchenko,  T. Tsuchimochi,  N. M. Tubman,  
 L. Vogt,  M. L. Vidal,  O. Vydrov,  M. A. Watson,  J. Wenzel,  
 M. de Wergifosse,  T. A. Wesolowski,  A. White,  J. Witte,  A. Yamada,  
 Jun Yang,  K. Yao,  S. Yeganeh,  S. R. Yost,  Zhi-Qiang You,  A. Zech,  
 Igor Ying Zhang,  Xing Zhang,  Yan Zhao,  Ying Zhu,  B. R. Brooks,  
 G. K. L. Chan,  C. J. Cramer,  M. S. Gordon,  W. J. Hehre,  A. Klamt,  
 M. W. Schmidt,  C. D. Sherrill,  D. G. Truhlar,  A. Aspuru-Guzik,  R. Baer,  
 A. T. Bell,  N. A. Besley,  Jeng-Da Chai,  R. A. DiStasio Jr.,  A. Dreuw,  
 B. D. Dunietz,  T. R. Furlani,  Chao-Ping Hsu,  Yousung Jung,  Jing Kong,  
 D. S. Lambrecht,  WanZhen Liang,  C. Ochsenfeld,  V. A. Rassolov,  
 L. V. Slipchenko,  J. E. Subotnik,  T. Van Voorhis,  J. M. Herbert,  
 A. I. Krylov,  P. M. W. Gill,  M. Head-Gordon

 Contributors to earlier versions of Q-Chem not listed above: 
 R. D. Adamson,  B. Austin,  J. Baker,  G. J. O. Beran,  K. Brandhorst,  
 S. T. Brown,  E. F. C. Byrd,  A. K. Chakraborty,  C.-L. Cheng,  
 Siu Hung Chien,  D. M. Chipman,  D. L. Crittenden,  H. Dachsel,  
 R. J. Doerksen,  A. D. Dutoi,  L. Fusti-Molnar,  W. A. Goddard III,  
 A. Golubeva-Zadorozhnaya,  S. R. Gwaltney,  G. Hawkins,  A. Heyden,  
 S. Hirata,  G. Kedziora,  F. J. Keil,  C. Kelley,  Jihan Kim,  R. A. King,  
 R. Z. Khaliullin,  P. P. Korambath,  W. Kurlancheek,  A. M. Lee,  M. S. Lee,  
 S. V. Levchenko,  Ching Yeh Lin,  D. Liotard,  R. C. Lochan,  I. Lotan,  
 P. E. Maslen,  N. Nair,  D. P. O'Neill,  D. Neuhauser,  E. Neuscamman,  
 C. M. Oana,  R. Olson,  B. Peters,  R. Peverati,  P. A. Pieniazek,  
 Y. M. Rhee,  J. Ritchie,  M. A. Rohrdanz,  E. Rosta,  N. J. Russ,  
 H. F. Schaefer III,  N. E. Schultz,  N. Shenvi,  A. C. Simmonett,  A. Sodt,  
 D. Stuck,  K. S. Thanthiriwatte,  V. Vanovschi,  Tao Wang,  A. Warshel,  
 C. F. Williams,  Q. Wu,  X. Xu,  W. Zhang

 Please cite Q-Chem as follows:
 Y. Shao et al., Mol. Phys. 113, 184-215 (2015)
 DOI: 10.1080/00268976.2014.952696

 Q-Chem 5.1.0 for Intel X86 EM64T Linux

 Parts of Q-Chem use Armadillo 8.300.2 (Tropical Shenanigans).
 http://arma.sourceforge.net/

 Q-Chem begins on Tue Nov 13 14:56:18 2018  

Host: cori01
0

     Scratch files written to /tmp/qchem49413//
 Jun2518 |scratch|qcdevops|jenkins|workspace|build_RNUM -1
Processing $rem in /global/common/cori/software/qchem/5.1/config/preferences.
 MEM_TOTAL  96000 
Symmetry turned off for PCM/SM12/SMD calculation

Checking the input file for inconsistencies... 	...done.

--------------------------------------------------------------
User input:
--------------------------------------------------------------
$molecule
0 2
O     -2.0898312583      1.1838562019     -0.1175247110
O     -1.9855737121     -1.0805440748      0.0010348284
O     -0.0461489480      0.1192983629     -0.2328130149
C     -3.3973546704      0.7337473186      0.2055240930
C     -3.3581897717     -0.7646025167     -0.1101863742
C     -1.2887239858      0.0503945584     -0.5005565856
H     -4.1429876648      1.2685640703     -0.3881694231
H     -3.5871568466      0.9209066381      1.2674759895
H     -3.9214262468     -1.3715453150      0.5977577641
H     -3.7144624269     -0.9684360066     -1.1272332467
Li      1.0220077920      1.6736621356     -0.2423231051
$end

$rem
job_type = freq
basis = 6-311++g*
max_scf_cycles = 200
gen_scfman = true
scf_algorithm = gdm
method = wb97xd
geom_opt_max_cycles = 200
solvent_method = pcm
xc_grid = 3
$end

$pcm
heavypoints 194
hpoints 194
radii uff
theory cpcm
vdwscale 1.1
$end

$solvent
dielectric 30.0
$end
--------------------------------------------------------------
 ----------------------------------------------------------------
             Standard Nuclear Orientation (Angstroms)
    I     Atom           X                Y                Z
 ----------------------------------------------------------------
    1      O      -2.0898312583     1.1838562019    -0.1175247110
    2      O      -1.9855737121    -1.0805440748     0.0010348284
    3      O      -0.0461489480     0.1192983629    -0.2328130149
    4      C      -3.3973546704     0.7337473186     0.2055240930
    5      C      -3.3581897717    -0.7646025167    -0.1101863742
    6      C      -1.2887239858     0.0503945584    -0.5005565856
    7      H      -4.1429876648     1.2685640703    -0.3881694231
    8      H      -3.5871568466     0.9209066381     1.2674759895
    9      H      -3.9214262468    -1.3715453150     0.5977577641
   10      H      -3.7144624269    -0.9684360066    -1.1272332467
   11      Li      1.0220077920     1.6736621356    -0.2423231051
 ----------------------------------------------------------------
 Nuclear Repulsion Energy =   264.9113909399 hartrees
 There are       25 alpha and       24 beta electrons
 Requested basis set is 6-311++G(d)
 There are 58 shells and 170 basis functions

 Total QAlloc Memory Limit  96000 MB
 Mega-Array Size       188 MB
 MEM_STATIC part       192 MB
 Discretize the solute cavity surface with Lebedev spheres
	Using 194 Lebedev grid points for each H atom
	Using 194 Lebedev grid points for other atoms
	Atomic van der Waals radii will be scaled by 1.10
 Remove points where switching function is < 1.0e-08
 Keep 1047 surface tesserae and discard 1087 interior tesserae
 Molecular Surface Area = 139.124 Angst**2

                       Distance Matrix (Angstroms)
             O (  1)   O (  2)   O (  3)   C (  4)   C (  5)   C (  6)
   O (  2)  2.269897
   O (  3)  2.307209  2.292526
   C (  4)  1.420062  2.307942  3.435152
   C (  5)  2.324925  1.412892  3.430151  1.531750
   C (  6)  1.439869  1.419935  1.272960  2.326337  2.258162
   H (  7)  2.072649  3.213133  4.257820  1.092918  2.197032  3.105381
   H (  8)  2.056539  2.859151  3.928381  1.094895  2.188909  3.027627
   H (  9)  3.224352  2.046530  4.234411  2.204712  1.089403  3.187370
   H ( 10)  2.879462  2.067514  3.929335  2.185001  1.096751  2.704616
   Li( 11)  3.152622  4.085391  1.886027  4.540349  5.014850  2.835695
             H (  7)   H (  8)   H (  9)   H ( 10)
   H (  8)  1.780723
   H (  9)  2.826892  2.411554
   H ( 10)  2.394581  3.052942  1.783515
   Li( 11)  5.182910  4.908211  5.866563  5.495261
 
 A cutoff of  1.0D-12 yielded   1669 shell pairs
 There are     14617 function pairs (     15864 Cartesian)
 
 -------------------------------------------------------
 OpenMP Integral Computing Module                       
 Release: version 1.0, May 2013, Q-Chem Inc. Pittsburgh 
 -------------------------------------------------------
 Integral Job Info:
 Integral job number is                      11
 Integral operator is                         1
 short-range coefficients              22203600
 long-range coefficients              100000000
 Omega coefficients                         200
 if combine SR and LR in K                    1
 Integral screening is                        0
 Integral computing path is                   2
 max size of driver memory is            800000
 size of driver memory is                593474
 size of scratch memory is              2428936
 max col of scratch BK array               1296
 max len of scratch array in speh3          155
 max len of scratch index in speh4           18
 max int batch size is                      520
 min int batch size is                       52
 fixed nKL is                                52
 max L of basis functions is                  2
 order of int derivative is                   0
 number of shells is                         58
 number of basis is                         177
 number of cartesian basis is               177
 number of contracted shell pairs          1669
 number of primitive shell pairs           4768
 maxK2 (contraction) of shell pair           36
 max number of K2 of shell pair               1
 max number of CS2 of shell pair            270
 max number of PS2 of shell pair            894
 mem total for path MDJ                  537110
 -------------------------------------------------------
 Smallest overlap matrix eigenvalue = 6.23E-05
 Guess from superposition of atomic densities
 Warning:  Energy on first SCF cycle will be non-variational
 SAD guess density has 49.000000 electrons

 -----------------------------------------------------------------------
  General SCF calculation program by
  Eric Jon Sundstrom, Paul Horn, Yuezhi Mao, Dmitri Zuev, Alec White,
  David Stuck, Shaama M.S., Shane Yost, Joonho Lee, David Small,
  Daniel Levine, Susi Lehtola, Hugh Burton, Evgeny Epifanovsky
 -----------------------------------------------------------------------
 Exchange:     0.2220 Hartree-Fock + 1.0000 wB97X-D + LR-HF
 Correlation:  1.0000 wB97X-D
 Using SG-3 standard quadrature grid
 Dispersion:   Grimme D
 using 32 threads for integral computing
 -------------------------------------------------------
 OpenMP Integral computing Module                
 Release: version 1.0, May 2013, Q-Chem Inc. Pittsburgh 
 -------------------------------------------------------
 using 32 threads for integral computing
 -------------------------------------------------------
 OpenMP Integral computing Module                
 Release: version 1.0, May 2013, Q-Chem Inc. Pittsburgh 
 -------------------------------------------------------
 -------------------------------------------------------
 OpenMP BLAS3 based DFT computing Module                
 Release: version 1.0, May 2013, Q-Chem Inc. Pittsburgh 
 -------------------------------------------------------
 A unrestricted SCF calculation will be
 performed using Roothaan-Hall, GDM
 SCF converges when RMS gradient is below 1.0e-08
 ---------------------------------------
  Cycle       Energy         DIIS error
 ---------------------------------------
    1    -350.9789191984      2.32e-02  Roothaan Step
 ---------------------------------------
  Cycle       Energy        RMS Gradient
 ---------------------------------------
    1    -349.7883232676      1.04e-01   Descent step
    2    -349.9352487928      1.76e-02   Normal BFGS step
    3    -349.9457492524      9.75e-03   Normal BFGS step
    4    -349.9471168213      5.13e-03   Normal BFGS step
    5    -349.9478481369      1.24e-03   Normal BFGS step
    6    -349.9478827550      6.80e-04   Normal BFGS step
    7    -349.9478916887      3.37e-04   Normal BFGS step
    8    -349.9478928442      1.10e-04   Normal BFGS step
    9    -349.9478930181      4.86e-05   Normal BFGS step
   10    -349.9478931020      3.00e-05   Normal BFGS step
   11    -349.9478931088      8.70e-06   Normal BFGS step
   12    -349.9478931105      5.03e-06   Normal BFGS step
   13    -349.9478931108      1.74e-06   Normal BFGS step
   14    -349.9478931108      6.73e-07   Normal BFGS step
   15    -349.9478931108      1.87e-07   Normal BFGS step
   16    -349.9478931108      9.48e-08   Normal BFGS step
   17    -349.9478931108      3.52e-08   Normal BFGS step
   18    -349.9478931108      1.52e-08   Normal BFGS step
   19    -349.9478931108      5.26e-09  Convergence criterion met
 ---------------------------------------
 SCF time:   CPU 667.07s  wall 30.00s 
<S^2> =          0.753401688

************** Final PCM Free Energy Summary **************
 G_electrostatic  =      -0.08007322 hartree =     -50.24670506 kcal/mol
 G_cavitation     =       0.00000000 hartree =       0.00000000 kcal/mol
 G_dispersion     =       0.00000000 hartree =       0.00000000 kcal/mol
 G_repulsion      =       0.00000000 hartree =       0.00000000 kcal/mol
 --------------------------------------------------
 Non-electrostatic Free Energy =       0.00000000 hartree =       0.00000000 kcal/mol
 Total                         =      -0.08007322 hartree =     -50.24670506 kcal/mol
 --------------------------------------------------
 SCF Energy (H0 + V/2)                       =    -349.94789311 
 Solute Internal Energy (H0)                 =    -349.86781989 
 Total Free Energy (H0 + V/2 + non-elec)     =    -349.94789311 hartree
                                             = -219595.61728353 kcal/mol
***********************************************************

 SCF   energy in the final basis set =     -349.9478931108
 Total energy in the final basis set =     -349.9478931108
 
 --------------------------------------------------------------
 
                    Orbital Energies (a.u.)
 --------------------------------------------------------------
 
 Alpha MOs
 -- Occupied --
-19.254 -19.249 -19.188 -10.383 -10.326 -10.325  -2.028  -1.196
 -1.094  -1.073  -0.837  -0.722  -0.668  -0.594  -0.576  -0.547
 -0.509  -0.496  -0.478  -0.427  -0.424  -0.367  -0.359  -0.350
 -0.205
 -- Virtual --
  0.013   0.018   0.019   0.022   0.060   0.066   0.070   0.074
  0.075   0.077   0.084   0.098   0.119   0.134   0.142   0.147
  0.169   0.178   0.182   0.195   0.197   0.202   0.205   0.207
  0.218   0.225   0.235   0.240   0.256   0.276   0.284   0.300
  0.310   0.325   0.344   0.352   0.357   0.372   0.374   0.383
  0.390   0.396   0.408   0.429   0.436   0.446   0.457   0.475
  0.493   0.526   0.563   0.577   0.626   0.637   0.657   0.664
  0.666   0.689   0.705   0.719   0.733   0.743   0.764   0.767
  0.780   0.787   0.818   0.845   0.880   0.897   0.946   1.036
  1.060   1.097   1.164   1.181   1.197   1.231   1.270   1.280
  1.299   1.337   1.386   1.390   1.483   1.533   1.600   1.640
  1.679   1.695   1.768   1.788   1.812   1.829   1.862   1.872
  1.909   1.955   1.959   2.053   2.190   2.532   2.597   2.605
  2.657   2.750   2.865   2.911   2.996   3.006   3.018   3.037
  3.082   3.102   3.126   3.176   3.209   3.259   3.298   3.397
  3.414   3.535   3.580   3.700   3.863   3.937   3.992   4.140
  4.192   4.236   5.158   5.182   5.232   5.300   5.372   5.491
  5.505   5.806   5.974  23.675  23.815  23.834  50.038  50.070
 50.137
 
 Beta MOs
 -- Occupied --
-19.252 -19.246 -19.184 -10.373 -10.326 -10.325  -2.028  -1.187
 -1.087  -1.062  -0.833  -0.719  -0.654  -0.589  -0.572  -0.541
 -0.496  -0.490  -0.450  -0.423  -0.421  -0.356  -0.348  -0.338
 -- Virtual --
  0.017   0.022   0.023   0.024   0.054   0.066   0.070   0.074
  0.078   0.084   0.087   0.102   0.105   0.125   0.139   0.146
  0.156   0.172   0.181   0.185   0.198   0.199   0.204   0.209
  0.213   0.222   0.232   0.239   0.242   0.259   0.282   0.288
  0.301   0.312   0.330   0.348   0.357   0.362   0.373   0.381
  0.386   0.392   0.399   0.413   0.435   0.443   0.447   0.461
  0.483   0.494   0.533   0.564   0.583   0.628   0.638   0.660
  0.667   0.668   0.693   0.707   0.723   0.739   0.751   0.767
  0.769   0.780   0.789   0.819   0.846   0.884   0.901   0.949
  1.043   1.064   1.100   1.169   1.186   1.199   1.235   1.275
  1.284   1.301   1.343   1.391   1.392   1.486   1.547   1.604
  1.647   1.695   1.702   1.772   1.803   1.819   1.835   1.869
  1.876   1.916   1.964   1.966   2.069   2.191   2.532   2.598
  2.605   2.659   2.786   2.872   2.914   3.005   3.014   3.021
  3.047   3.089   3.109   3.140   3.180   3.214   3.273   3.303
  3.399   3.425   3.548   3.587   3.712   3.864   3.940   3.994
  4.147   4.194   4.243   5.166   5.189   5.248   5.305   5.376
  5.495   5.509   5.812   5.982  23.675  23.816  23.850  50.040
 50.073  50.141
 --------------------------------------------------------------
 
          Ground-State Mulliken Net Atomic Charges

     Atom                 Charge (a.u.)    Spin (a.u.)
  --------------------------------------------------------
      1 O                    -0.155162       0.022520
      2 O                    -0.136038       0.004333
      3 O                    -0.570768       0.143153
      4 C                    -0.427274      -0.086409
      5 C                    -0.464667       0.048012
      6 C                    -0.077901       0.857376
      7 H                     0.247277      -0.001316
      8 H                     0.248865       0.005709
      9 H                     0.249720      -0.000528
     10 H                     0.253780       0.002167
     11 Li                    0.832168       0.004984
  --------------------------------------------------------
  Sum of atomic charges =     0.000000
  Sum of spin   charges =     1.000000

 -----------------------------------------------------------------
                    Cartesian Multipole Moments
 -----------------------------------------------------------------
    Charge (ESU x 10^10)
                 0.0000
    Dipole Moment (Debye)
         X       4.1953      Y       6.8424      Z       0.4235
       Tot       8.0373
    Quadrupole Moments (Debye-Ang)
        XX     -22.5042     XY       9.4786     YY     -29.8853
        XZ      -2.8894     YZ      -1.2718     ZZ     -38.8227
    Octopole Moments (Debye-Ang^2)
       XXX     179.2725    XXY       2.3331    XYY      96.6101
       YYY      13.3276    XXZ       7.8214    XYZ      -2.7740
       YYZ       2.2829    XZZ      75.8490    YZZ      -2.0822
       ZZZ      18.3140
    Hexadecapole Moments (Debye-Ang^3)
      XXXX   -1102.3348   XXXY      21.7320   XXYY    -241.8739
      XYYY      31.6916   YYYY    -171.9941   XXXZ     -20.5914
      XXYZ      -3.4012   XYYZ      -9.0482   YYYZ      -7.7896
      XXZZ    -226.3898   XYZZ       2.4793   YYZZ     -44.2220
      XZZZ     -16.9152   YZZZ      -0.5291   ZZZZ     -79.6514
 -----------------------------------------------------------------
 Calculating MO derivatives via CPSCF
 Computing fast CPCM-SWIG hessian.
 D1JvT checksum  = 559680 28208.2583837174
 D1KAT checksum  = 1107480 2662.0733474066
 D1JvT checksum  = 559680 16951.6173513294
 D1KAT checksum  = 1107480 1163.5435117062
   1         3          33      0.221113    0.034689
   2         3          33      0.052024    0.010369
   3         3          33      0.011472    0.002741
   4         3          33      0.002270    0.000562
   5         5          31      0.000385    0.000102
   6        29           7      0.000044    0.000015
   7        33           3      0.000006    0.000002
   8        36           0      0.000000    0.000000    Roots Converged
 Time for AOints: 73.6 s (CPU) 4.3 s (wall)
 ------------------------------------------------------------------------------
                     AOints        : Timing summary (seconds)
 ------------------------------------------------------------------------------
     job step          cpu (% of tot)      sys (% of tot)     wall (% of tot)
 ------------------------------------------------------------------------------
  cpscf_lag         0.7905E+03 (41.8)   0.4289E-02 (49.5)   0.2770E+03 (63.1)
  iterzp            0.1028E+04 (54.3)   0.3638E-02 (41.9)   0.1577E+03 (35.9)
  make_fx           0.0000E+00 ( 0.0)   0.0000E+00 ( 0.0)   0.0000E+00 ( 0.0)
  AOints            0.7365E+02 ( 3.9)   0.7450E-03 ( 8.6)   0.4326E+01 ( 1.0)
 ------------------------------------------------------------------------------
   Grand Totals     0.1892E+04          0.8673E-02          0.4391E+03
 ------------------------------------------------------------------------------
 Calculating analytic Hessian of the SCF energy
 Polarizability Matrix (a.u.)
            1           2           3
    1 -79.9546883  -0.6655853  -3.3419904
    2  -0.6655853 -63.1034024  -1.9025758
    3  -3.3419904  -1.9025758 -70.3991403
atom: 0 element: 8
atom: 1 element: 8
atom: 2 element: 8
atom: 3 element: 6
atom: 4 element: 6
atom: 5 element: 6
atom: 6 element: 1
atom: 7 element: 1
atom: 8 element: 1
atom: 9 element: 1
atom: 10 element: 3
 
 Direct stationary perturbation theory relativistic correction:
 
 rels  =       0.117529431801
 relv  =      -0.527608864448
 rel2e =       0.000000000000
 E_rel =      -0.410079432647
 
 Computing fast CPCM-SWIG hessian
 Hessian of the SCF Energy
            1           2           3           4           5           6
    1   0.3566634   0.0315600  -0.0778187   0.0065883   0.0172592  -0.0065698
    2   0.0315600   0.2882895   0.0094115  -0.0135076  -0.0660373  -0.0052067
    3  -0.0778187   0.0094115   0.0662056  -0.0050513   0.0117015   0.0149537
    4   0.0065883  -0.0135076  -0.0050513   0.3971449  -0.0137169   0.0054336
    5   0.0172592  -0.0660373   0.0117015  -0.0137169   0.2805195  -0.0629535
    6  -0.0065698  -0.0052067   0.0149537   0.0054336  -0.0629535   0.0817455
    7  -0.0647541   0.0334518   0.0158563  -0.0580528  -0.0353658   0.0153213
    8   0.0374571   0.0126658   0.0097796  -0.0457348   0.0022685  -0.0103051
    9   0.0100285   0.0084676   0.0218288   0.0134432  -0.0064435   0.0210438
   10  -0.1741186  -0.0285981   0.0285105  -0.0316341   0.0264991   0.0103050
   11  -0.0546395  -0.0983997   0.0030700   0.0237728  -0.0312950   0.0015810
   12   0.0339052   0.0050071  -0.0591377  -0.0025669   0.0054133   0.0093413
   13  -0.0232470  -0.0213613  -0.0024536  -0.2010799   0.0185092  -0.0167405
   14  -0.0230210  -0.0335710   0.0046152   0.0522508  -0.0823187   0.0138098
   15   0.0048764   0.0139846   0.0051646  -0.0191305   0.0137480  -0.0620158
   16  -0.0491518  -0.0190331   0.0126636  -0.0575197   0.0115909   0.0061929
   17   0.0140399  -0.1125030  -0.0453530  -0.0262694  -0.1138191   0.0652014
   18   0.0162132  -0.0209656  -0.0561043   0.0168454   0.0409703  -0.0735717
   19  -0.0355429   0.0143976  -0.0070354   0.0010722   0.0002218  -0.0004216
   20  -0.0127404   0.0100124  -0.0055817   0.0043416  -0.0051785  -0.0020515
   21   0.0071131  -0.0086887   0.0100440   0.0014337  -0.0011718   0.0000959
   22  -0.0235313   0.0043962   0.0362439   0.0016646   0.0014651  -0.0017757
   23  -0.0085631   0.0061298   0.0118105   0.0015723   0.0010284   0.0005960
   24   0.0154840   0.0015316  -0.0018755   0.0019752  -0.0009082  -0.0000176
   25   0.0007405   0.0000125  -0.0003618  -0.0295069  -0.0228855   0.0223667
   26  -0.0037328  -0.0048857   0.0006011   0.0076803   0.0081615  -0.0085650
   27  -0.0017226  -0.0019315   0.0005544  -0.0007582  -0.0037044   0.0044841
   28   0.0009327  -0.0009094   0.0003638  -0.0311135  -0.0055135  -0.0330084
   29  -0.0006512   0.0007144   0.0009891   0.0064008   0.0046132   0.0093002
   30  -0.0009350  -0.0016508  -0.0009003  -0.0116565   0.0033531   0.0039020
   31   0.0054208  -0.0004086  -0.0009172   0.0024368   0.0019363  -0.0011035
   32   0.0030319  -0.0024152  -0.0010441   0.0032102   0.0020577  -0.0014067
   33  -0.0005743   0.0000408  -0.0007334   0.0000325  -0.0000048   0.0000388
            7           8           9          10          11          12
    1  -0.0647541   0.0374571   0.0100285  -0.1741186  -0.0546395   0.0339052
    2   0.0334518   0.0126658   0.0084676  -0.0285981  -0.0983997   0.0050071
    3   0.0158563   0.0097796   0.0218288   0.0285105   0.0030700  -0.0591377
    4  -0.0580528  -0.0457348   0.0134432  -0.0316341   0.0237728  -0.0025669
    5  -0.0353658   0.0022685  -0.0064435   0.0264991  -0.0312950   0.0054133
    6   0.0153213  -0.0103051   0.0210438   0.0103050   0.0015810   0.0093413
    7   0.5310962   0.0446789   0.0868229   0.0053315   0.0079404  -0.0049062
    8   0.0446789   0.0606254   0.0059195  -0.0006451  -0.0044558   0.0027913
    9   0.0868229   0.0059195   0.0099831   0.0033284   0.0002338   0.0021030
   10   0.0053315  -0.0006451   0.0033284   0.5017990  -0.0958283   0.0253097
   11   0.0079404  -0.0044558   0.0002338  -0.0958283   0.4707315   0.0010441
   12  -0.0049062   0.0027913   0.0021030   0.0253097   0.0010441   0.5838176
   13   0.0066351   0.0017754   0.0041438  -0.0583185   0.0107377   0.0002661
   14  -0.0068894  -0.0062686   0.0008931  -0.0080466  -0.1688486  -0.0285422
   15   0.0028590   0.0017826   0.0028446  -0.0005933  -0.0316328  -0.0913939
   16  -0.4107974  -0.0214446  -0.1211573  -0.0443122   0.0090350   0.0144975
   17  -0.0265581  -0.0620314  -0.0077730   0.0273532   0.0214457  -0.0037464
   18  -0.1182205  -0.0072216  -0.0839275   0.0082809  -0.0008408  -0.0130040
   19  -0.0042431   0.0017426   0.0007939  -0.1521601   0.0856216  -0.0958332
   20   0.0000354   0.0009049   0.0003112   0.0890625  -0.1151562   0.0731648
   21   0.0001335  -0.0001210  -0.0006949  -0.0994151   0.0770904  -0.1371030
   22  -0.0021776   0.0001967  -0.0008341  -0.0483854   0.0100226   0.0282835
   23  -0.0003753   0.0000964  -0.0003193   0.0113637  -0.0579173  -0.0435923
   24   0.0015174  -0.0004698  -0.0003739   0.0287604  -0.0447384  -0.2937782
   25  -0.0029007  -0.0021645   0.0001763   0.0033150   0.0003273  -0.0027812
   26  -0.0003345   0.0007975   0.0000934  -0.0142568  -0.0095755   0.0198082
   27   0.0005168   0.0003192   0.0000980  -0.0050548  -0.0055865   0.0051618
   28  -0.0019482  -0.0011735   0.0014297   0.0008069   0.0017277   0.0027951
   29   0.0000875   0.0002235   0.0000865  -0.0058894  -0.0064777  -0.0315681
   30  -0.0017235  -0.0004080  -0.0006466   0.0003092  -0.0000795  -0.0055664
   31   0.0018112  -0.0146881   0.0018247  -0.0023233   0.0012828   0.0010302
   32  -0.0166707  -0.0048263  -0.0014693  -0.0010143  -0.0000513   0.0002201
   33   0.0018228  -0.0020668   0.0277415   0.0002590  -0.0001414  -0.0004406
           13          14          15          16          17          18
    1  -0.0232470  -0.0230210   0.0048764  -0.0491518   0.0140399   0.0162132
    2  -0.0213613  -0.0335710   0.0139846  -0.0190331  -0.1125030  -0.0209656
    3  -0.0024536   0.0046152   0.0051646   0.0126636  -0.0453530  -0.0561043
    4  -0.2010799   0.0522508  -0.0191305  -0.0575197  -0.0262694   0.0168454
    5   0.0185092  -0.0823187   0.0137480   0.0115909  -0.1138191   0.0409703
    6  -0.0167405   0.0138098  -0.0620158   0.0061929   0.0652014  -0.0735717
    7   0.0066351  -0.0068894   0.0028590  -0.4107974  -0.0265581  -0.1182205
    8   0.0017754  -0.0062686   0.0017826  -0.0214446  -0.0620314  -0.0072216
    9   0.0041438   0.0008931   0.0028446  -0.1211573  -0.0077730  -0.0839275
   10  -0.0583185  -0.0080466  -0.0005933  -0.0443122   0.0273532   0.0082809
   11   0.0107377  -0.1688486  -0.0316328   0.0090350   0.0214457  -0.0008408
   12   0.0002661  -0.0285422  -0.0913939   0.0144975  -0.0037464  -0.0130040
   13   0.4927001   0.0974258  -0.0226991  -0.0511812  -0.0288315   0.0055541
   14   0.0974258   0.4846793  -0.0393009  -0.0194790   0.0106454  -0.0055859
   15  -0.0226991  -0.0393009   0.5865094   0.0139858  -0.0021908  -0.0006216
   16  -0.0511812  -0.0194790   0.0139858   0.6168164   0.0455051   0.0759279
   17  -0.0288315   0.0106454  -0.0021908   0.0455051   0.2727488  -0.0085904
   18   0.0055541  -0.0055859  -0.0006216   0.0759279  -0.0085904   0.2242873
   19   0.0029775   0.0001896   0.0005978   0.0004474  -0.0073270  -0.0044696
   20   0.0190690  -0.0087691   0.0177446  -0.0010818  -0.0048122  -0.0006966
   21   0.0055593  -0.0056550   0.0037683   0.0006097   0.0002566   0.0008078
   22  -0.0005851  -0.0007117  -0.0010316   0.0022568  -0.0063864   0.0038736
   23   0.0002431  -0.0048800  -0.0327009   0.0012546  -0.0035251   0.0015840
   24  -0.0020298   0.0002699  -0.0038946  -0.0027866   0.0032040  -0.0000079
   25  -0.1059460  -0.0720003   0.0852925  -0.0016414   0.0076238  -0.0001681
   26  -0.0783562  -0.1342198   0.1029190   0.0014350  -0.0041087  -0.0002997
   27   0.0919075   0.1051984  -0.1699952  -0.0005711  -0.0017646   0.0004763
   28  -0.0606271  -0.0184872  -0.0635303   0.0030060   0.0063432  -0.0047096
   29  -0.0181114  -0.0558359  -0.0439344  -0.0001354  -0.0016049  -0.0000487
   30  -0.0634910  -0.0458320  -0.2699911   0.0012606   0.0011940   0.0013245
   31  -0.0013280  -0.0012309  -0.0006267  -0.0079228  -0.0054927   0.0008727
   32  -0.0010998  -0.0006129  -0.0004190  -0.0076466  -0.0024355   0.0016949
   33  -0.0000170   0.0001294  -0.0003746  -0.0006228  -0.0004377   0.0003410
           19          20          21          22          23          24
    1  -0.0355429  -0.0127404   0.0071131  -0.0235313  -0.0085631   0.0154840
    2   0.0143976   0.0100124  -0.0086887   0.0043962   0.0061298   0.0015316
    3  -0.0070354  -0.0055817   0.0100440   0.0362439   0.0118105  -0.0018755
    4   0.0010722   0.0043416   0.0014337   0.0016646   0.0015723   0.0019752
    5   0.0002218  -0.0051785  -0.0011718   0.0014651   0.0010284  -0.0009082
    6  -0.0004216  -0.0020515   0.0000959  -0.0017757   0.0005960  -0.0000176
    7  -0.0042431   0.0000354   0.0001335  -0.0021776  -0.0003753   0.0015174
    8   0.0017426   0.0009049  -0.0001210   0.0001967   0.0000964  -0.0004698
    9   0.0007939   0.0003112  -0.0006949  -0.0008341  -0.0003193  -0.0003739
   10  -0.1521601   0.0890625  -0.0994151  -0.0483854   0.0113637   0.0287604
   11   0.0856216  -0.1151562   0.0770904   0.0100226  -0.0579173  -0.0447384
   12  -0.0958332   0.0731648  -0.1371030   0.0282835  -0.0435923  -0.2937782
   13   0.0029775   0.0190690   0.0055593  -0.0005851   0.0002431  -0.0020298
   14   0.0001896  -0.0087691  -0.0056550  -0.0007117  -0.0048800   0.0002699
   15   0.0005978   0.0177446   0.0037683  -0.0010316  -0.0327009  -0.0038946
   16   0.0004474  -0.0010818   0.0006097   0.0022568   0.0012546  -0.0027866
   17  -0.0073270  -0.0048122   0.0002566  -0.0063864  -0.0035251   0.0032040
   18  -0.0044696  -0.0006966   0.0008078   0.0038736   0.0015840  -0.0000079
   19   0.1813189  -0.0942104   0.1038715   0.0054457  -0.0014628   0.0019287
   20  -0.0942104   0.1188911  -0.0782186  -0.0035683   0.0043060  -0.0041841
   21   0.1038715  -0.0782186   0.1380311  -0.0204846   0.0166135  -0.0165624
   22   0.0054457  -0.0035683  -0.0204846   0.0640985  -0.0045570  -0.0438460
   23  -0.0014628   0.0043060   0.0166135  -0.0045570   0.0587330   0.0471989
   24   0.0019287  -0.0041841  -0.0165624  -0.0438460   0.0471989   0.3138865
   25  -0.0006952  -0.0002607  -0.0000666   0.0005793  -0.0000584   0.0000674
   26   0.0004379  -0.0017142  -0.0004931  -0.0002773   0.0015554  -0.0001564
   27   0.0003988  -0.0003433   0.0004374  -0.0003558   0.0002071   0.0010681
   28   0.0006551   0.0001788   0.0004384   0.0006493   0.0009129   0.0002303
   29   0.0000156   0.0015742   0.0002409  -0.0007379  -0.0056159  -0.0013348
   30   0.0002521  -0.0000993   0.0010002  -0.0002483  -0.0015418   0.0011116
   31   0.0007245  -0.0008256   0.0008071  -0.0000148  -0.0003300  -0.0013011
   32   0.0003736  -0.0000583   0.0001468   0.0001580   0.0000895  -0.0004127
   33  -0.0000831  -0.0000455   0.0001756   0.0001751   0.0001443   0.0004437
           25          26          27          28          29          30
    1   0.0007405  -0.0037328  -0.0017226   0.0009327  -0.0006512  -0.0009350
    2   0.0000125  -0.0048857  -0.0019315  -0.0009094   0.0007144  -0.0016508
    3  -0.0003618   0.0006011   0.0005544   0.0003638   0.0009891  -0.0009003
    4  -0.0295069   0.0076803  -0.0007582  -0.0311135   0.0064008  -0.0116565
    5  -0.0228855   0.0081615  -0.0037044  -0.0055135   0.0046132   0.0033531
    6   0.0223667  -0.0085650   0.0044841  -0.0330084   0.0093002   0.0039020
    7  -0.0029007  -0.0003345   0.0005168  -0.0019482   0.0000875  -0.0017235
    8  -0.0021645   0.0007975   0.0003192  -0.0011735   0.0002235  -0.0004080
    9   0.0001763   0.0000934   0.0000980   0.0014297   0.0000865  -0.0006466
   10   0.0033150  -0.0142568  -0.0050548   0.0008069  -0.0058894   0.0003092
   11   0.0003273  -0.0095755  -0.0055865   0.0017277  -0.0064777  -0.0000795
   12  -0.0027812   0.0198082   0.0051618   0.0027951  -0.0315681  -0.0055664
   13  -0.1059460  -0.0783562   0.0919075  -0.0606271  -0.0181114  -0.0634910
   14  -0.0720003  -0.1342198   0.1051984  -0.0184872  -0.0558359  -0.0458320
   15   0.0852925   0.1029190  -0.1699952  -0.0635303  -0.0439344  -0.2699911
   16  -0.0016414   0.0014350  -0.0005711   0.0030060  -0.0001354   0.0012606
   17   0.0076238  -0.0041087  -0.0017646   0.0063432  -0.0016049   0.0011940
   18  -0.0001681  -0.0002997   0.0004763  -0.0047096  -0.0000487   0.0013245
   19  -0.0006952   0.0004379   0.0003988   0.0006551   0.0000156   0.0002521
   20  -0.0002607  -0.0017142  -0.0003433   0.0001788   0.0015742  -0.0000993
   21  -0.0000666  -0.0004931   0.0004374   0.0004384   0.0002409   0.0010002
   22   0.0005793  -0.0002773  -0.0003558   0.0006493  -0.0007379  -0.0002483
   23  -0.0000584   0.0015554   0.0002071   0.0009129  -0.0056159  -0.0015418
   24   0.0000674  -0.0001564   0.0010681   0.0002303  -0.0013348   0.0011116
   25   0.1285195   0.0836918  -0.0984543   0.0070675   0.0053594  -0.0060540
   26   0.0836918   0.1389735  -0.1087822   0.0032422   0.0046247  -0.0050449
   27  -0.0984543  -0.1087822   0.1748827   0.0146188   0.0167994  -0.0173482
   28   0.0070675   0.0032422   0.0146188   0.0803112   0.0135413   0.0813685
   29   0.0053594   0.0046247   0.0167994   0.0135413   0.0576543   0.0494451
   30  -0.0060540  -0.0050449  -0.0173482   0.0813685   0.0494451   0.2868979
   31   0.0004685   0.0004704  -0.0005252   0.0002601   0.0001206   0.0009178
   32   0.0003546   0.0003914  -0.0004116   0.0001375   0.0001303   0.0006640
   33  -0.0000169  -0.0000805   0.0001806   0.0000035   0.0000248   0.0002163
           31          32          33
    1   0.0054208   0.0030319  -0.0005743
    2  -0.0004086  -0.0024152   0.0000408
    3  -0.0009172  -0.0010441  -0.0007334
    4   0.0024368   0.0032102   0.0000325
    5   0.0019363   0.0020577  -0.0000048
    6  -0.0011035  -0.0014067   0.0000388
    7   0.0018112  -0.0166707   0.0018228
    8  -0.0146881  -0.0048263  -0.0020668
    9   0.0018247  -0.0014693   0.0277415
   10  -0.0023233  -0.0010143   0.0002590
   11   0.0012828  -0.0000513  -0.0001414
   12   0.0010302   0.0002201  -0.0004406
   13  -0.0013280  -0.0010998  -0.0000170
   14  -0.0012309  -0.0006129   0.0001294
   15  -0.0006267  -0.0004190  -0.0003746
   16  -0.0079228  -0.0076466  -0.0006228
   17  -0.0054927  -0.0024355  -0.0004377
   18   0.0008727   0.0016949   0.0003410
   19   0.0007245   0.0003736  -0.0000831
   20  -0.0008256  -0.0000583  -0.0000455
   21   0.0008071   0.0001468   0.0001756
   22  -0.0000148   0.0001580   0.0001751
   23  -0.0003300   0.0000895   0.0001443
   24  -0.0013011  -0.0004127   0.0004437
   25   0.0004685   0.0003546  -0.0000169
   26   0.0004704   0.0003914  -0.0000805
   27  -0.0005252  -0.0004116   0.0001806
   28   0.0002601   0.0001375   0.0000035
   29   0.0001206   0.0001303   0.0000248
   30   0.0009178   0.0006640   0.0002163
   31   0.0004669   0.0191658  -0.0009787
   32   0.0191658   0.0077308   0.0024376
   33  -0.0009787   0.0024376  -0.0275890
 Gradient time:  CPU 2453.50 s  wall 813.39 s
 **********************************************************************
 **                                                                  **
 **                       VIBRATIONAL ANALYSIS                       **
 **                       --------------------                       **
 **                                                                  **
 **        VIBRATIONAL FREQUENCIES (CM**-1) AND NORMAL MODES         **
 **     FORCE CONSTANTS (mDYN/ANGSTROM) AND REDUCED MASSES (AMU)     **
 **                  INFRARED INTENSITIES (KM/MOL)                   **
 **                                                                  **
 **********************************************************************
 

 Mode:                 1                      2                      3
 Frequency:       -79.30                  92.03                  97.63
 Force Cnst:      0.0255                 0.0183                 0.0337
 Red. Mass:       6.8856                 3.6665                 5.9953
 IR Active:          YES                    YES                    YES
 IR Intens:      134.997                 31.064                103.984
 Raman Active:       YES                    YES                    YES
               X      Y      Z        X      Y      Z        X      Y      Z
 O          0.005 -0.002 -0.148   -0.005  0.002  0.258   -0.178  0.037 -0.206
 O          0.026  0.015  0.089    0.034  0.023  0.056    0.038  0.036 -0.029
 O         -0.010 -0.004 -0.321   -0.012  0.063 -0.143   -0.059  0.177  0.089
 C          0.025  0.034 -0.015   -0.112 -0.003 -0.190   -0.050 -0.098  0.133
 C          0.012 -0.013  0.190    0.019 -0.066  0.011    0.014 -0.054  0.019
 C         -0.044 -0.038 -0.137   -0.046  0.066  0.035   -0.028  0.076 -0.031
 H         -0.013 -0.055 -0.047    0.086 -0.114 -0.544   -0.255 -0.110  0.384
 H          0.084  0.182 -0.031   -0.505  0.158 -0.293    0.221 -0.213  0.205
 H          0.091  0.080  0.334    0.055 -0.006  0.091    0.066 -0.142 -0.015
 H         -0.093 -0.160  0.256    0.033 -0.235  0.042    0.008  0.006  0.008
 Li        -0.043  0.004  0.728    0.249 -0.165 -0.044    0.558 -0.372  0.043
 TransDip  -0.008  0.010  0.372    0.130 -0.106 -0.060    0.236 -0.221  0.044

 Mode:                 4                      5                      6
 Frequency:       223.16                 391.61                 490.95
 Force Cnst:      0.0787                 0.6554                 1.3103
 Red. Mass:       2.6817                 7.2533                 9.2270
 IR Active:          YES                    YES                    YES
 IR Intens:        4.040                157.021                 42.952
 Raman Active:       YES                    YES                    YES
               X      Y      Z        X      Y      Z        X      Y      Z
 O         -0.017  0.006  0.003    0.063 -0.168 -0.001    0.212 -0.198  0.015
 O         -0.006  0.031  0.239   -0.186 -0.175  0.013   -0.047 -0.212  0.025
 O          0.004 -0.002 -0.129    0.016  0.110 -0.033   -0.128  0.509  0.017
 C          0.002 -0.038  0.053    0.023  0.030 -0.000    0.196  0.071 -0.029
 C          0.025  0.034 -0.198   -0.177  0.033  0.006   -0.035  0.055 -0.018
 C         -0.025 -0.039  0.048    0.006 -0.140  0.017   -0.061 -0.082 -0.008
 H         -0.051  0.072  0.221    0.101  0.139 -0.003    0.305  0.190 -0.061
 H          0.103 -0.251  0.111    0.047  0.068 -0.001    0.211  0.140 -0.038
 H         -0.246 -0.093 -0.527   -0.270  0.114  0.002   -0.199  0.156 -0.065
 H          0.419  0.253 -0.382   -0.203  0.088  0.004   -0.011  0.149 -0.044
 Li         0.006 -0.004 -0.007    0.546  0.605  0.010   -0.301 -0.389 -0.004
 TransDip   0.044 -0.027 -0.039    0.251  0.313  0.012   -0.173 -0.116 -0.024

 Mode:                 7                      8                      9
 Frequency:       658.21                 673.20                 724.08
 Force Cnst:      2.7028                 0.8073                 3.4077
 Red. Mass:      10.5883                 3.0234                11.0316
 IR Active:          YES                    YES                    YES
 IR Intens:       82.553                 15.398                  9.848
 Raman Active:       YES                    YES                    YES
               X      Y      Z        X      Y      Z        X      Y      Z
 O         -0.160 -0.217 -0.053   -0.121 -0.024  0.002   -0.065  0.495 -0.071
 O         -0.088  0.086 -0.059    0.127 -0.134 -0.049   -0.057 -0.476 -0.056
 O          0.517  0.131 -0.118   -0.044 -0.011  0.006    0.110  0.023 -0.142
 C         -0.284  0.007  0.069   -0.101  0.155  0.067    0.075  0.030 -0.063
 C         -0.229  0.117  0.031    0.155  0.146  0.051   -0.023 -0.090 -0.022
 C          0.321 -0.034  0.201   -0.008 -0.150 -0.014    0.021  0.050  0.423
 H         -0.161  0.088 -0.009   -0.096 -0.135 -0.223   -0.160 -0.112  0.107
 H         -0.284  0.123  0.049   -0.309  0.464 -0.019    0.108 -0.168 -0.020
 H         -0.091 -0.041  0.000    0.025 -0.086 -0.264   -0.219  0.246  0.124
 H         -0.253  0.179  0.033    0.315  0.515 -0.078   -0.147 -0.194  0.046
 Li        -0.170 -0.204 -0.001    0.019  0.017  0.001   -0.039 -0.045 -0.002
 TransDip  -0.268 -0.097  0.059    0.121 -0.032  0.001    0.071 -0.007  0.071

 Mode:                10                     11                     12
 Frequency:       850.11                 878.86                 960.20
 Force Cnst:      2.3882                 0.9196                 1.5909
 Red. Mass:       5.6089                 2.0208                 2.9287
 IR Active:          YES                    YES                    YES
 IR Intens:      216.172                 38.759                112.202
 Raman Active:       YES                    YES                    YES
               X      Y      Z        X      Y      Z        X      Y      Z
 O          0.075 -0.188 -0.142    0.060  0.057 -0.016   -0.090 -0.082  0.024
 O          0.008  0.083 -0.109   -0.089 -0.051  0.036   -0.027 -0.078  0.028
 O         -0.056 -0.066 -0.082    0.037 -0.006  0.026    0.005 -0.037  0.003
 C          0.057 -0.036  0.034   -0.005 -0.072  0.062    0.067 -0.173 -0.084
 C          0.069 -0.018  0.041   -0.034 -0.073  0.078    0.093  0.244  0.035
 C         -0.217  0.229  0.420    0.055  0.142 -0.136    0.016  0.169 -0.041
 H          0.270 -0.116 -0.286    0.078 -0.360 -0.301   -0.096 -0.306  0.002
 H          0.031  0.423 -0.066   -0.158  0.395 -0.059    0.074 -0.303 -0.060
 H          0.047 -0.269 -0.199   -0.289 -0.324 -0.333   -0.226  0.714  0.180
 H          0.142  0.351 -0.067    0.129  0.424 -0.093   -0.019  0.170  0.092
 Li         0.023  0.036  0.000   -0.012 -0.012 -0.001   -0.005 -0.002 -0.001
 TransDip  -0.337  0.243  0.222    0.098  0.160 -0.067    0.150  0.303 -0.034

 Mode:                13                     14                     15
 Frequency:       977.11                1084.45                1107.95
 Force Cnst:      2.0705                 4.0752                 4.5217
 Red. Mass:       3.6808                 5.8814                 6.2519
 IR Active:          YES                    YES                    YES
 IR Intens:      220.977                148.500                203.167
 Raman Active:       YES                    YES                    YES
               X      Y      Z        X      Y      Z        X      Y      Z
 O          0.006 -0.113 -0.016   -0.364 -0.061  0.066    0.049  0.047 -0.007
 O          0.100 -0.164  0.067    0.010  0.028  0.020    0.401 -0.000 -0.011
 O          0.017 -0.063  0.020    0.039 -0.023 -0.001   -0.039 -0.024  0.009
 C         -0.151  0.192 -0.001    0.439  0.144 -0.011    0.019 -0.131 -0.046
 C         -0.018 -0.083 -0.039   -0.095 -0.137 -0.034   -0.458  0.102  0.070
 C         -0.005  0.294 -0.087    0.044  0.040 -0.029   -0.058 -0.026  0.016
 H          0.010  0.745  0.297    0.581  0.136 -0.235    0.085 -0.049 -0.052
 H          0.203  0.026  0.095    0.062  0.362 -0.084   -0.036 -0.109 -0.071
 H         -0.106  0.057  0.020   -0.169 -0.112 -0.071   -0.637  0.025 -0.152
 H          0.036 -0.260 -0.019   -0.053 -0.024 -0.077   -0.097  0.332 -0.064
 Li        -0.003  0.002 -0.001   -0.007 -0.007  0.000    0.010  0.012  0.000
 TransDip  -0.110  0.462 -0.040    0.377  0.009 -0.101   -0.454 -0.050 -0.011

 Mode:                16                     17                     18
 Frequency:      1165.87                1249.77                1274.45
 Force Cnst:      1.3974                 1.0537                 1.0959
 Red. Mass:       1.7449                 1.1450                 1.1452
 IR Active:          YES                    YES                    YES
 IR Intens:        6.428                 11.532                 29.456
 Raman Active:       YES                    YES                    YES
               X      Y      Z        X      Y      Z        X      Y      Z
 O          0.018  0.008 -0.049   -0.009  0.022 -0.032   -0.014  0.007  0.007
 O          0.032 -0.026  0.047   -0.023 -0.002 -0.019    0.004 -0.032  0.047
 O         -0.013 -0.005  0.001   -0.005  0.003 -0.001   -0.012 -0.005 -0.002
 C         -0.005 -0.033  0.171   -0.004 -0.039  0.006    0.003 -0.030 -0.062
 C         -0.016  0.032 -0.159    0.025  0.018  0.080   -0.006  0.045 -0.011
 C         -0.001  0.021 -0.012    0.008 -0.009 -0.004    0.014  0.018 -0.002
 H          0.335 -0.117 -0.323    0.501  0.510 -0.107    0.069  0.156  0.028
 H         -0.514  0.189  0.040   -0.425 -0.465  0.015    0.108 -0.091 -0.037
 H          0.236  0.272  0.244   -0.059 -0.071 -0.063    0.545 -0.439  0.000
 H         -0.398 -0.235  0.035    0.235  0.037  0.005   -0.495  0.444  0.073
 Li         0.001  0.001 -0.000   -0.000 -0.000 -0.000   -0.000 -0.000 -0.000
 TransDip  -0.066  0.047 -0.004    0.098 -0.026  0.041    0.148  0.065 -0.065

 Mode:                19                     20                     21
 Frequency:      1390.97                1401.41                1451.57
 Force Cnst:      1.5303                 1.5632                10.5426
 Red. Mass:       1.3424                 1.3509                 8.4922
 IR Active:          YES                    YES                    YES
 IR Intens:       11.801                 20.764                810.788
 Raman Active:       YES                    YES                    YES
               X      Y      Z        X      Y      Z        X      Y      Z
 O         -0.014  0.027  0.012   -0.021  0.028  0.017    0.001 -0.038 -0.011
 O          0.010  0.033 -0.006   -0.015 -0.025 -0.006   -0.007  0.024 -0.019
 O         -0.009  0.006 -0.003    0.017  0.002  0.006   -0.408 -0.029 -0.105
 C         -0.062 -0.087 -0.009   -0.023 -0.114  0.004   -0.016 -0.027  0.007
 C          0.071 -0.088 -0.015   -0.036  0.109 -0.003   -0.035  0.040  0.019
 C          0.013 -0.050  0.008   -0.025 -0.009 -0.014    0.633  0.063  0.157
 H          0.243  0.410  0.057    0.248  0.234 -0.008   -0.102  0.067  0.173
 H          0.261  0.401 -0.037    0.374  0.501 -0.044   -0.063  0.261 -0.036
 H         -0.309  0.415  0.110    0.271 -0.197 -0.029   -0.164 -0.172 -0.236
 H         -0.268  0.397  0.005    0.386 -0.444 -0.029   -0.012 -0.385  0.079
 Li         0.001  0.000  0.000    0.000  0.000  0.000   -0.003  0.001 -0.002
 TransDip   0.042 -0.100  0.017   -0.146 -0.004  0.006    0.910  0.054  0.037

 Mode:                22                     23                     24
 Frequency:      1522.83                1541.91                3031.58
 Force Cnst:      1.5083                 1.5603                 5.7938
 Red. Mass:       1.1039                 1.1139                 1.0700
 IR Active:          YES                    YES                    YES
 IR Intens:       20.083                 11.845                 98.156
 Raman Active:       YES                    YES                    YES
               X      Y      Z        X      Y      Z        X      Y      Z
 O          0.006 -0.003 -0.002    0.010 -0.002 -0.005    0.000 -0.000 -0.000
 O         -0.010 -0.007 -0.001   -0.000  0.000  0.002   -0.003  0.000  0.000
 O         -0.014 -0.002 -0.003    0.019  0.001  0.004   -0.000 -0.000 -0.000
 C          0.018 -0.008 -0.008    0.062 -0.047 -0.030    0.006 -0.003  0.009
 C         -0.067 -0.047 -0.015    0.022  0.018  0.005   -0.033 -0.028 -0.061
 C          0.026  0.013  0.002   -0.033  0.002 -0.004    0.001  0.001 -0.000
 H         -0.113  0.030  0.172   -0.272  0.203  0.579   -0.074  0.050 -0.059
 H         -0.183  0.087 -0.054   -0.566  0.331 -0.185    0.009 -0.010 -0.047
 H          0.377  0.192  0.519   -0.079 -0.081 -0.159    0.118  0.126 -0.171
 H          0.492  0.371 -0.276   -0.137 -0.109  0.081    0.299  0.177  0.895
 Li        -0.001 -0.000 -0.000   -0.000 -0.000 -0.000    0.000  0.000 -0.000
 TransDip   0.119  0.078  0.023   -0.107  0.025 -0.005   -0.203 -0.137 -0.202

 Mode:                25                     26                     27
 Frequency:      3046.11                3097.69                3141.59
 Force Cnst:      5.7983                 6.2512                 6.3842
 Red. Mass:       1.0606                 1.1057                 1.0979
 IR Active:          YES                    YES                    YES
 IR Intens:       95.251                 80.784                 55.968
 Raman Active:       YES                    YES                    YES
               X      Y      Z        X      Y      Z        X      Y      Z
 O          0.003  0.001 -0.000    0.000 -0.000  0.001   -0.000 -0.000  0.000
 O         -0.000  0.000 -0.000    0.000 -0.000  0.000    0.000  0.000  0.000
 O          0.001 -0.000  0.000   -0.000 -0.000 -0.000    0.000  0.000  0.000
 C          0.037 -0.035 -0.047   -0.042  0.030 -0.078   -0.003  0.001 -0.013
 C         -0.003 -0.001  0.005   -0.009 -0.009  0.002    0.035  0.042 -0.071
 C         -0.002  0.001  0.000    0.001  0.000 -0.000   -0.001 -0.001  0.000
 H         -0.327  0.235 -0.287    0.577 -0.430  0.471    0.056 -0.041  0.045
 H         -0.130  0.141  0.843   -0.081  0.091  0.452   -0.019  0.023  0.109
 H          0.031  0.026 -0.036    0.079  0.086 -0.102   -0.487 -0.536  0.627
 H         -0.008 -0.005 -0.019    0.026  0.017  0.081    0.078  0.054  0.214
 Li        -0.000 -0.000  0.000    0.000  0.000  0.000    0.000  0.000 -0.000
 TransDip   0.229 -0.126 -0.172   -0.200  0.057 -0.199    0.101  0.098 -0.194

 STANDARD THERMODYNAMIC QUANTITIES AT   298.15 K  AND     1.00 ATM

   This Molecule has  1 Imaginary Frequencies
   Zero point vibrational energy:       46.497 kcal/mol

   Atom    1 Element O  Has Mass   15.99491
   Atom    2 Element O  Has Mass   15.99491
   Atom    3 Element O  Has Mass   15.99491
   Atom    4 Element C  Has Mass   12.00000
   Atom    5 Element C  Has Mass   12.00000
   Atom    6 Element C  Has Mass   12.00000
   Atom    7 Element H  Has Mass    1.00783
   Atom    8 Element H  Has Mass    1.00783
   Atom    9 Element H  Has Mass    1.00783
   Atom   10 Element H  Has Mass    1.00783
   Atom   11 Element Li Has Mass    7.01600
   Molecular Mass:    95.032050 amu
   Principal axes and moments of inertia in amu*Bohr^2:
                             1           2           3
    Eigenvalues --      260.68113   727.72204   948.91001
          X               0.95771    -0.27075     0.09736
          Y               0.27602     0.96009    -0.04517
          Z              -0.08124     0.07013     0.99422
   Rotational Symmetry Number is   1
   The Molecule is an Asymmetric Top
   Translational Enthalpy:        0.889 kcal/mol
   Rotational Enthalpy:           0.889 kcal/mol
   Vibrational Enthalpy:         48.539 kcal/mol
   gas constant (RT):             0.592 kcal/mol
   Translational Entropy:        39.566  cal/mol.K
   Rotational Entropy:           26.690  cal/mol.K
   Vibrational Entropy:          12.548  cal/mol.K

   Total Enthalpy:               50.909 kcal/mol
   Total Entropy:                78.804  cal/mol.K
Archival summary:
1\1\nid01333\FREQ\ProcedureUnspecified\BasisUnspecified\33i14(2)\sblau\TueNov1315:10:212018TueNov1315:10:212018\0\\#,FREQ,ProcedureUnspecified,BasisUnspecified,\\0,2\O\C,1,1.42006\H,2,1.09292,1,110.456\H,2,1.0949,1,109.031,3,-119.706,0\C,1,1.43987,2,108.862,3,-124.902,0\O,5,1.27296,1,116.393,2,-148.71,0\O,5,1.41994,1,105.068,2,-18.0645,0\C,7,1.41289,5,105.716,1,34.5029,0\H,8,1.0894,7,109.059,5,-157.171,0\H,8,1.09675,7,110.305,5,82.7376,0\Li,6,1.88603,5,126.611,1,-33.8097,0\\\@

 Total job time:  843.44s(wall), 3132.87s(cpu) 
 Tue Nov 13 15:10:21 2018

        *************************************************************
        *                                                           *
        *  Thank you very much for using Q-Chem.  Have a nice day.  *
        *                                                           *
        *************************************************************


