
Running Job 1 of 1 mol.qin
qchem mol.qin_48194.0 /tmp/qchem48194/ 1
/global/common/cori/software/qchem/5.1/exe/qcprog.exe mol.qin_48194.0 /tmp/qchem48194/
Check license passed

                  Welcome to Q-Chem
     A Quantum Leap Into The Future Of Chemistry


 Q-Chem 5.1, Q-Chem, Inc., Pleasanton, CA (2018)

 Yihan Shao,  Zhengting Gan,  E. Epifanovsky,  A. T. B. Gilbert,  M. Wormit,  
 J. Kussmann,  A. W. Lange,  A. Behn,  Jia Deng,  Xintian Feng,  D. Ghosh,  
 M. Goldey,  P. R. Horn,  L. D. Jacobson,  I. Kaliman,  T. Kus,  A. Landau,  
 Jie Liu,  E. I. Proynov,  R. M. Richard,  R. P. Steele,  E. J. Sundstrom,  
 H. L. Woodcock III,  P. M. Zimmerman,  D. Zuev,  B. Albrecht,  E. Alguire,  
 S. A. Baeppler,  D. Barton,  Z. Benda,  Y. A. Bernard,  E. J. Berquist,  
 K. B. Bravaya,  H. Burton,  D. Casanova,  Chun-Min Chang,  Yunqing Chen,  
 A. Chien,  K. D. Closser,  M. P. Coons,  S. Coriani,  S. Dasgupta,  
 A. L. Dempwolff,  M. Diedenhofen,  Hainam Do,  R. G. Edgar,  Po-Tung Fang,  
 S. Faraji,  S. Fatehi,  Qingguo Feng,  K. D. Fenk,  J. Fosso-Tande,  
 Qinghui Ge,  A. Ghysels,  G. Gidofalvi,  J. Gomes,  J. Gonthier,  A. Gunina,  
 D. Hait,  M. W. D. Hanson-Heine,  P. H. P. Harbach,  A. W. Hauser,  
 J. E. Herr,  E. G. Hohenstein,  Z. C. Holden,  Kerwin Hui,  B. C. Huynh,  
 T.-C. Jagau,  Hyunjun Ji,  B. Kaduk,  K. Khistyaev,  Jaehoon Kim,  
 P. Klunzinger,  K. Koh,  D. Kosenkov,  L. Koulias,  T. Kowalczyk,  
 C. M. Krauter,  A. Kunitsa,  Ka Un Lao,  A. Laurent,  K. V. Lawler,  
 Joonho Lee,  D. Lefrancois,  S. Lehtola,  D. S. Levine,  Yi-Pei Li,  
 You-Sheng Lin,  Fenglai Liu,  E. Livshits,  A. Luenser,  P. Manohar,  
 E. Mansoor,  S. F. Manzer,  Shan-Ping Mao,  Yuezhi Mao,  N. Mardirossian,  
 A. V. Marenich,  T. Markovich,  L. A. Martinez-Martinez,  S. A. Maurer,  
 N. J. Mayhall,  S. C. McKenzie,  J.-M. Mewes,  A. F. Morrison,  
 J. W. Mullinax,  K. Nanda,  T. S. Nguyen-Beck,  R. Olivares-Amaya,  
 J. A. Parkhill,  T. M. Perrine,  F. Plasser,  P. Pokhilko,  S. Prager,  
 A. Prociuk,  E. Ramos,  D. R. Rehn,  F. Rob,  M. Schneider,  N. Sergueev,  
 S. M. Sharada,  S. Sharma,  D. W. Small,  T. Stauch,  T. Stein,  
 Yu-Chuan Su,  A. J. W. Thom,  A. Tkatchenko,  T. Tsuchimochi,  N. M. Tubman,  
 L. Vogt,  M. L. Vidal,  O. Vydrov,  M. A. Watson,  J. Wenzel,  
 M. de Wergifosse,  T. A. Wesolowski,  A. White,  J. Witte,  A. Yamada,  
 Jun Yang,  K. Yao,  S. Yeganeh,  S. R. Yost,  Zhi-Qiang You,  A. Zech,  
 Igor Ying Zhang,  Xing Zhang,  Yan Zhao,  Ying Zhu,  B. R. Brooks,  
 G. K. L. Chan,  C. J. Cramer,  M. S. Gordon,  W. J. Hehre,  A. Klamt,  
 M. W. Schmidt,  C. D. Sherrill,  D. G. Truhlar,  A. Aspuru-Guzik,  R. Baer,  
 A. T. Bell,  N. A. Besley,  Jeng-Da Chai,  R. A. DiStasio Jr.,  A. Dreuw,  
 B. D. Dunietz,  T. R. Furlani,  Chao-Ping Hsu,  Yousung Jung,  Jing Kong,  
 D. S. Lambrecht,  WanZhen Liang,  C. Ochsenfeld,  V. A. Rassolov,  
 L. V. Slipchenko,  J. E. Subotnik,  T. Van Voorhis,  J. M. Herbert,  
 A. I. Krylov,  P. M. W. Gill,  M. Head-Gordon

 Contributors to earlier versions of Q-Chem not listed above: 
 R. D. Adamson,  B. Austin,  J. Baker,  G. J. O. Beran,  K. Brandhorst,  
 S. T. Brown,  E. F. C. Byrd,  A. K. Chakraborty,  C.-L. Cheng,  
 Siu Hung Chien,  D. M. Chipman,  D. L. Crittenden,  H. Dachsel,  
 R. J. Doerksen,  A. D. Dutoi,  L. Fusti-Molnar,  W. A. Goddard III,  
 A. Golubeva-Zadorozhnaya,  S. R. Gwaltney,  G. Hawkins,  A. Heyden,  
 S. Hirata,  G. Kedziora,  F. J. Keil,  C. Kelley,  Jihan Kim,  R. A. King,  
 R. Z. Khaliullin,  P. P. Korambath,  W. Kurlancheek,  A. M. Lee,  M. S. Lee,  
 S. V. Levchenko,  Ching Yeh Lin,  D. Liotard,  R. C. Lochan,  I. Lotan,  
 P. E. Maslen,  N. Nair,  D. P. O'Neill,  D. Neuhauser,  E. Neuscamman,  
 C. M. Oana,  R. Olson,  B. Peters,  R. Peverati,  P. A. Pieniazek,  
 Y. M. Rhee,  J. Ritchie,  M. A. Rohrdanz,  E. Rosta,  N. J. Russ,  
 H. F. Schaefer III,  N. E. Schultz,  N. Shenvi,  A. C. Simmonett,  A. Sodt,  
 D. Stuck,  K. S. Thanthiriwatte,  V. Vanovschi,  Tao Wang,  A. Warshel,  
 C. F. Williams,  Q. Wu,  X. Xu,  W. Zhang

 Please cite Q-Chem as follows:
 Y. Shao et al., Mol. Phys. 113, 184-215 (2015)
 DOI: 10.1080/00268976.2014.952696

 Q-Chem 5.1.0 for Intel X86 EM64T Linux

 Parts of Q-Chem use Armadillo 8.300.2 (Tropical Shenanigans).
 http://arma.sourceforge.net/

 Q-Chem begins on Tue Nov 13 14:18:25 2018  

Host: cori01
0

     Scratch files written to /tmp/qchem48194//
 Jun2518 |scratch|qcdevops|jenkins|workspace|build_RNUM -1
Processing $rem in /global/common/cori/software/qchem/5.1/config/preferences.
 MEM_TOTAL  96000 
Symmetry turned off for PCM/SM12/SMD calculation

Checking the input file for inconsistencies... 	...done.

--------------------------------------------------------------
User input:
--------------------------------------------------------------
$molecule
0 2
O     -1.9622175816      1.1060043230      0.0709687370
O     -1.9610805772     -1.0946698475     -0.1143048199
O     -0.0125851665      0.0011715900      0.0321374564
C     -3.3514895076      0.7444938189      0.1514985019
C     -3.3520420153     -0.7383009053     -0.1914964325
C     -1.2127898708      0.0048581859      0.0095983571
H     -3.9138657601      1.3715404079     -0.5375146771
H     -3.6804534788      0.8998570317      1.2004203943
H     -3.8918573164     -1.3201602542      0.5686059192
H     -3.7116187257     -0.9731943504     -1.1922134364
Li      0.5401522606      1.7637013727     -0.6447137855
$end

$rem
job_type = opt
basis = 6-311++g*
max_scf_cycles = 200
gen_scfman = true
scf_algorithm = gdm
method = wb97xd
geom_opt_max_cycles = 200
solvent_method = pcm
xc_grid = 3
$end

$pcm
heavypoints 194
hpoints 194
radii uff
theory cpcm
vdwscale 1.1
$end

$solvent
dielectric 30.0
$end
--------------------------------------------------------------
 ----------------------------------------------------------------
             Standard Nuclear Orientation (Angstroms)
    I     Atom           X                Y                Z
 ----------------------------------------------------------------
    1      O      -1.9622175816     1.1060043230     0.0709687370
    2      O      -1.9610805772    -1.0946698475    -0.1143048199
    3      O      -0.0125851665     0.0011715900     0.0321374564
    4      C      -3.3514895076     0.7444938189     0.1514985019
    5      C      -3.3520420153    -0.7383009053    -0.1914964325
    6      C      -1.2127898708     0.0048581859     0.0095983571
    7      H      -3.9138657601     1.3715404079    -0.5375146771
    8      H      -3.6804534788     0.8998570317     1.2004203943
    9      H      -3.8918573164    -1.3201602542     0.5686059192
   10      H      -3.7116187257    -0.9731943504    -1.1922134364
   11      Li      0.5401522606     1.7637013727    -0.6447137855
 ----------------------------------------------------------------
 Nuclear Repulsion Energy =   270.9158039376 hartrees
 There are       25 alpha and       24 beta electrons
 Requested basis set is 6-311++G(d)
 There are 58 shells and 170 basis functions

 Total QAlloc Memory Limit  96000 MB
 Mega-Array Size       188 MB
 MEM_STATIC part       192 MB
 Discretize the solute cavity surface with Lebedev spheres
	Using 194 Lebedev grid points for each H atom
	Using 194 Lebedev grid points for other atoms
	Atomic van der Waals radii will be scaled by 1.10
 Remove points where switching function is < 1.0e-08
 Keep 1041 surface tesserae and discard 1093 interior tesserae
 Molecular Surface Area = 137.359 Angst**2
 A cutoff of  1.0D-12 yielded   1671 shell pairs
 There are     14625 function pairs (     15872 Cartesian)
 
 -------------------------------------------------------
 OpenMP Integral Computing Module                       
 Release: version 1.0, May 2013, Q-Chem Inc. Pittsburgh 
 -------------------------------------------------------
 Integral Job Info:
 Integral job number is                      11
 Integral operator is                         1
 short-range coefficients              22203600
 long-range coefficients              100000000
 Omega coefficients                         200
 if combine SR and LR in K                    1
 Integral screening is                        0
 Integral computing path is                   2
 max size of driver memory is            800000
 size of driver memory is                593474
 size of scratch memory is              2428936
 max col of scratch BK array               1296
 max len of scratch array in speh3          155
 max len of scratch index in speh4           18
 max int batch size is                      520
 min int batch size is                       52
 fixed nKL is                                52
 max L of basis functions is                  2
 order of int derivative is                   0
 number of shells is                         58
 number of basis is                         177
 number of cartesian basis is               177
 number of contracted shell pairs          1671
 number of primitive shell pairs           4816
 maxK2 (contraction) of shell pair           36
 max number of K2 of shell pair               1
 max number of CS2 of shell pair            268
 max number of PS2 of shell pair            882
 mem total for path MDJ                  537338
 -------------------------------------------------------
 Smallest overlap matrix eigenvalue = 6.00E-05

 Scale SEOQF with 1.000000e-02/1.000000e-02/1.000000e-02

 Standard Electronic Orientation quadrupole field applied
 Nucleus-field energy     =     0.0000000012 hartrees
 Guess from superposition of atomic densities
 Warning:  Energy on first SCF cycle will be non-variational
 SAD guess density has 49.000000 electrons

 -----------------------------------------------------------------------
  General SCF calculation program by
  Eric Jon Sundstrom, Paul Horn, Yuezhi Mao, Dmitri Zuev, Alec White,
  David Stuck, Shaama M.S., Shane Yost, Joonho Lee, David Small,
  Daniel Levine, Susi Lehtola, Hugh Burton, Evgeny Epifanovsky
 -----------------------------------------------------------------------
 Exchange:     0.2220 Hartree-Fock + 1.0000 wB97X-D + LR-HF
 Correlation:  1.0000 wB97X-D
 Using SG-3 standard quadrature grid
 Dispersion:   Grimme D
 using 32 threads for integral computing
 -------------------------------------------------------
 OpenMP Integral computing Module                
 Release: version 1.0, May 2013, Q-Chem Inc. Pittsburgh 
 -------------------------------------------------------
 using 32 threads for integral computing
 -------------------------------------------------------
 OpenMP Integral computing Module                
 Release: version 1.0, May 2013, Q-Chem Inc. Pittsburgh 
 -------------------------------------------------------
 -------------------------------------------------------
 OpenMP BLAS3 based DFT computing Module                
 Release: version 1.0, May 2013, Q-Chem Inc. Pittsburgh 
 -------------------------------------------------------
 A unrestricted SCF calculation will be
 performed using Roothaan-Hall, GDM
 SCF converges when RMS gradient is below 1.0e-08
 ---------------------------------------
  Cycle       Energy         DIIS error
 ---------------------------------------
    1    -351.3741514595      2.51e-02  Roothaan Step
 ---------------------------------------
  Cycle       Energy        RMS Gradient
 ---------------------------------------
    1    -349.7616696784      1.79e-01   Descent step
    2    -349.8945810997      2.92e-02   Normal BFGS step
    3    -349.9034325280      1.47e-02   Normal BFGS step
    4    -349.9055180201      7.56e-03   Normal BFGS step
    5    -349.9063451528      4.29e-03   Normal BFGS step
    6    -349.9065209704      3.16e-03   Normal BFGS step
    7    -349.9066539144      4.31e-03   Normal BFGS step
    8    -349.9067426962      4.93e-03   Normal BFGS step
    9    -349.9068627501      4.67e-03   Normal BFGS step
   10    -349.9069634117      3.72e-03   Normal BFGS step
   11    -349.9070794979      4.52e-03   Normal BFGS step
   12    -349.9072191322      4.48e-03   Normal BFGS step
   13    -349.9073421391      3.08e-03   Normal BFGS step
   14    -349.9074308207      2.63e-03   Normal BFGS step
   15    -349.9074791850      2.67e-03   Normal BFGS step
   16    -349.9075315542      3.79e-03   Normal BFGS step
   17    -349.9075832493      3.08e-03   Normal BFGS step
   18    -349.9076463482      1.54e-03   Normal BFGS step
   19    -349.9076608080      1.13e-03   Normal BFGS step
   20    -349.9076684586      5.13e-04   Normal BFGS step
   21    -349.9076704076      3.20e-04   Normal BFGS step
   22    -349.9076713769      3.06e-04   Normal BFGS step
   23    -349.9076720620      2.88e-04   Normal BFGS step
   24    -349.9076725246      2.17e-04   Normal BFGS step
   25    -349.9076731042      1.82e-04   Normal BFGS step
   26    -349.9076735318      1.74e-04   Normal BFGS step
   27    -349.9076737480      1.10e-04   Normal BFGS step
   28    -349.9076738559      7.44e-05   Normal BFGS step
   29    -349.9076739036      4.28e-05   Normal BFGS step
   30    -349.9076739199      2.22e-05   Normal BFGS step
   31    -349.9076739250      1.14e-05   Normal BFGS step
   32    -349.9076739261      5.15e-06   Normal BFGS step
   33    -349.9076739265      4.44e-06   Normal BFGS step
   34    -349.9076739266      3.39e-06   Normal BFGS step
   35    -349.9076739267      1.90e-06   Normal BFGS step
   36    -349.9076739267      9.06e-07   Normal BFGS step
   37    -349.9076739267      5.29e-07   Normal BFGS step
   38    -349.9076739267      2.23e-07   Normal BFGS step
   39    -349.9076739267      1.14e-07   Normal BFGS step
   40    -349.9076739267      5.95e-08   Normal BFGS step
   41    -349.9076739267      3.80e-08   Normal BFGS step
   42    -349.9076739267      2.03e-08   Normal BFGS step
   43    -349.9076739267      1.74e-08   Normal BFGS step
   44    -349.9076739267      9.75e-09  Convergence criterion met
 ---------------------------------------
 SCF time:   CPU 1452.73s  wall 66.00s 
<S^2> =          0.750293025

************** Final PCM Free Energy Summary **************
 G_electrostatic  =      -0.05476057 hartree =     -34.36277730 kcal/mol
 G_cavitation     =       0.00000000 hartree =       0.00000000 kcal/mol
 G_dispersion     =       0.00000000 hartree =       0.00000000 kcal/mol
 G_repulsion      =       0.00000000 hartree =       0.00000000 kcal/mol
 --------------------------------------------------
 Non-electrostatic Free Energy =       0.00000000 hartree =       0.00000000 kcal/mol
 Total                         =      -0.05476057 hartree =     -34.36277730 kcal/mol
 --------------------------------------------------
 SCF Energy (H0 + V/2)                       =    -349.90767393 
 Solute Internal Energy (H0)                 =    -349.85291336 
 Total Free Energy (H0 + V/2 + non-elec)     =    -349.90767393 hartree
                                             = -219570.37936458 kcal/mol
***********************************************************

 SCF   energy in the final basis set =     -349.9076739267
 Total energy in the final basis set =     -349.9076739267
 
 --------------------------------------------------------------
 
                    Orbital Energies (a.u.)
 --------------------------------------------------------------
 
 Alpha MOs
 -- Occupied --
-19.326 -19.323 -19.268 -10.492 -10.363 -10.361  -2.047  -1.295
 -1.179  -1.175  -0.894  -0.791  -0.720  -0.648  -0.632  -0.606
 -0.567  -0.551  -0.533  -0.488  -0.472  -0.435  -0.421  -0.404
 -0.093
 -- Virtual --
  0.023   0.025   0.026   0.044   0.063   0.067   0.070   0.073
  0.075   0.080   0.087   0.098   0.110   0.130   0.137   0.142
  0.160   0.165   0.175   0.183   0.191   0.194   0.199   0.201
  0.206   0.218   0.223   0.230   0.240   0.257   0.281   0.291
  0.303   0.318   0.334   0.337   0.342   0.355   0.360   0.363
  0.379   0.381   0.405   0.422   0.435   0.449   0.451   0.483
  0.485   0.535   0.542   0.575   0.614   0.622   0.643   0.646
  0.650   0.680   0.686   0.693   0.714   0.729   0.743   0.766
  0.777   0.786   0.794   0.811   0.848   0.894   0.921   0.987
  1.076   1.107   1.125   1.180   1.194   1.222   1.240   1.272
  1.292   1.312   1.350   1.382   1.425   1.453   1.489   1.565
  1.639   1.657   1.714   1.747   1.785   1.791   1.836   1.849
  1.857   1.946   1.974   2.051   2.165   2.478   2.587   2.589
  2.620   2.629   2.860   2.918   2.943   2.989   2.993   3.022
  3.050   3.082   3.108   3.217   3.222   3.238   3.295   3.368
  3.453   3.550   3.631   3.738   3.862   3.925   3.958   4.112
  4.123   4.193   5.083   5.119   5.139   5.279   5.348   5.459
  5.495   5.980   6.005  23.640  23.791  23.941  49.947  50.044
 50.140
 
 Beta MOs
 -- Occupied --
-19.325 -19.323 -19.268 -10.492 -10.363 -10.361  -2.046  -1.294
 -1.178  -1.174  -0.893  -0.791  -0.719  -0.647  -0.631  -0.605
 -0.566  -0.550  -0.533  -0.487  -0.472  -0.435  -0.421  -0.404
 -- Virtual --
  0.045   0.056   0.058   0.076   0.084   0.087   0.093   0.107
  0.126   0.136   0.156   0.159   0.163   0.177   0.183   0.197
  0.202   0.206   0.216   0.222   0.228   0.231   0.238   0.253
  0.255   0.263   0.270   0.280   0.290   0.294   0.304   0.322
  0.330   0.345   0.351   0.364   0.368   0.381   0.399   0.401
  0.404   0.409   0.424   0.447   0.459   0.475   0.482   0.497
  0.511   0.532   0.554   0.567   0.584   0.636   0.645   0.659
  0.664   0.677   0.692   0.704   0.718   0.743   0.751   0.766
  0.785   0.792   0.806   0.825   0.828   0.865   0.930   0.960
  1.001   1.084   1.114   1.130   1.184   1.202   1.231   1.246
  1.279   1.295   1.322   1.352   1.387   1.428   1.457   1.493
  1.567   1.642   1.659   1.716   1.750   1.787   1.795   1.838
  1.850   1.859   1.948   1.976   2.053   2.167   2.480   2.588
  2.592   2.621   2.631   2.862   2.919   2.945   2.990   2.994
  3.023   3.051   3.083   3.109   3.218   3.223   3.239   3.296
  3.369   3.454   3.551   3.632   3.739   3.867   3.926   3.961
  4.114   4.124   4.194   5.084   5.120   5.141   5.280   5.349
  5.459   5.495   5.981   6.006  23.641  23.791  23.942  49.948
 50.044  50.140
 --------------------------------------------------------------
 
          Ground-State Mulliken Net Atomic Charges

     Atom                 Charge (a.u.)    Spin (a.u.)
  --------------------------------------------------------
      1 O                     0.095106      -0.140341
      2 O                    -0.012446      -0.081349
      3 O                    -0.313085      -0.055643
      4 C                    -0.616286       0.158214
      5 C                    -0.123281      -0.383999
      6 C                    -0.052895       0.465200
      7 H                     0.226510       0.053908
      8 H                     0.252383       0.052630
      9 H                     0.301218      -0.002633
     10 H                     0.136172       0.163456
     11 Li                    0.106605       0.770557
  --------------------------------------------------------
  Sum of atomic charges =     0.000000
  Sum of spin   charges =     1.000000

 -----------------------------------------------------------------
                    Cartesian Multipole Moments
 -----------------------------------------------------------------
    Charge (ESU x 10^10)
                 0.0000
    Dipole Moment (Debye)
         X      -0.0041      Y       2.1534      Z       6.2412
       Tot       6.6022
    Quadrupole Moments (Debye-Ang)
        XX     -26.9820     XY      11.1997     YY     -47.9207
        XZ     -11.0677     YZ       5.1100     ZZ     -63.1224
    Octopole Moments (Debye-Ang^2)
       XXX     163.5534    XXY     -25.1314    XYY     104.6668
       YYY     -55.3480    XXZ      43.0989    XYZ     -13.1172
       YYZ      36.0596    XZZ      97.3349    YZZ     -35.1858
       ZZZ     111.4986
    Hexadecapole Moments (Debye-Ang^3)
      XXXX   -1156.3247   XXXY      78.2935   XXYY    -338.2036
      XYYY     100.4056   YYYY    -584.2974   XXXZ    -111.9374
      XXYZ      44.2046   XYYZ     -47.0096   YYYZ     104.1521
      XXZZ    -354.4773   XYZZ      37.0080   YYZZ    -208.8887
      XZZZ    -102.5070   YZZZ     119.6258   ZZZZ    -583.1351
 -----------------------------------------------------------------
 Calculating analytic gradient of the SCF energy
 Gradient of SCF Energy
            1           2           3           4           5           6
    1  -0.0115455  -0.0098555  -0.0083419   0.0155903   0.0152998   0.0210204
    2   0.0046908  -0.0035424  -0.0110291  -0.0043425   0.0113239   0.0074788
    3  -0.0032193  -0.0024022  -0.0009651  -0.0242670  -0.0106666   0.0041445
            7           8           9          10          11
    1  -0.0046115  -0.0063543  -0.0077983  -0.0037705   0.0003671
    2   0.0010630  -0.0020625  -0.0036926  -0.0016188   0.0017313
    3  -0.0000856   0.0207183   0.0121947   0.0000775   0.0044708
 Max gradient component =       2.427E-02
 RMS gradient           =       9.652E-03
 Computing fast CPCM-SWIG gradient
 Updating gradient with PCM contributions...
 -- total gradient after adding PCM contribution --
---------------------------------------------------
  Atom         X              Y              Z     
---------------------------------------------------
   1      -0.007886       0.000689      -0.002216
   2      -0.009978      -0.002822      -0.001834
   3      -0.008853       0.000444      -0.001666
   4       0.008152       0.001196      -0.014963
   5       0.006673       0.003091      -0.008208
   6       0.026996       0.009596       0.004360
   7      -0.000994      -0.000438       0.001046
   8      -0.003393      -0.002451       0.012682
   9      -0.003368      -0.001028       0.006896
  10      -0.001044      -0.000991       0.001017
  11      -0.006306      -0.007286       0.002888
---------------------------------------------------
 Number of fixed atoms: 0
 Gradient time:  CPU 59.41 s  wall 4.21 s
 Geometry Optimization Parameters
   NAtoms,    NIC,     NZ,  NCons,   NDum,   NFix, NCnnct, MaxDiis
       11      97       0       0       0       0       0       0


** GEOMETRY OPTIMIZATION IN DELOCALIZED INTERNAL COORDINATES **
   Searching for a Minimum

   Optimization Cycle:   1

                       Coordinates (Angstroms)
     ATOM                X               Y               Z
      1  O        -1.9622175816    1.1060043230    0.0709687370
      2  O        -1.9610805772   -1.0946698475   -0.1143048199
      3  O        -0.0125851665    0.0011715900    0.0321374564
      4  C        -3.3514895076    0.7444938189    0.1514985019
      5  C        -3.3520420153   -0.7383009053   -0.1914964325
      6  C        -1.2127898708    0.0048581859    0.0095983571
      7  H        -3.9138657601    1.3715404079   -0.5375146771
      8  H        -3.6804534788    0.8998570317    1.2004203943
      9  H        -3.8918573164   -1.3201602542    0.5686059192
     10  H        -3.7116187257   -0.9731943504   -1.1922134364
     11  Li        0.5401522606    1.7637013727   -0.6447137855
   Point Group: c1    Number of degrees of freedom:    27


   Energy is   -349.907673927


 Attempting to Generate Delocalized Internal Coordinates

 27 Hessian modes will be used to form the next step
  Hessian Eigenvalues:
     0.008925    0.018299    0.021524    0.037415    0.043032    0.052749
     0.056034    0.058963    0.069083    0.077900    0.088037    0.109782
     0.110804    0.114843    0.151467    0.186947    0.215517    0.280733
     0.325757    0.337972    0.341135    0.349293    0.350201    0.391745
     0.457624    0.553603    0.891048

 Minimum Search - Taking Simple RFO Step
 Searching for Lamda that Minimizes Along All modes
 Value Taken    Lamda =  -0.00273188
 Step Taken.  Stepsize is  0.207585

                             Maximum     Tolerance    Cnvgd?
         Gradient           0.010902      0.000300      NO
         Displacement       0.098870      0.001200      NO
         Energy change     *********      0.000001      NO


 New Cartesian Coordinates Obtained by Inverse Iteration

 Displacement from previous Coordinates is:  0.153437
 ----------------------------------------------------------------
             Standard Nuclear Orientation (Angstroms)
    I     Atom           X                Y                Z
 ----------------------------------------------------------------
    1      O      -1.9650216737     1.1049031715     0.0817994668
    2      O      -1.9619346516    -1.1013464201    -0.0980377570
    3      O      -0.0195223447     0.0003162333     0.0271295643
    4      C      -3.3582273892     0.7411325238     0.1728528442
    5      C      -3.3563091732    -0.7448148356    -0.1773284067
    6      C      -1.2259174953    -0.0005085196     0.0067825055
    7      H      -3.9016422148     1.3652884129    -0.5347685164
    8      H      -3.6867991191     0.9329439542     1.1941483120
    9      H      -3.9012329650    -1.3537431991     0.5412358962
   10      H      -3.6888849143    -0.9543111851    -1.1935054206
   11      Li      0.5556442014     1.7754412363    -0.6673222737
 ----------------------------------------------------------------
 Nuclear Repulsion Energy =   270.6803230775 hartrees
 There are       25 alpha and       24 beta electrons
 Discretize the solute cavity surface with Lebedev spheres
	Using 194 Lebedev grid points for each H atom
	Using 194 Lebedev grid points for other atoms
	Atomic van der Waals radii will be scaled by 1.10
 Remove points where switching function is < 1.0e-08
 Keep 1053 surface tesserae and discard 1081 interior tesserae
 Molecular Surface Area = 137.497 Angst**2
 Nucleus-field energy     =     0.0000000012 hartrees
 Requested basis set is 6-311++G(d)
 There are 58 shells and 170 basis functions
 A cutoff of  1.0D-12 yielded   1671 shell pairs
 There are     14625 function pairs (     15872 Cartesian)
 Smallest overlap matrix eigenvalue = 6.17E-05
 Guess MOs from SCF MO coefficient file
 Reading MOs from coefficient file
 Reading MOs from coefficient file

 -----------------------------------------------------------------------
  General SCF calculation program by
  Eric Jon Sundstrom, Paul Horn, Yuezhi Mao, Dmitri Zuev, Alec White,
  David Stuck, Shaama M.S., Shane Yost, Joonho Lee, David Small,
  Daniel Levine, Susi Lehtola, Hugh Burton, Evgeny Epifanovsky
 -----------------------------------------------------------------------
 Exchange:     0.2220 Hartree-Fock + 1.0000 wB97X-D + LR-HF
 Correlation:  1.0000 wB97X-D
 Using SG-3 standard quadrature grid
 Dispersion:   Grimme D
 using 32 threads for integral computing
 -------------------------------------------------------
 OpenMP Integral computing Module                
 Release: version 1.0, May 2013, Q-Chem Inc. Pittsburgh 
 -------------------------------------------------------
 using 32 threads for integral computing
 -------------------------------------------------------
 OpenMP Integral computing Module                
 Release: version 1.0, May 2013, Q-Chem Inc. Pittsburgh 
 -------------------------------------------------------
 -------------------------------------------------------
 OpenMP BLAS3 based DFT computing Module                
 Release: version 1.0, May 2013, Q-Chem Inc. Pittsburgh 
 -------------------------------------------------------
 A unrestricted SCF calculation will be
 performed using Roothaan-Hall, GDM
 SCF converges when RMS gradient is below 1.0e-08
 ---------------------------------------
  Cycle       Energy         DIIS error
 ---------------------------------------
    1    -350.8229642072      4.34e-04  Roothaan Step
 ---------------------------------------
  Cycle       Energy        RMS Gradient
 ---------------------------------------
    1    -349.9052358508      1.06e-02   Normal BFGS step
    2    -349.9081913773      8.01e-03   Normal BFGS step
    3    -349.9089334462      2.94e-03   Normal BFGS step
    4    -349.9092098414      2.20e-03   Normal BFGS step
    5    -349.9092624329      1.73e-03   Normal BFGS step
    6    -349.9092940239      1.63e-03   Normal BFGS step
    7    -349.9093141893      2.10e-03   Normal BFGS step
    8    -349.9093417211      2.21e-03   Normal BFGS step
    9    -349.9093841517      2.03e-03   Normal BFGS step
   10    -349.9094276035      1.81e-03   Normal BFGS step
   11    -349.9094808322      1.60e-03   Normal BFGS step
   12    -349.9095288630      1.76e-03   Normal BFGS step
   13    -349.9095489249      1.36e-03   Normal BFGS step
   14    -349.9095619459      9.62e-04   Normal BFGS step
   15    -349.9095682386      5.33e-04   Normal BFGS step
   16    -349.9095704016      3.27e-04   Normal BFGS step
   17    -349.9095722427      3.29e-04   Normal BFGS step
   18    -349.9095733510      2.99e-04   Normal BFGS step
   19    -349.9095742088      2.39e-04   Normal BFGS step
   20    -349.9095748004      2.24e-04   Normal BFGS step
   21    -349.9095751268      1.69e-04   Normal BFGS step
   22    -349.9095752682      9.40e-05   Normal BFGS step
   23    -349.9095753187      4.27e-05   Normal BFGS step
   24    -349.9095753335      3.74e-05   Normal BFGS step
   25    -349.9095753378      1.66e-05   Normal BFGS step
   26    -349.9095753392      1.07e-05   Normal BFGS step
   27    -349.9095753397      5.52e-06   Normal BFGS step
   28    -349.9095753399      2.32e-06   Normal BFGS step
   29    -349.9095753400      1.14e-06   Normal BFGS step
   30    -349.9095753400      8.96e-07   Normal BFGS step
   31    -349.9095753400      4.60e-07   Normal BFGS step
   32    -349.9095753400      1.69e-07   Normal BFGS step
   33    -349.9095753400      5.26e-08   Normal BFGS step
   34    -349.9095753400      2.44e-08   Normal BFGS step
   35    -349.9095753400      1.03e-08   Normal BFGS step
   36    -349.9095753400      8.74e-09  Convergence criterion met
 ---------------------------------------
 SCF time:   CPU 1202.95s  wall 54.00s 
<S^2> =          0.750314626

************** Final PCM Free Energy Summary **************
 G_electrostatic  =      -0.06109351 hartree =     -38.33675645 kcal/mol
 G_cavitation     =       0.00000000 hartree =       0.00000000 kcal/mol
 G_dispersion     =       0.00000000 hartree =       0.00000000 kcal/mol
 G_repulsion      =       0.00000000 hartree =       0.00000000 kcal/mol
 --------------------------------------------------
 Non-electrostatic Free Energy =       0.00000000 hartree =       0.00000000 kcal/mol
 Total                         =      -0.06109351 hartree =     -38.33675645 kcal/mol
 --------------------------------------------------
 SCF Energy (H0 + V/2)                       =    -349.90957534 
 Solute Internal Energy (H0)                 =    -349.84848183 
 Total Free Energy (H0 + V/2 + non-elec)     =    -349.90957534 hartree
                                             = -219571.57251944 kcal/mol
***********************************************************

 SCF   energy in the final basis set =     -349.9095753400
 Total energy in the final basis set =     -349.9095753400
 
 --------------------------------------------------------------
 
                    Orbital Energies (a.u.)
 --------------------------------------------------------------
 
 Alpha MOs
 -- Occupied --
-19.324 -19.323 -19.263 -10.490 -10.360 -10.360  -2.048  -1.294
 -1.175  -1.172  -0.892  -0.792  -0.718  -0.647  -0.631  -0.606
 -0.563  -0.548  -0.534  -0.488  -0.473  -0.431  -0.417  -0.405
 -0.094
 -- Virtual --
  0.022   0.025   0.025   0.044   0.061   0.068   0.069   0.073
  0.075   0.079   0.088   0.097   0.108   0.129   0.136   0.141
  0.161   0.165   0.174   0.183   0.192   0.195   0.198   0.201
  0.206   0.219   0.223   0.230   0.239   0.258   0.281   0.290
  0.303   0.317   0.333   0.338   0.343   0.355   0.360   0.364
  0.379   0.382   0.404   0.422   0.436   0.448   0.450   0.484
  0.488   0.534   0.543   0.571   0.616   0.622   0.643   0.647
  0.649   0.684   0.686   0.693   0.717   0.729   0.748   0.766
  0.776   0.787   0.793   0.812   0.850   0.894   0.922   0.986
  1.073   1.107   1.126   1.181   1.195   1.220   1.241   1.271
  1.292   1.310   1.355   1.384   1.425   1.454   1.485   1.565
  1.633   1.656   1.712   1.744   1.786   1.788   1.839   1.852
  1.856   1.949   1.971   2.047   2.162   2.482   2.588   2.594
  2.621   2.638   2.856   2.920   2.936   2.988   2.993   3.023
  3.058   3.082   3.106   3.226   3.233   3.245   3.299   3.376
  3.450   3.557   3.633   3.729   3.861   3.925   3.959   4.116
  4.121   4.195   5.083   5.118   5.142   5.281   5.345   5.460
  5.497   5.981   6.005  23.641  23.784  23.938  49.949  50.045
 50.140
 
 Beta MOs
 -- Occupied --
-19.323 -19.323 -19.263 -10.490 -10.360 -10.360  -2.048  -1.293
 -1.174  -1.171  -0.891  -0.791  -0.717  -0.646  -0.630  -0.605
 -0.562  -0.547  -0.534  -0.488  -0.473  -0.430  -0.417  -0.404
 -- Virtual --
  0.043   0.054   0.057   0.077   0.084   0.088   0.093   0.109
  0.130   0.132   0.152   0.163   0.164   0.171   0.182   0.194
  0.200   0.204   0.217   0.220   0.228   0.232   0.235   0.253
  0.259   0.266   0.269   0.280   0.287   0.290   0.304   0.317
  0.327   0.343   0.351   0.358   0.366   0.381   0.396   0.400
  0.405   0.409   0.423   0.445   0.462   0.475   0.479   0.496
  0.503   0.527   0.556   0.564   0.582   0.634   0.644   0.659
  0.661   0.676   0.694   0.703   0.716   0.745   0.750   0.767
  0.782   0.793   0.802   0.819   0.826   0.864   0.928   0.950
  0.996   1.081   1.113   1.131   1.185   1.202   1.229   1.246
  1.278   1.295   1.318   1.357   1.388   1.428   1.456   1.489
  1.567   1.636   1.659   1.714   1.747   1.789   1.790   1.841
  1.854   1.858   1.950   1.973   2.049   2.164   2.484   2.590
  2.597   2.622   2.641   2.857   2.922   2.937   2.989   2.995
  3.024   3.059   3.082   3.107   3.227   3.234   3.246   3.299
  3.377   3.451   3.558   3.633   3.730   3.865   3.927   3.962
  4.117   4.122   4.196   5.084   5.119   5.143   5.282   5.346
  5.461   5.498   5.982   6.005  23.642  23.785  23.938  49.949
 50.045  50.141
 --------------------------------------------------------------
 
          Ground-State Mulliken Net Atomic Charges

     Atom                 Charge (a.u.)    Spin (a.u.)
  --------------------------------------------------------
      1 O                     0.102668      -0.150485
      2 O                     0.010107      -0.098174
      3 O                    -0.328292      -0.052254
      4 C                    -0.615178       0.169146
      5 C                    -0.046764      -0.454253
      6 C                    -0.125372       0.521740
      7 H                     0.198699       0.079990
      8 H                     0.244100       0.062009
      9 H                     0.287828       0.011251
     10 H                     0.056315       0.242556
     11 Li                    0.215890       0.668475
  --------------------------------------------------------
  Sum of atomic charges =     0.000000
  Sum of spin   charges =     1.000000

 -----------------------------------------------------------------
                    Cartesian Multipole Moments
 -----------------------------------------------------------------
    Charge (ESU x 10^10)
                 0.0000
    Dipole Moment (Debye)
         X       1.4402      Y       3.2043      Z       6.2817
       Tot       7.1973
    Quadrupole Moments (Debye-Ang)
        XX     -30.3806     XY      11.8863     YY     -45.1632
        XZ     -14.5822     YZ       3.2681     ZZ     -63.4599
    Octopole Moments (Debye-Ang^2)
       XXX     185.8138    XXY     -24.4946    XYY     108.9972
       YYY     -39.9480    XXZ      52.0697    XYZ     -14.6488
       YYZ      32.4066    XZZ     108.3707    YZZ     -28.6977
       ZZZ     112.5837
    Hexadecapole Moments (Debye-Ang^3)
      XXXX   -1247.7199   XXXY      89.8885   XXYY    -343.9692
      XYYY     104.2734   YYYY    -530.5368   XXXZ    -162.4676
      XXYZ      43.2438   XYYZ     -57.4447   YYYZ      81.9592
      XXZZ    -383.8404   XYZZ      38.9106   YYZZ    -197.9944
      XZZZ    -135.7724   YZZZ     101.2347   ZZZZ    -591.6362
 -----------------------------------------------------------------
 Calculating analytic gradient of the SCF energy
 Gradient of SCF Energy
            1           2           3           4           5           6
    1  -0.0071683  -0.0043862  -0.0042353   0.0095877   0.0087237   0.0054634
    2   0.0079710  -0.0026133  -0.0120752  -0.0022821   0.0038092   0.0024974
    3  -0.0044182  -0.0031380  -0.0004521  -0.0106851  -0.0047067   0.0042011
            7           8           9          10          11
    1  -0.0019093  -0.0028012  -0.0044116  -0.0016712   0.0028085
    2   0.0008653   0.0000164  -0.0021715  -0.0012054   0.0051882
    3   0.0014846   0.0079928   0.0046883   0.0019749   0.0030584
 Max gradient component =       1.208E-02
 RMS gradient           =       5.190E-03
 Computing fast CPCM-SWIG gradient
 Updating gradient with PCM contributions...
 -- total gradient after adding PCM contribution --
---------------------------------------------------
  Atom         X              Y              Z     
---------------------------------------------------
   1      -0.004165       0.004366      -0.003981
   2      -0.005003      -0.002394      -0.003193
   3      -0.003537       0.000045      -0.001750
   4       0.003371       0.001865      -0.000899
   5       0.002621      -0.002092      -0.002391
   6       0.011511       0.005158       0.005676
   7       0.000725       0.000195       0.001689
   8      -0.000035      -0.000828       0.000640
   9      -0.000407       0.000280       0.000413
  10      -0.000059      -0.001186       0.001553
  11      -0.005021      -0.005408       0.002243
---------------------------------------------------
 Number of fixed atoms: 0
 Gradient time:  CPU 59.99 s  wall 3.67 s
 Geometry Optimization Parameters
   NAtoms,    NIC,     NZ,  NCons,   NDum,   NFix, NCnnct, MaxDiis
       11      97       0       0       0       0       0       0

 Cartesian Hessian Update
 Hessian Updated using BFGS Update


** GEOMETRY OPTIMIZATION IN DELOCALIZED INTERNAL COORDINATES **
   Searching for a Minimum

   Optimization Cycle:   2

                       Coordinates (Angstroms)
     ATOM                X               Y               Z
      1  O        -1.9650216737    1.1049031715    0.0817994668
      2  O        -1.9619346516   -1.1013464201   -0.0980377570
      3  O        -0.0195223447    0.0003162333    0.0271295643
      4  C        -3.3582273892    0.7411325238    0.1728528442
      5  C        -3.3563091732   -0.7448148356   -0.1773284067
      6  C        -1.2259174953   -0.0005085196    0.0067825055
      7  H        -3.9016422148    1.3652884129   -0.5347685164
      8  H        -3.6867991191    0.9329439542    1.1941483120
      9  H        -3.9012329650   -1.3537431991    0.5412358962
     10  H        -3.6888849143   -0.9543111851   -1.1935054206
     11  Li        0.5556442014    1.7754412363   -0.6673222737
   Point Group: c1    Number of degrees of freedom:    27


   Energy is   -349.909575340

 Hessian Updated using BFGS Update

 27 Hessian modes will be used to form the next step
  Hessian Eigenvalues:
     0.008924    0.014810    0.018890    0.036004    0.042591    0.043553
     0.056058    0.058981    0.070404    0.080005    0.088192    0.109086
     0.113396    0.114682    0.153865    0.183106    0.214810    0.283384
     0.328165    0.336072    0.346068    0.349706    0.364601    0.408777
     0.459314    0.544850    0.875607

 Minimum Search - Taking Simple RFO Step
 Searching for Lamda that Minimizes Along All modes
 Value Taken    Lamda =  -0.00164960
 Step Taken.  Stepsize is  0.272207

                             Maximum     Tolerance    Cnvgd?
         Gradient           0.004139      0.000300      NO
         Displacement       0.157161      0.001200      NO
         Energy change     -0.001901      0.000001      NO


 New Cartesian Coordinates Obtained by Inverse Iteration

 Displacement from previous Coordinates is:  0.163177
 ----------------------------------------------------------------
             Standard Nuclear Orientation (Angstroms)
    I     Atom           X                Y                Z
 ----------------------------------------------------------------
    1      O      -1.9660047400     1.0974347580     0.0955341881
    2      O      -1.9624302523    -1.1055987236    -0.0765209976
    3      O      -0.0206897436     0.0010202961     0.0236891778
    4      C      -3.3681458250     0.7336647489     0.1906253559
    5      C      -3.3622753911    -0.7464626833    -0.1637875315
    6      C      -1.2338614888    -0.0077696631    -0.0060976212
    7      H      -3.9008018165     1.3454138947    -0.5410294196
    8      H      -3.7032379542     0.9507609934     1.1955729179
    9      H      -3.9150842190    -1.3749962611     0.5241803698
   10      H      -3.6714861902    -0.9230811028    -1.1967281110
   11      Li      0.5941698813     1.7949151155    -0.6924521142
 ----------------------------------------------------------------
 Nuclear Repulsion Energy =   270.2373865627 hartrees
 There are       25 alpha and       24 beta electrons
 Discretize the solute cavity surface with Lebedev spheres
	Using 194 Lebedev grid points for each H atom
	Using 194 Lebedev grid points for other atoms
	Atomic van der Waals radii will be scaled by 1.10
 Remove points where switching function is < 1.0e-08
 Keep 1051 surface tesserae and discard 1083 interior tesserae
 Molecular Surface Area = 137.977 Angst**2
 Nucleus-field energy     =     0.0000000012 hartrees
 Requested basis set is 6-311++G(d)
 There are 58 shells and 170 basis functions
 A cutoff of  1.0D-12 yielded   1671 shell pairs
 There are     14625 function pairs (     15872 Cartesian)
 Smallest overlap matrix eigenvalue = 6.10E-05
 Guess MOs from SCF MO coefficient file
 Reading MOs from coefficient file
 Reading MOs from coefficient file

 -----------------------------------------------------------------------
  General SCF calculation program by
  Eric Jon Sundstrom, Paul Horn, Yuezhi Mao, Dmitri Zuev, Alec White,
  David Stuck, Shaama M.S., Shane Yost, Joonho Lee, David Small,
  Daniel Levine, Susi Lehtola, Hugh Burton, Evgeny Epifanovsky
 -----------------------------------------------------------------------
 Exchange:     0.2220 Hartree-Fock + 1.0000 wB97X-D + LR-HF
 Correlation:  1.0000 wB97X-D
 Using SG-3 standard quadrature grid
 Dispersion:   Grimme D
 using 32 threads for integral computing
 -------------------------------------------------------
 OpenMP Integral computing Module                
 Release: version 1.0, May 2013, Q-Chem Inc. Pittsburgh 
 -------------------------------------------------------
 using 32 threads for integral computing
 -------------------------------------------------------
 OpenMP Integral computing Module                
 Release: version 1.0, May 2013, Q-Chem Inc. Pittsburgh 
 -------------------------------------------------------
 -------------------------------------------------------
 OpenMP BLAS3 based DFT computing Module                
 Release: version 1.0, May 2013, Q-Chem Inc. Pittsburgh 
 -------------------------------------------------------
 A unrestricted SCF calculation will be
 performed using Roothaan-Hall, GDM
 SCF converges when RMS gradient is below 1.0e-08
 ---------------------------------------
  Cycle       Energy         DIIS error
 ---------------------------------------
    1    -350.6873355060      4.70e-04  Roothaan Step
 ---------------------------------------
  Cycle       Energy        RMS Gradient
 ---------------------------------------
    1    -349.9051277328      1.25e-02   Normal BFGS step
    2    -349.9087370068      9.07e-03   Normal BFGS step
    3    -349.9096572728      4.05e-03   Normal BFGS step
    4    -349.9100049730      3.28e-03   Normal BFGS step
    5    -349.9100776980      2.47e-03   Normal BFGS step
    6    -349.9101314210      2.83e-03   Normal BFGS step
    7    -349.9101749470      3.24e-03   Normal BFGS step
    8    -349.9102494074      3.51e-03   Normal BFGS step
    9    -349.9103496323      4.43e-03   Normal BFGS step
   10    -349.9104852439      2.87e-03   Normal BFGS step
   11    -349.9106295886      2.12e-03   Normal BFGS step
   12    -349.9106778316      1.54e-03   Normal BFGS step
   13    -349.9107063142      1.10e-03   Normal BFGS step
   14    -349.9107196028      8.50e-04   Normal BFGS step
   15    -349.9107272048      6.60e-04   Normal BFGS step
   16    -349.9107296193      4.10e-04   Normal BFGS step
   17    -349.9107312289      2.42e-04   Normal BFGS step
   18    -349.9107317878      1.83e-04   Normal BFGS step
   19    -349.9107320610      1.54e-04   Normal BFGS step
   20    -349.9107321749      8.35e-05   Normal BFGS step
   21    -349.9107322346      5.93e-05   Normal BFGS step
   22    -349.9107322788      5.59e-05   Normal BFGS step
   23    -349.9107323196      7.08e-05   Normal BFGS step
   24    -349.9107323488      5.56e-05   Normal BFGS step
   25    -349.9107323666      2.88e-05   Normal BFGS step
   26    -349.9107323762      2.21e-05   Normal BFGS step
   27    -349.9107323801      1.38e-05   Normal BFGS step
   28    -349.9107323814      6.75e-06   Normal BFGS step
   29    -349.9107323818      3.74e-06   Normal BFGS step
   30    -349.9107323820      3.24e-06   Normal BFGS step
   31    -349.9107323820      2.28e-06   Normal BFGS step
   32    -349.9107323820      7.37e-07   Normal BFGS step
   33    -349.9107323820      5.93e-07   Normal BFGS step
   34    -349.9107323820      3.29e-07   Normal BFGS step
   35    -349.9107323820      8.74e-08   Normal BFGS step
   36    -349.9107323820      4.20e-08   Normal BFGS step
   37    -349.9107323820      1.62e-08   Normal BFGS step
   38    -349.9107323820      7.21e-09  Convergence criterion met
 ---------------------------------------
 SCF time:   CPU 1262.68s  wall 57.00s 
<S^2> =          0.750380626

************** Final PCM Free Energy Summary **************
 G_electrostatic  =      -0.07112737 hartree =     -44.63309551 kcal/mol
 G_cavitation     =       0.00000000 hartree =       0.00000000 kcal/mol
 G_dispersion     =       0.00000000 hartree =       0.00000000 kcal/mol
 G_repulsion      =       0.00000000 hartree =       0.00000000 kcal/mol
 --------------------------------------------------
 Non-electrostatic Free Energy =       0.00000000 hartree =       0.00000000 kcal/mol
 Total                         =      -0.07112737 hartree =     -44.63309551 kcal/mol
 --------------------------------------------------
 SCF Energy (H0 + V/2)                       =    -349.91073238 
 Solute Internal Energy (H0)                 =    -349.83960502 
 Total Free Energy (H0 + V/2 + non-elec)     =    -349.91073238 hartree
                                             = -219572.29857428 kcal/mol
***********************************************************

 SCF   energy in the final basis set =     -349.9107323820
 Total energy in the final basis set =     -349.9107323820
 
 --------------------------------------------------------------
 
                    Orbital Energies (a.u.)
 --------------------------------------------------------------
 
 Alpha MOs
 -- Occupied --
-19.321 -19.320 -19.257 -10.485 -10.358 -10.357  -2.050  -1.291
 -1.172  -1.163  -0.891  -0.789  -0.715  -0.645  -0.627  -0.603
 -0.557  -0.545  -0.531  -0.485  -0.473  -0.425  -0.413  -0.404
 -0.098
 -- Virtual --
  0.020   0.024   0.024   0.042   0.058   0.067   0.068   0.072
  0.075   0.079   0.090   0.096   0.107   0.128   0.135   0.140
  0.161   0.165   0.173   0.181   0.192   0.194   0.198   0.200
  0.206   0.220   0.223   0.230   0.239   0.259   0.281   0.290
  0.304   0.318   0.332   0.339   0.345   0.355   0.360   0.365
  0.380   0.382   0.403   0.423   0.436   0.448   0.451   0.486
  0.493   0.535   0.542   0.570   0.618   0.622   0.642   0.647
  0.649   0.685   0.688   0.692   0.720   0.730   0.750   0.763
  0.772   0.786   0.790   0.812   0.852   0.891   0.924   0.985
  1.071   1.108   1.128   1.183   1.197   1.217   1.242   1.270
  1.294   1.306   1.360   1.388   1.426   1.451   1.492   1.566
  1.632   1.661   1.716   1.745   1.784   1.791   1.844   1.851
  1.864   1.954   1.972   2.042   2.163   2.486   2.591   2.597
  2.625   2.644   2.851   2.924   2.929   2.983   2.996   3.028
  3.068   3.083   3.105   3.231   3.243   3.251   3.304   3.380
  3.448   3.565   3.633   3.724   3.861   3.922   3.958   4.120
  4.123   4.195   5.086   5.118   5.146   5.283   5.349   5.460
  5.494   5.982   6.010  23.638  23.791  23.937  49.952  50.049
 50.141
 
 Beta MOs
 -- Occupied --
-19.321 -19.319 -19.257 -10.485 -10.357 -10.357  -2.049  -1.290
 -1.171  -1.162  -0.889  -0.788  -0.714  -0.643  -0.626  -0.602
 -0.556  -0.544  -0.530  -0.484  -0.472  -0.424  -0.411  -0.403
 -- Virtual --
  0.040   0.051   0.053   0.075   0.085   0.090   0.094   0.110
  0.122   0.133   0.144   0.159   0.165   0.169   0.179   0.183
  0.197   0.203   0.210   0.221   0.225   0.229   0.235   0.251
  0.259   0.264   0.267   0.277   0.282   0.289   0.304   0.311
  0.323   0.336   0.347   0.354   0.362   0.380   0.392   0.398
  0.405   0.409   0.421   0.441   0.463   0.472   0.475   0.493
  0.499   0.519   0.556   0.563   0.584   0.632   0.641   0.657
  0.660   0.671   0.696   0.701   0.711   0.742   0.750   0.766
  0.776   0.790   0.797   0.810   0.823   0.863   0.921   0.940
  0.992   1.078   1.113   1.132   1.187   1.204   1.224   1.247
  1.275   1.296   1.312   1.362   1.392   1.429   1.453   1.495
  1.569   1.635   1.663   1.718   1.747   1.787   1.793   1.846
  1.854   1.865   1.955   1.973   2.043   2.165   2.488   2.593
  2.600   2.626   2.647   2.853   2.925   2.930   2.984   2.998
  3.030   3.069   3.084   3.106   3.232   3.244   3.252   3.305
  3.381   3.450   3.566   3.634   3.725   3.865   3.924   3.960
  4.121   4.125   4.196   5.087   5.120   5.148   5.284   5.350
  5.460   5.495   5.983   6.010  23.638  23.792  23.938  49.952
 50.050  50.142
 --------------------------------------------------------------
 
          Ground-State Mulliken Net Atomic Charges

     Atom                 Charge (a.u.)    Spin (a.u.)
  --------------------------------------------------------
      1 O                     0.103818      -0.157718
      2 O                     0.034768      -0.123933
      3 O                    -0.349747      -0.045589
      4 C                    -0.571023       0.128618
      5 C                    -0.018368      -0.460735
      6 C                    -0.181993       0.573339
      7 H                     0.189903       0.088118
      8 H                     0.237984       0.066392
      9 H                     0.243859       0.053234
     10 H                    -0.087741       0.382439
     11 Li                    0.398541       0.495836
  --------------------------------------------------------
  Sum of atomic charges =     0.000000
  Sum of spin   charges =     1.000000

 -----------------------------------------------------------------
                    Cartesian Multipole Moments
 -----------------------------------------------------------------
    Charge (ESU x 10^10)
                 0.0000
    Dipole Moment (Debye)
         X       3.3770      Y       5.0747      Z       6.1242
       Tot       8.6407
    Quadrupole Moments (Debye-Ang)
        XX     -35.3355     XY      11.0352     YY     -40.6108
        XZ     -19.0968     YZ      -0.1517     ZZ     -63.0197
    Octopole Moments (Debye-Ang^2)
       XXX     215.7857    XXY     -18.1803    XYY     111.5075
       YYY     -13.6169    XXZ      64.4745    XYZ     -13.3471
       YYZ      25.2737    XZZ     122.3692    YZZ     -16.5378
       ZZZ     109.6059
    Hexadecapole Moments (Debye-Ang^3)
      XXXX   -1378.4031   XXXY      78.2795   XXYY    -343.8686
      XYYY      85.6839   YYYY    -431.9394   XXXZ    -233.1500
      XXYZ      31.7145   XYYZ     -65.4841   YYYZ      41.6667
      XXZZ    -423.1335   XYZZ      30.4799   YYZZ    -172.7907
      XZZZ    -178.8692   YZZZ      63.7383   ZZZZ    -572.5900
 -----------------------------------------------------------------
 Calculating analytic gradient of the SCF energy
 Gradient of SCF Energy
            1           2           3           4           5           6
    1   0.0006666   0.0037522  -0.0019205   0.0028054   0.0001320  -0.0071783
    2   0.0055417   0.0031023  -0.0130325  -0.0022105  -0.0006004  -0.0042380
    3  -0.0045469  -0.0016831   0.0013848  -0.0033414  -0.0016249   0.0025952
            7           8           9          10          11
    1  -0.0008676  -0.0012367  -0.0021081   0.0000891   0.0058659
    2   0.0000494   0.0004371  -0.0001409   0.0009135   0.0101783
    3   0.0014930   0.0015837   0.0002513   0.0032667   0.0006216
 Max gradient component =       1.303E-02
 RMS gradient           =       3.964E-03
 Computing fast CPCM-SWIG gradient
 Updating gradient with PCM contributions...
 -- total gradient after adding PCM contribution --
---------------------------------------------------
  Atom         X              Y              Z     
---------------------------------------------------
   1       0.002836       0.002684      -0.005602
   2       0.002241       0.002538      -0.003251
   3       0.000681       0.000111      -0.000948
   4      -0.001866      -0.000258       0.006501
   5      -0.001432      -0.002266       0.000478
   6      -0.001184      -0.000659       0.006258
   7       0.000448       0.000212       0.000669
   8       0.001113      -0.000558      -0.004639
   9       0.000774       0.001254      -0.002196
  10      -0.000294      -0.000105       0.001512
  11      -0.003315      -0.002952       0.001219
---------------------------------------------------
 Number of fixed atoms: 0
 Gradient time:  CPU 60.58 s  wall 3.57 s
 Geometry Optimization Parameters
   NAtoms,    NIC,     NZ,  NCons,   NDum,   NFix, NCnnct, MaxDiis
       11      97       0       0       0       0       0       0

 Cartesian Hessian Update
 Hessian Updated using BFGS Update


** GEOMETRY OPTIMIZATION IN DELOCALIZED INTERNAL COORDINATES **
   Searching for a Minimum

   Optimization Cycle:   3

                       Coordinates (Angstroms)
     ATOM                X               Y               Z
      1  O        -1.9660047400    1.0974347580    0.0955341881
      2  O        -1.9624302523   -1.1055987236   -0.0765209976
      3  O        -0.0206897436    0.0010202961    0.0236891778
      4  C        -3.3681458250    0.7336647489    0.1906253559
      5  C        -3.3622753911   -0.7464626833   -0.1637875315
      6  C        -1.2338614888   -0.0077696631   -0.0060976212
      7  H        -3.9008018165    1.3454138947   -0.5410294196
      8  H        -3.7032379542    0.9507609934    1.1955729179
      9  H        -3.9150842190   -1.3749962611    0.5241803698
     10  H        -3.6714861902   -0.9230811028   -1.1967281110
     11  Li        0.5941698813    1.7949151155   -0.6924521142
   Point Group: c1    Number of degrees of freedom:    27


   Energy is   -349.910732382

 Hessian Updated using BFGS Update

 27 Hessian modes will be used to form the next step
  Hessian Eigenvalues:
     0.007675    0.008931    0.018765    0.037231    0.039924    0.043962
     0.056171    0.059343    0.070414    0.079282    0.086671    0.110314
     0.113133    0.116307    0.156028    0.183600    0.214150    0.283406
     0.334706    0.340670    0.346914    0.350327    0.399645    0.415534
     0.462170    0.577338    0.883903

 Minimum Search - Taking Simple RFO Step
 Searching for Lamda that Minimizes Along All modes
 Value Taken    Lamda =  -0.00116797
 Calculated Step too Large.  Step scaled by  0.903921
 Step Taken.  Stepsize is  0.300000

                             Maximum     Tolerance    Cnvgd?
         Gradient           0.004029      0.000300      NO
         Displacement       0.200888      0.001200      NO
         Energy change     -0.001157      0.000001      NO


 New Cartesian Coordinates Obtained by Inverse Iteration

 Displacement from previous Coordinates is:  0.150554
 ----------------------------------------------------------------
             Standard Nuclear Orientation (Angstroms)
    I     Atom           X                Y                Z
 ----------------------------------------------------------------
    1      O      -1.9702174882     1.0896419189     0.1125881351
    2      O      -1.9690596956    -1.1121713147    -0.0542265584
    3      O      -0.0226396325     0.0014572827     0.0143465885
    4      C      -3.3768727919     0.7287845032     0.2017712455
    5      C      -3.3687186838    -0.7475550462    -0.1537402977
    6      C      -1.2406265601    -0.0150049973    -0.0274329638
    7      H      -3.8983822792     1.3327223741    -0.5485409744
    8      H      -3.7184838411     0.9632020595     1.2020733380
    9      H      -3.9288486589    -1.3889950776     0.5168398155
   10      H      -3.6516718836    -0.9054852079    -1.2016924849
   11      Li      0.6356737755     1.8187048779    -0.7089996288
 ----------------------------------------------------------------
 Nuclear Repulsion Energy =   269.6702602055 hartrees
 There are       25 alpha and       24 beta electrons
 Discretize the solute cavity surface with Lebedev spheres
	Using 194 Lebedev grid points for each H atom
	Using 194 Lebedev grid points for other atoms
	Atomic van der Waals radii will be scaled by 1.10
 Remove points where switching function is < 1.0e-08
 Keep 1054 surface tesserae and discard 1080 interior tesserae
 Molecular Surface Area = 138.539 Angst**2
 Nucleus-field energy     =     0.0000000012 hartrees
 Requested basis set is 6-311++G(d)
 There are 58 shells and 170 basis functions
 A cutoff of  1.0D-12 yielded   1671 shell pairs
 There are     14625 function pairs (     15872 Cartesian)
 Smallest overlap matrix eigenvalue = 6.01E-05
 Guess MOs from SCF MO coefficient file
 Reading MOs from coefficient file
 Reading MOs from coefficient file

 -----------------------------------------------------------------------
  General SCF calculation program by
  Eric Jon Sundstrom, Paul Horn, Yuezhi Mao, Dmitri Zuev, Alec White,
  David Stuck, Shaama M.S., Shane Yost, Joonho Lee, David Small,
  Daniel Levine, Susi Lehtola, Hugh Burton, Evgeny Epifanovsky
 -----------------------------------------------------------------------
 Exchange:     0.2220 Hartree-Fock + 1.0000 wB97X-D + LR-HF
 Correlation:  1.0000 wB97X-D
 Using SG-3 standard quadrature grid
 Dispersion:   Grimme D
 using 32 threads for integral computing
 -------------------------------------------------------
 OpenMP Integral computing Module                
 Release: version 1.0, May 2013, Q-Chem Inc. Pittsburgh 
 -------------------------------------------------------
 using 32 threads for integral computing
 -------------------------------------------------------
 OpenMP Integral computing Module                
 Release: version 1.0, May 2013, Q-Chem Inc. Pittsburgh 
 -------------------------------------------------------
 -------------------------------------------------------
 OpenMP BLAS3 based DFT computing Module                
 Release: version 1.0, May 2013, Q-Chem Inc. Pittsburgh 
 -------------------------------------------------------
 A unrestricted SCF calculation will be
 performed using Roothaan-Hall, GDM
 SCF converges when RMS gradient is below 1.0e-08
 ---------------------------------------
  Cycle       Energy         DIIS error
 ---------------------------------------
    1    -350.4627939665      5.08e-04  Roothaan Step
 ---------------------------------------
  Cycle       Energy        RMS Gradient
 ---------------------------------------
    1    -349.9037709343      2.30e-02   Normal BFGS step
    2    -349.9084704984      1.15e-02   Normal BFGS step
    3    -349.9100002050      5.46e-03   Normal BFGS step
    4    -349.9105367168      6.09e-03   Normal BFGS step
    5    -349.9107321517      5.56e-03   Normal BFGS step
    6    -349.9109305273      4.96e-03   Normal BFGS step
    7    -349.9110691202      4.24e-03   Normal BFGS step
    8    -349.9112463508      4.16e-03   Normal BFGS step
    9    -349.9114091245      3.30e-03   Normal BFGS step
   10    -349.9115057695      1.75e-03   Normal BFGS step
   11    -349.9115512548      1.75e-03   Normal BFGS step
   12    -349.9115752259      1.61e-03   Normal BFGS step
   13    -349.9115863271      1.08e-03   Normal BFGS step
   14    -349.9115918579      4.36e-04   Normal BFGS step
   15    -349.9115935444      3.06e-04   Normal BFGS step
   16    -349.9115941959      1.54e-04   Normal BFGS step
   17    -349.9115943879      7.55e-05   Normal BFGS step
   18    -349.9115944825      8.09e-05   Normal BFGS step
   19    -349.9115945592      7.57e-05   Normal BFGS step
   20    -349.9115946046      5.08e-05   Normal BFGS step
   21    -349.9115946296      4.36e-05   Normal BFGS step
   22    -349.9115946401      2.87e-05   Normal BFGS step
   23    -349.9115946438      1.38e-05   Normal BFGS step
   24    -349.9115946450      8.91e-06   Normal BFGS step
   25    -349.9115946455      4.94e-06   Normal BFGS step
   26    -349.9115946456      2.04e-06   Normal BFGS step
   27    -349.9115946457      1.23e-06   Normal BFGS step
   28    -349.9115946457      7.34e-07   Normal BFGS step
   29    -349.9115946457      3.53e-07   Normal BFGS step
   30    -349.9115946457      1.75e-07   Normal BFGS step
   31    -349.9115946457      1.24e-07   Normal BFGS step
   32    -349.9115946457      4.97e-08   Normal BFGS step
   33    -349.9115946457      2.29e-08   Normal BFGS step
   34    -349.9115946457      1.45e-08   Normal BFGS step
   35    -349.9115946457      7.29e-09  Convergence criterion met
 ---------------------------------------
 SCF time:   CPU 1179.53s  wall 52.00s 
<S^2> =          0.750488905

************** Final PCM Free Energy Summary **************
 G_electrostatic  =      -0.07743843 hartree =     -48.59334763 kcal/mol
 G_cavitation     =       0.00000000 hartree =       0.00000000 kcal/mol
 G_dispersion     =       0.00000000 hartree =       0.00000000 kcal/mol
 G_repulsion      =       0.00000000 hartree =       0.00000000 kcal/mol
 --------------------------------------------------
 Non-electrostatic Free Energy =       0.00000000 hartree =       0.00000000 kcal/mol
 Total                         =      -0.07743843 hartree =     -48.59334763 kcal/mol
 --------------------------------------------------
 SCF Energy (H0 + V/2)                       =    -349.91159465 
 Solute Internal Energy (H0)                 =    -349.83415622 
 Total Free Energy (H0 + V/2 + non-elec)     =    -349.91159465 hartree
                                             = -219572.83965288 kcal/mol
***********************************************************

 SCF   energy in the final basis set =     -349.9115946457
 Total energy in the final basis set =     -349.9115946457
 
 --------------------------------------------------------------
 
                    Orbital Energies (a.u.)
 --------------------------------------------------------------
 
 Alpha MOs
 -- Occupied --
-19.316 -19.313 -19.249 -10.477 -10.355 -10.355  -2.050  -1.285
 -1.167  -1.153  -0.887  -0.784  -0.710  -0.641  -0.622  -0.598
 -0.550  -0.541  -0.528  -0.480  -0.471  -0.418  -0.406  -0.400
 -0.103
 -- Virtual --
  0.019   0.023   0.023   0.039   0.057   0.066   0.068   0.070
  0.075   0.078   0.090   0.095   0.106   0.127   0.135   0.139
  0.162   0.165   0.172   0.181   0.192   0.194   0.198   0.199
  0.205   0.219   0.223   0.231   0.239   0.262   0.280   0.291
  0.305   0.318   0.332   0.339   0.347   0.354   0.360   0.366
  0.380   0.382   0.401   0.424   0.437   0.448   0.452   0.487
  0.496   0.536   0.543   0.572   0.621   0.623   0.642   0.646
  0.650   0.686   0.690   0.692   0.721   0.730   0.752   0.760
  0.770   0.784   0.790   0.814   0.856   0.887   0.929   0.986
  1.068   1.110   1.132   1.186   1.197   1.215   1.246   1.267
  1.297   1.305   1.365   1.394   1.427   1.445   1.510   1.567
  1.632   1.664   1.722   1.747   1.784   1.796   1.849   1.854
  1.869   1.957   1.971   2.041   2.166   2.488   2.594   2.599
  2.632   2.650   2.851   2.927   2.930   2.980   3.001   3.030
  3.071   3.086   3.107   3.231   3.249   3.253   3.309   3.381
  3.447   3.570   3.634   3.724   3.863   3.920   3.956   4.125
  4.130   4.195   5.091   5.122   5.152   5.286   5.355   5.460
  5.494   5.982   6.012  23.637  23.798  23.937  49.957  50.055
 50.144
 
 Beta MOs
 -- Occupied --
-19.316 -19.312 -19.248 -10.476 -10.355 -10.355  -2.049  -1.283
 -1.165  -1.151  -0.886  -0.783  -0.709  -0.639  -0.621  -0.596
 -0.548  -0.539  -0.526  -0.479  -0.470  -0.416  -0.404  -0.399
 -- Virtual --
  0.038   0.049   0.050   0.071   0.083   0.089   0.098   0.108
  0.117   0.130   0.139   0.152   0.161   0.167   0.174   0.176
  0.193   0.199   0.206   0.218   0.223   0.226   0.232   0.249
  0.252   0.259   0.265   0.272   0.278   0.286   0.300   0.308
  0.316   0.331   0.344   0.353   0.361   0.378   0.390   0.394
  0.402   0.407   0.418   0.437   0.461   0.467   0.473   0.487
  0.501   0.514   0.555   0.560   0.587   0.631   0.641   0.656
  0.661   0.667   0.698   0.701   0.708   0.738   0.747   0.766
  0.771   0.785   0.793   0.806   0.823   0.865   0.913   0.941
  0.992   1.075   1.114   1.136   1.190   1.204   1.221   1.251
  1.271   1.299   1.310   1.368   1.398   1.430   1.447   1.513
  1.569   1.635   1.667   1.724   1.750   1.786   1.798   1.851
  1.857   1.871   1.958   1.973   2.043   2.168   2.491   2.596
  2.602   2.635   2.652   2.853   2.929   2.932   2.981   3.003
  3.032   3.072   3.088   3.108   3.232   3.250   3.254   3.311
  3.382   3.450   3.571   3.635   3.726   3.866   3.921   3.958
  4.126   4.131   4.196   5.093   5.124   5.155   5.288   5.356
  5.461   5.495   5.984   6.013  23.637  23.799  23.938  49.958
 50.055  50.145
 --------------------------------------------------------------
 
          Ground-State Mulliken Net Atomic Charges

     Atom                 Charge (a.u.)    Spin (a.u.)
  --------------------------------------------------------
      1 O                     0.096978      -0.157468
      2 O                     0.052930      -0.146497
      3 O                    -0.364283      -0.044769
      4 C                    -0.448252       0.002522
      5 C                    -0.126806      -0.336756
      6 C                    -0.304741       0.710879
      7 H                     0.223681       0.053773
      8 H                     0.246828       0.053129
      9 H                     0.216602       0.076119
     10 H                    -0.115899       0.407501
     11 Li                    0.522961       0.381568
  --------------------------------------------------------
  Sum of atomic charges =     0.000000
  Sum of spin   charges =     1.000000

 -----------------------------------------------------------------
                    Cartesian Multipole Moments
 -----------------------------------------------------------------
    Charge (ESU x 10^10)
                 0.0000
    Dipole Moment (Debye)
         X       3.8462      Y       6.3993      Z       5.4096
       Tot       9.2200
    Quadrupole Moments (Debye-Ang)
        XX     -34.8337     XY       9.5044     YY     -36.9443
        XZ     -19.3321     YZ      -2.6990     ZZ     -60.7139
    Octopole Moments (Debye-Ang^2)
       XXX     215.1982    XXY      -9.9341    XYY     108.2387
       YYY       4.0591    XXZ      61.6431    XYZ     -10.3164
       YYZ      17.7766    XZZ     122.4478    YZZ      -7.8019
       ZZZ      98.1109
    Hexadecapole Moments (Debye-Ang^3)
      XXXX   -1357.7767   XXXY      49.6493   XXYY    -322.8518
      XYYY      61.2613   YYYY    -354.3874   XXXZ    -226.0589
      XXYZ      16.7159   XYYZ     -58.7513   YYYZ      12.1892
      XXZZ    -411.2785   XYZZ      18.4542   YYZZ    -145.4641
      XZZZ    -174.0852   YZZZ      34.9233   ZZZZ    -509.9971
 -----------------------------------------------------------------
 Calculating analytic gradient of the SCF energy
 Gradient of SCF Energy
            1           2           3           4           5           6
    1   0.0058056   0.0085949  -0.0050049  -0.0004336  -0.0051918  -0.0123333
    2   0.0020285   0.0076028  -0.0128354  -0.0033752  -0.0007068  -0.0108829
    3  -0.0043991  -0.0009356   0.0018585  -0.0002301  -0.0012272   0.0024205
            7           8           9          10          11
    1  -0.0003119  -0.0006660  -0.0008798   0.0020532   0.0083675
    2   0.0004246   0.0013130   0.0001953   0.0019019   0.0143343
    3   0.0002772   0.0018091  -0.0007224   0.0024571  -0.0013080
 Max gradient component =       1.433E-02
 RMS gradient           =       5.500E-03
 Computing fast CPCM-SWIG gradient
 Updating gradient with PCM contributions...
 -- total gradient after adding PCM contribution --
---------------------------------------------------
  Atom         X              Y              Z     
---------------------------------------------------
   1       0.007224      -0.000085      -0.006794
   2       0.006352       0.006098      -0.004531
   3       0.000359       0.000667      -0.001191
   4      -0.004562      -0.003371       0.007179
   5      -0.004029       0.000721       0.002188
   6      -0.006969      -0.005233       0.009264
   7       0.000477       0.000546      -0.001082
   8       0.001358       0.000315      -0.003451
   9       0.001052       0.000605      -0.001679
  10       0.000556       0.000384      -0.000099
  11      -0.001817      -0.000648       0.000196
---------------------------------------------------
 Number of fixed atoms: 0
 Gradient time:  CPU 59.24 s  wall 3.70 s
 Geometry Optimization Parameters
   NAtoms,    NIC,     NZ,  NCons,   NDum,   NFix, NCnnct, MaxDiis
       11      97       0       0       0       0       0       0

 Cartesian Hessian Update
 Hessian Updated using BFGS Update


** GEOMETRY OPTIMIZATION IN DELOCALIZED INTERNAL COORDINATES **
   Searching for a Minimum

   Optimization Cycle:   4

                       Coordinates (Angstroms)
     ATOM                X               Y               Z
      1  O        -1.9702174882    1.0896419189    0.1125881351
      2  O        -1.9690596956   -1.1121713147   -0.0542265584
      3  O        -0.0226396325    0.0014572827    0.0143465885
      4  C        -3.3768727919    0.7287845032    0.2017712455
      5  C        -3.3687186838   -0.7475550462   -0.1537402977
      6  C        -1.2406265601   -0.0150049973   -0.0274329638
      7  H        -3.8983822792    1.3327223741   -0.5485409744
      8  H        -3.7184838411    0.9632020595    1.2020733380
      9  H        -3.9288486589   -1.3889950776    0.5168398155
     10  H        -3.6516718836   -0.9054852079   -1.2016924849
     11  Li        0.6356737755    1.8187048779   -0.7089996288
   Point Group: c1    Number of degrees of freedom:    27


   Energy is   -349.911594646

 Hessian Updated using BFGS Update

 27 Hessian modes will be used to form the next step
  Hessian Eigenvalues:
     0.002179    0.008967    0.018783    0.038472    0.040606    0.048650
     0.056525    0.063520    0.070521    0.078367    0.085727    0.110344
     0.112989    0.116702    0.158534    0.191090    0.215020    0.284038
     0.334438    0.342324    0.348883    0.351089    0.384122    0.418920
     0.486366    0.650805    0.883563

 Minimum Search - Taking Simple RFO Step
 Searching for Lamda that Minimizes Along All modes
 Value Taken    Lamda =  -0.00213946
 Calculated Step too Large.  Step scaled by  0.462966
 Step Taken.  Stepsize is  0.300000

                             Maximum     Tolerance    Cnvgd?
         Gradient           0.004958      0.000300      NO
         Displacement       0.220146      0.001200      NO
         Energy change     -0.000862      0.000001      NO


 New Cartesian Coordinates Obtained by Inverse Iteration

 Displacement from previous Coordinates is:  0.132156
 ----------------------------------------------------------------
             Standard Nuclear Orientation (Angstroms)
    I     Atom           X                Y                Z
 ----------------------------------------------------------------
    1      O      -1.9738510050     1.0824607925     0.1298146800
    2      O      -1.9777335413    -1.1182249753    -0.0334758750
    3      O      -0.0204775045     0.0022947488     0.0061134400
    4      C      -3.3827412051     0.7257232726     0.2076552744
    5      C      -3.3740290211    -0.7488153038    -0.1468947241
    6      C      -1.2423470081    -0.0219999614    -0.0537457350
    7      H      -3.8980469787     1.3242514140    -0.5533148071
    8      H      -3.7331489919     0.9682835305     1.2051316252
    9      H      -3.9418181950    -1.3947723286     0.5142222675
   10      H      -3.6409486394    -0.8973232745    -1.2038278380
   11      Li      0.6752943509     1.8434234579    -0.7186920933
 ----------------------------------------------------------------
 Nuclear Repulsion Energy =   268.9676134876 hartrees
 There are       25 alpha and       24 beta electrons
 Discretize the solute cavity surface with Lebedev spheres
	Using 194 Lebedev grid points for each H atom
	Using 194 Lebedev grid points for other atoms
	Atomic van der Waals radii will be scaled by 1.10
 Remove points where switching function is < 1.0e-08
 Keep 1059 surface tesserae and discard 1075 interior tesserae
 Molecular Surface Area = 139.031 Angst**2
 Nucleus-field energy     =     0.0000000012 hartrees
 Requested basis set is 6-311++G(d)
 There are 58 shells and 170 basis functions
 A cutoff of  1.0D-12 yielded   1671 shell pairs
 There are     14625 function pairs (     15872 Cartesian)
 Smallest overlap matrix eigenvalue = 5.94E-05
 Guess MOs from SCF MO coefficient file
 Reading MOs from coefficient file
 Reading MOs from coefficient file

 -----------------------------------------------------------------------
  General SCF calculation program by
  Eric Jon Sundstrom, Paul Horn, Yuezhi Mao, Dmitri Zuev, Alec White,
  David Stuck, Shaama M.S., Shane Yost, Joonho Lee, David Small,
  Daniel Levine, Susi Lehtola, Hugh Burton, Evgeny Epifanovsky
 -----------------------------------------------------------------------
 Exchange:     0.2220 Hartree-Fock + 1.0000 wB97X-D + LR-HF
 Correlation:  1.0000 wB97X-D
 Using SG-3 standard quadrature grid
 Dispersion:   Grimme D
 using 32 threads for integral computing
 -------------------------------------------------------
 OpenMP Integral computing Module                
 Release: version 1.0, May 2013, Q-Chem Inc. Pittsburgh 
 -------------------------------------------------------
 using 32 threads for integral computing
 -------------------------------------------------------
 OpenMP Integral computing Module                
 Release: version 1.0, May 2013, Q-Chem Inc. Pittsburgh 
 -------------------------------------------------------
 -------------------------------------------------------
 OpenMP BLAS3 based DFT computing Module                
 Release: version 1.0, May 2013, Q-Chem Inc. Pittsburgh 
 -------------------------------------------------------
 A unrestricted SCF calculation will be
 performed using Roothaan-Hall, GDM
 SCF converges when RMS gradient is below 1.0e-08
 ---------------------------------------
  Cycle       Energy         DIIS error
 ---------------------------------------
    1    -350.1958578667      5.35e-04  Roothaan Step
 ---------------------------------------
  Cycle       Energy        RMS Gradient
 ---------------------------------------
    1    -349.9031297603      2.54e-02   Normal BFGS step
    2    -349.9086042378      1.20e-02   Normal BFGS step
    3    -349.9107400514      8.45e-03   Normal BFGS step
    4    -349.9114339228      9.36e-03   Normal BFGS step
    5    -349.9118275133      7.31e-03   Normal BFGS step
    6    -349.9122700467      4.10e-03   Normal BFGS step
    7    -349.9124860640      5.20e-03   Normal BFGS step
    8    -349.9126932609      2.98e-03   Normal BFGS step
    9    -349.9127635878      1.72e-03   Normal BFGS step
   10    -349.9127961776      1.07e-03   Normal BFGS step
   11    -349.9128070346      9.05e-04   Normal BFGS step
   12    -349.9128108727      6.83e-04   Normal BFGS step
   13    -349.9128126762      3.05e-04   Normal BFGS step
   14    -349.9128132633      1.65e-04   Normal BFGS step
   15    -349.9128134981      1.25e-04   Normal BFGS step
   16    -349.9128136341      7.36e-05   Normal BFGS step
   17    -349.9128137030      6.55e-05   Normal BFGS step
   18    -349.9128137348      3.21e-05   Normal BFGS step
   19    -349.9128137448      1.83e-05   Normal BFGS step
   20    -349.9128137479      1.34e-05   Normal BFGS step
   21    -349.9128137493      9.42e-06   Normal BFGS step
   22    -349.9128137501      5.56e-06   Normal BFGS step
   23    -349.9128137503      3.83e-06   Normal BFGS step
   24    -349.9128137505      2.95e-06   Normal BFGS step
   25    -349.9128137505      1.56e-06   Normal BFGS step
   26    -349.9128137505      6.81e-07   Normal BFGS step
   27    -349.9128137505      4.51e-07   Normal BFGS step
   28    -349.9128137505      1.77e-07   Normal BFGS step
   29    -349.9128137505      5.83e-08   Normal BFGS step
   30    -349.9128137505      3.55e-08   Normal BFGS step
   31    -349.9128137505      1.62e-08   Normal BFGS step
   32    -349.9128137505      7.58e-09  Convergence criterion met
 ---------------------------------------
 SCF time:   CPU 1078.94s  wall 49.00s 
<S^2> =          0.750807172

************** Final PCM Free Energy Summary **************
 G_electrostatic  =      -0.08110671 hartree =     -50.89523155 kcal/mol
 G_cavitation     =       0.00000000 hartree =       0.00000000 kcal/mol
 G_dispersion     =       0.00000000 hartree =       0.00000000 kcal/mol
 G_repulsion      =       0.00000000 hartree =       0.00000000 kcal/mol
 --------------------------------------------------
 Non-electrostatic Free Energy =       0.00000000 hartree =       0.00000000 kcal/mol
 Total                         =      -0.08110671 hartree =     -50.89523155 kcal/mol
 --------------------------------------------------
 SCF Energy (H0 + V/2)                       =    -349.91281375 
 Solute Internal Energy (H0)                 =    -349.83170704 
 Total Free Energy (H0 + V/2 + non-elec)     =    -349.91281375 hartree
                                             = -219573.60465271 kcal/mol
***********************************************************

 SCF   energy in the final basis set =     -349.9128137505
 Total energy in the final basis set =     -349.9128137505
 
 --------------------------------------------------------------
 
                    Orbital Energies (a.u.)
 --------------------------------------------------------------
 
 Alpha MOs
 -- Occupied --
-19.306 -19.301 -19.235 -10.459 -10.352 -10.351  -2.048  -1.272
 -1.155  -1.138  -0.881  -0.775  -0.702  -0.634  -0.613  -0.589
 -0.540  -0.533  -0.522  -0.470  -0.465  -0.408  -0.396  -0.393
 -0.109
 -- Virtual --
  0.018   0.022   0.022   0.034   0.058   0.066   0.067   0.068
  0.075   0.077   0.089   0.095   0.107   0.127   0.134   0.139
  0.165   0.166   0.173   0.183   0.192   0.193   0.198   0.199
  0.206   0.219   0.223   0.231   0.240   0.266   0.279   0.294
  0.307   0.321   0.335   0.340   0.349   0.354   0.361   0.369
  0.381   0.383   0.400   0.426   0.440   0.448   0.454   0.490
  0.498   0.536   0.545   0.579   0.623   0.625   0.642   0.648
  0.653   0.689   0.690   0.696   0.721   0.730   0.753   0.760
  0.770   0.784   0.791   0.818   0.861   0.885   0.936   0.992
  1.068   1.112   1.140   1.190   1.196   1.218   1.252   1.266
  1.304   1.309   1.371   1.401   1.423   1.455   1.536   1.569
  1.637   1.670   1.733   1.751   1.788   1.804   1.852   1.860
[...]
 Release: version 1.0, May 2013, Q-Chem Inc. Pittsburgh 
 -------------------------------------------------------
 A unrestricted SCF calculation will be
 performed using Roothaan-Hall, GDM
 SCF converges when RMS gradient is below 1.0e-08
 ---------------------------------------
  Cycle       Energy         DIIS error
 ---------------------------------------
    1    -348.8700127945      4.31e-04  Roothaan Step
 ---------------------------------------
  Cycle       Energy        RMS Gradient
 ---------------------------------------
    1    -349.9423014254      1.10e-02   Normal BFGS step
    2    -349.9462188564      7.56e-03   Normal BFGS step
    3    -349.9476474004      2.64e-03   Normal BFGS step
    4    -349.9478419382      1.26e-03   Normal BFGS step
    5    -349.9478871253      5.21e-04   Normal BFGS step
    6    -349.9478919087      2.33e-04   Normal BFGS step
    7    -349.9478927637      1.58e-04   Normal BFGS step
    8    -349.9478930411      5.40e-05   Normal BFGS step
    9    -349.9478930979      2.68e-05   Normal BFGS step
   10    -349.9478931070      1.06e-05   Normal BFGS step
   11    -349.9478931103      5.34e-06   Normal BFGS step
   12    -349.9478931106      1.98e-06   Normal BFGS step
   13    -349.9478931108      9.21e-07   Normal BFGS step
   14    -349.9478931108      4.04e-07   Normal BFGS step
   15    -349.9478931108      6.71e-08   Normal BFGS step
   16    -349.9478931108      2.77e-08   Normal BFGS step
   17    -349.9478931108      7.21e-09  Convergence criterion met
 ---------------------------------------
 SCF time:   CPU 606.43s  wall 27.00s 
<S^2> =          0.753401688

************** Final PCM Free Energy Summary **************
 G_electrostatic  =      -0.08007322 hartree =     -50.24670494 kcal/mol
 G_cavitation     =       0.00000000 hartree =       0.00000000 kcal/mol
 G_dispersion     =       0.00000000 hartree =       0.00000000 kcal/mol
 G_repulsion      =       0.00000000 hartree =       0.00000000 kcal/mol
 --------------------------------------------------
 Non-electrostatic Free Energy =       0.00000000 hartree =       0.00000000 kcal/mol
 Total                         =      -0.08007322 hartree =     -50.24670494 kcal/mol
 --------------------------------------------------
 SCF Energy (H0 + V/2)                       =    -349.94789311 
 Solute Internal Energy (H0)                 =    -349.86781989 
 Total Free Energy (H0 + V/2 + non-elec)     =    -349.94789311 hartree
                                             = -219595.61728352 kcal/mol
***********************************************************

 SCF   energy in the final basis set =     -349.9478931108
 Total energy in the final basis set =     -349.9478931108
 
 --------------------------------------------------------------
 
                    Orbital Energies (a.u.)
 --------------------------------------------------------------
 
 Alpha MOs
 -- Occupied --
-19.254 -19.249 -19.188 -10.383 -10.326 -10.325  -2.028  -1.196
 -1.094  -1.073  -0.837  -0.722  -0.668  -0.594  -0.576  -0.547
 -0.509  -0.496  -0.478  -0.427  -0.424  -0.367  -0.359  -0.350
 -0.205
 -- Virtual --
  0.013   0.018   0.019   0.022   0.060   0.066   0.070   0.074
  0.075   0.077   0.084   0.098   0.119   0.134   0.142   0.147
  0.169   0.178   0.182   0.195   0.197   0.202   0.205   0.207
  0.218   0.225   0.235   0.240   0.256   0.276   0.284   0.300
  0.310   0.325   0.344   0.352   0.357   0.372   0.374   0.383
  0.390   0.396   0.408   0.429   0.436   0.446   0.457   0.475
  0.493   0.526   0.563   0.577   0.626   0.637   0.657   0.664
  0.666   0.689   0.705   0.719   0.733   0.743   0.764   0.767
  0.780   0.787   0.818   0.845   0.880   0.897   0.946   1.036
  1.060   1.097   1.164   1.181   1.197   1.231   1.270   1.280
  1.299   1.337   1.386   1.390   1.483   1.533   1.600   1.640
  1.679   1.695   1.768   1.788   1.812   1.829   1.862   1.872
  1.909   1.955   1.959   2.053   2.190   2.532   2.597   2.605
  2.657   2.750   2.865   2.911   2.996   3.006   3.018   3.037
  3.082   3.102   3.126   3.176   3.209   3.259   3.298   3.397
  3.414   3.535   3.580   3.700   3.863   3.937   3.992   4.140
  4.192   4.236   5.158   5.182   5.232   5.300   5.372   5.491
  5.505   5.806   5.974  23.675  23.815  23.834  50.038  50.070
 50.137
 
 Beta MOs
 -- Occupied --
-19.252 -19.246 -19.184 -10.373 -10.326 -10.325  -2.028  -1.187
 -1.087  -1.062  -0.833  -0.719  -0.654  -0.589  -0.572  -0.541
 -0.496  -0.490  -0.450  -0.423  -0.421  -0.356  -0.348  -0.338
 -- Virtual --
  0.017   0.022   0.023   0.024   0.054   0.066   0.070   0.074
  0.078   0.084   0.087   0.102   0.105   0.125   0.139   0.146
  0.156   0.172   0.181   0.185   0.198   0.199   0.204   0.209
  0.213   0.222   0.232   0.239   0.242   0.259   0.282   0.288
  0.301   0.312   0.330   0.348   0.357   0.362   0.373   0.381
  0.386   0.392   0.399   0.413   0.435   0.443   0.447   0.461
  0.483   0.494   0.533   0.564   0.583   0.628   0.638   0.660
  0.667   0.668   0.693   0.707   0.723   0.739   0.751   0.767
  0.769   0.780   0.789   0.819   0.846   0.884   0.901   0.949
  1.043   1.064   1.100   1.169   1.186   1.199   1.235   1.275
  1.284   1.301   1.343   1.391   1.392   1.486   1.547   1.604
  1.647   1.695   1.702   1.772   1.803   1.819   1.835   1.869
  1.876   1.916   1.964   1.966   2.069   2.191   2.532   2.598
  2.605   2.659   2.786   2.872   2.914   3.005   3.014   3.021
  3.047   3.089   3.109   3.140   3.180   3.214   3.273   3.303
  3.399   3.425   3.548   3.587   3.712   3.864   3.940   3.994
  4.147   4.194   4.243   5.166   5.189   5.248   5.305   5.376
  5.495   5.509   5.812   5.982  23.675  23.816  23.850  50.040
 50.073  50.141
 --------------------------------------------------------------
 
          Ground-State Mulliken Net Atomic Charges

     Atom                 Charge (a.u.)    Spin (a.u.)
  --------------------------------------------------------
      1 O                    -0.155162       0.022520
      2 O                    -0.136038       0.004333
      3 O                    -0.570768       0.143153
      4 C                    -0.427274      -0.086409
      5 C                    -0.464667       0.048012
      6 C                    -0.077901       0.857376
      7 H                     0.247277      -0.001316
      8 H                     0.248865       0.005709
      9 H                     0.249720      -0.000528
     10 H                     0.253780       0.002167
     11 Li                    0.832168       0.004984
  --------------------------------------------------------
  Sum of atomic charges =    -0.000000
  Sum of spin   charges =     1.000000

 -----------------------------------------------------------------
                    Cartesian Multipole Moments
 -----------------------------------------------------------------
    Charge (ESU x 10^10)
                 0.0000
    Dipole Moment (Debye)
         X       4.1953      Y       6.8424      Z       0.4235
       Tot       8.0373
    Quadrupole Moments (Debye-Ang)
        XX     -22.5042     XY       9.4786     YY     -29.8853
        XZ      -2.8894     YZ      -1.2718     ZZ     -38.8227
    Octopole Moments (Debye-Ang^2)
       XXX     179.2725    XXY       2.3331    XYY      96.6101
       YYY      13.3276    XXZ       7.8214    XYZ      -2.7740
       YYZ       2.2829    XZZ      75.8490    YZZ      -2.0822
       ZZZ      18.3140
    Hexadecapole Moments (Debye-Ang^3)
      XXXX   -1102.3348   XXXY      21.7320   XXYY    -241.8739
      XYYY      31.6916   YYYY    -171.9941   XXXZ     -20.5914
      XXYZ      -3.4012   XYYZ      -9.0482   YYYZ      -7.7896
      XXZZ    -226.3898   XYZZ       2.4793   YYZZ     -44.2220
      XZZZ     -16.9152   YZZZ      -0.5291   ZZZZ     -79.6514
 -----------------------------------------------------------------
 Calculating analytic gradient of the SCF energy
 Gradient of SCF Energy
            1           2           3           4           5           6
    1  -0.0006095   0.0049822  -0.0208659  -0.0014116  -0.0014586   0.0077950
    2  -0.0011300   0.0016198  -0.0202428   0.0051414  -0.0079858   0.0010214
    3   0.0014763   0.0020674  -0.0012719   0.0003794  -0.0027018  -0.0008754
            7           8           9          10          11
    1  -0.0004436  -0.0012233  -0.0004448  -0.0013618   0.0150421
    2  -0.0013704  -0.0003995   0.0031852   0.0020051   0.0181557
    3   0.0018360  -0.0022879  -0.0028942   0.0049580  -0.0006858
 Max gradient component =       2.087E-02
 RMS gradient           =       7.102E-03
 Computing fast CPCM-SWIG gradient
 Updating gradient with PCM contributions...
 -- total gradient after adding PCM contribution --
---------------------------------------------------
  Atom         X              Y              Z     
---------------------------------------------------
   1       0.000217       0.000140      -0.000008
   2      -0.000148      -0.000054      -0.000045
   3      -0.000043      -0.000072       0.000007
   4      -0.000024      -0.000103      -0.000034
   5      -0.000054      -0.000156      -0.000091
   6      -0.000019      -0.000014       0.000093
   7      -0.000090      -0.000074       0.000032
   8      -0.000011       0.000079       0.000124
   9       0.000076       0.000168      -0.000066
  10       0.000058      -0.000017       0.000028
  11       0.000040       0.000103      -0.000040
---------------------------------------------------
 Number of fixed atoms: 0
 Gradient time:  CPU 59.82 s  wall 3.70 s
 Geometry Optimization Parameters
   NAtoms,    NIC,     NZ,  NCons,   NDum,   NFix, NCnnct, MaxDiis
       11      97       0       0       0       0       0       0

 Cartesian Hessian Update
 Hessian Updated using BFGS Update


** GEOMETRY OPTIMIZATION IN CARTESIAN COORDINATES **
   Searching for a Minimum

   Optimization Cycle:  65

                       Coordinates (Angstroms)
     ATOM                X               Y               Z
      1  O        -2.0898312583    1.1838562019   -0.1175247110
      2  O        -1.9855737121   -1.0805440748    0.0010348284
      3  O        -0.0461489480    0.1192983629   -0.2328130149
      4  C        -3.3973546704    0.7337473186    0.2055240930
      5  C        -3.3581897717   -0.7646025167   -0.1101863742
      6  C        -1.2887239858    0.0503945584   -0.5005565856
      7  H        -4.1429876648    1.2685640703   -0.3881694231
      8  H        -3.5871568466    0.9209066381    1.2674759895
      9  H        -3.9214262468   -1.3715453150    0.5977577641
     10  H        -3.7144624269   -0.9684360066   -1.1272332467
     11  Li        1.0220077920    1.6736621356   -0.2423231051
   Point Group: c1    Number of degrees of freedom:    27


   Energy is   -349.947893111


 Translations and Rotations Projected Out of Hessian

 27 Hessian modes will be used to form the next step
  Hessian Eigenvalues:
     0.001172    0.002824    0.005278    0.014567    0.051963    0.070336
     0.143214    0.172086    0.245511    0.283116    0.314758    0.392629
     0.413675    0.495667    0.521078    0.614827    0.765762    0.768735
     0.870265    0.938395    1.000148    1.013430    1.038379    1.114088
     1.143221    1.312157    1.683430

 Minimum Search - Taking Simple RFO Step
 Searching for Lamda that Minimizes Along All modes
 Value Taken    Lamda =   0.00000000
 Step Taken.  Stepsize is  0.009880

                             Maximum     Tolerance    Cnvgd?
         Gradient           0.000217      0.000300     YES
         Displacement       0.006105      0.001200      NO
         Energy change     -0.000000      0.000001     YES


                       Distance Matrix (Angstroms)
             O (  1)   O (  2)   O (  3)   C (  4)   C (  5)   C (  6)
   O (  2)  2.269897
   O (  3)  2.307209  2.292526
   C (  4)  1.420062  2.307942  3.435152
   C (  5)  2.324925  1.412892  3.430151  1.531750
   C (  6)  1.439869  1.419935  1.272960  2.326337  2.258162
   H (  7)  2.072649  3.213133  4.257820  1.092918  2.197032  3.105381
   H (  8)  2.056539  2.859151  3.928381  1.094895  2.188909  3.027627
   H (  9)  3.224352  2.046530  4.234411  2.204712  1.089403  3.187370
   H ( 10)  2.879462  2.067514  3.929335  2.185001  1.096751  2.704616
   Li( 11)  3.152622  4.085391  1.886027  4.540349  5.014850  2.835695
             H (  7)   H (  8)   H (  9)   H ( 10)
   H (  8)  1.780723
   H (  9)  2.826892  2.411554
   H ( 10)  2.394581  3.052942  1.783515
   Li( 11)  5.182910  4.908211  5.866563  5.495261
 
 Final energy is   -349.947893110793     


 ******************************
 **  OPTIMIZATION CONVERGED  **
 ******************************

                       Coordinates (Angstroms)
     ATOM                X               Y               Z
      1  O        -2.0898312583    1.1838562019   -0.1175247110
      2  O        -1.9855737121   -1.0805440748    0.0010348284
      3  O        -0.0461489480    0.1192983629   -0.2328130149
      4  C        -3.3973546704    0.7337473186    0.2055240930
      5  C        -3.3581897717   -0.7646025167   -0.1101863742
      6  C        -1.2887239858    0.0503945584   -0.5005565856
      7  H        -4.1429876648    1.2685640703   -0.3881694231
      8  H        -3.5871568466    0.9209066381    1.2674759895
      9  H        -3.9214262468   -1.3715453150    0.5977577641
     10  H        -3.7144624269   -0.9684360066   -1.1272332467
     11  Li        1.0220077920    1.6736621356   -0.2423231051

Z-matrix Print:
$molecule
0 2
O 
C  1 1.420062
H  2 1.092918 1 110.456222
H  2 1.094895 1 109.030850 3 -119.705770 0
C  1 1.439869 2 108.861754 3 -124.901829 0
O  5 1.272960 1 116.393443 2 -148.710272 0
O  5 1.419935 1 105.067842 2 -18.064467 0
C  7 1.412892 5 105.715614 1 34.502901 0
H  8 1.089403 7 109.058788 5 -157.171411 0
H  8 1.096751 7 110.305322 5 82.737562 0
Li 6 1.886027 5 126.611354 1 -33.809741 0
$end

 
 --------------------------------------------------------------
 
                    Orbital Energies (a.u.)
 --------------------------------------------------------------
 
 Alpha MOs
 -- Occupied --
-19.254 -19.249 -19.188 -10.383 -10.326 -10.325  -2.028  -1.196
 -1.094  -1.073  -0.837  -0.722  -0.668  -0.594  -0.576  -0.547
 -0.509  -0.496  -0.478  -0.427  -0.424  -0.367  -0.359  -0.350
 -0.205
 -- Virtual --
  0.013   0.018   0.019   0.022   0.060   0.066   0.070   0.074
  0.075   0.077   0.084   0.098   0.119   0.134   0.142   0.147
  0.169   0.178   0.182   0.195   0.197   0.202   0.205   0.207
  0.218   0.225   0.235   0.240   0.256   0.276   0.284   0.300
  0.310   0.325   0.344   0.352   0.357   0.372   0.374   0.383
  0.390   0.396   0.408   0.429   0.436   0.446   0.457   0.475
  0.493   0.526   0.563   0.577   0.626   0.637   0.657   0.664
  0.666   0.689   0.705   0.719   0.733   0.743   0.764   0.767
  0.780   0.787   0.818   0.845   0.880   0.897   0.946   1.036
  1.060   1.097   1.164   1.181   1.197   1.231   1.270   1.280
  1.299   1.337   1.386   1.390   1.483   1.533   1.600   1.640
  1.679   1.695   1.768   1.788   1.812   1.829   1.862   1.872
  1.909   1.955   1.959   2.053   2.190   2.532   2.597   2.605
  2.657   2.750   2.865   2.911   2.996   3.006   3.018   3.037
  3.082   3.102   3.126   3.176   3.209   3.259   3.298   3.397
  3.414   3.535   3.580   3.700   3.863   3.937   3.992   4.140
  4.192   4.236   5.158   5.182   5.232   5.300   5.372   5.491
  5.505   5.806   5.974  23.675  23.815  23.834  50.038  50.070
 50.137
 
 Beta MOs
 -- Occupied --
-19.252 -19.246 -19.184 -10.373 -10.326 -10.325  -2.028  -1.187
 -1.087  -1.062  -0.833  -0.719  -0.654  -0.589  -0.572  -0.541
 -0.496  -0.490  -0.450  -0.423  -0.421  -0.356  -0.348  -0.338
 -- Virtual --
  0.017   0.022   0.023   0.024   0.054   0.066   0.070   0.074
  0.078   0.084   0.087   0.102   0.105   0.125   0.139   0.146
  0.156   0.172   0.181   0.185   0.198   0.199   0.204   0.209
  0.213   0.222   0.232   0.239   0.242   0.259   0.282   0.288
  0.301   0.312   0.330   0.348   0.357   0.362   0.373   0.381
  0.386   0.392   0.399   0.413   0.435   0.443   0.447   0.461
  0.483   0.494   0.533   0.564   0.583   0.628   0.638   0.660
  0.667   0.668   0.693   0.707   0.723   0.739   0.751   0.767
  0.769   0.780   0.789   0.819   0.846   0.884   0.901   0.949
  1.043   1.064   1.100   1.169   1.186   1.199   1.235   1.275
  1.284   1.301   1.343   1.391   1.392   1.486   1.547   1.604
  1.647   1.695   1.702   1.772   1.803   1.819   1.835   1.869
  1.876   1.916   1.964   1.966   2.069   2.191   2.532   2.598
  2.605   2.659   2.786   2.872   2.914   3.005   3.014   3.021
  3.047   3.089   3.109   3.140   3.180   3.214   3.273   3.303
  3.399   3.425   3.548   3.587   3.712   3.864   3.940   3.994
  4.147   4.194   4.243   5.166   5.189   5.248   5.305   5.376
  5.495   5.509   5.812   5.982  23.675  23.816  23.850  50.040
 50.073  50.141
 --------------------------------------------------------------
 
          Ground-State Mulliken Net Atomic Charges

     Atom                 Charge (a.u.)    Spin (a.u.)
  --------------------------------------------------------
      1 O                    -0.155162       0.022520
      2 O                    -0.136038       0.004333
      3 O                    -0.570768       0.143153
      4 C                    -0.427274      -0.086409
      5 C                    -0.464667       0.048012
      6 C                    -0.077901       0.857376
      7 H                     0.247277      -0.001316
      8 H                     0.248865       0.005709
      9 H                     0.249720      -0.000528
     10 H                     0.253780       0.002167
     11 Li                    0.832168       0.004984
  --------------------------------------------------------
  Sum of atomic charges =    -0.000000
  Sum of spin   charges =     1.000000

 -----------------------------------------------------------------
                    Cartesian Multipole Moments
 -----------------------------------------------------------------
    Charge (ESU x 10^10)
                 0.0000
    Dipole Moment (Debye)
         X       4.1953      Y       6.8424      Z       0.4235
       Tot       8.0373
    Quadrupole Moments (Debye-Ang)
        XX     -22.5042     XY       9.4786     YY     -29.8853
        XZ      -2.8894     YZ      -1.2718     ZZ     -38.8227
    Octopole Moments (Debye-Ang^2)
       XXX     179.2725    XXY       2.3331    XYY      96.6101
       YYY      13.3276    XXZ       7.8214    XYZ      -2.7740
       YYZ       2.2829    XZZ      75.8490    YZZ      -2.0822
       ZZZ      18.3140
    Hexadecapole Moments (Debye-Ang^3)
      XXXX   -1102.3348   XXXY      21.7320   XXYY    -241.8739
      XYYY      31.6916   YYYY    -171.9941   XXXZ     -20.5914
      XXYZ      -3.4012   XYYZ      -9.0482   YYYZ      -7.7896
      XXZZ    -226.3898   XYZZ       2.4793   YYZZ     -44.2220
      XZZZ     -16.9152   YZZZ      -0.5291   ZZZZ     -79.6514
 -----------------------------------------------------------------
Archival summary:
1\1\nid01333\OPT\ProcedureUnspecified\BasisUnspecified\33i14(2)\sblau\TueNov1314:56:102018TueNov1314:56:102018\0\\#,OPT,ProcedureUnspecified,BasisUnspecified,\\0,2\O\C,1,1.42006\H,2,1.09292,1,110.456\H,2,1.0949,1,109.031,3,-119.706,0\C,1,1.43987,2,108.862,3,-124.902,0\O,5,1.27296,1,116.393,2,-148.71,0\O,5,1.41994,1,105.068,2,-18.0645,0\C,7,1.41289,5,105.716,1,34.5029,0\H,8,1.0894,7,109.059,5,-157.171,0\H,8,1.09675,7,110.305,5,82.7376,0\Li,6,1.88603,5,126.611,1,-33.8097,0\\\@

 Total job time:  2265.42s(wall), 48329.56s(cpu) 
 Tue Nov 13 14:56:10 2018

        *************************************************************
        *                                                           *
        *  Thank you very much for using Q-Chem.  Have a nice day.  *
        *                                                           *
        *************************************************************


