unknown system                          
   1.00000000000000     
     0.000000    2.019465    2.019465
     2.019465    0.000000    2.019465
     2.019465    2.019465    0.000000
   Al
     1
Direct
  0.000000  0.000000  0.000000
 
   48   48   48
 -.17444505407E+00 -.13670659249E+00 -.24935188515E-01 0.15636861829E+00 0.39933615628E+00
 0.69271520866E+00 0.10225059770E+01 0.13732425982E+01 0.17295277533E+01 0.20772824744E+01
 0.24043629227E+01 0.27005853576E+01 0.29575356141E+01 0.31686192989E+01 0.33295952648E+01
 0.34394581866E+01 0.35012160191E+01 0.35220364200E+01 0.35123966095E+01 0.34831455039E+01
 0.34441761240E+01 0.34044968368E+01 0.33712823339E+01 0.33494872970E+01 0.33419225729E+01
 0.33494872970E+01 0.33712823339E+01 0.34044968368E+01 0.34441761240E+01 0.34831455039E+01
 0.35123966095E+01 0.35220364200E+01 0.35012160191E+01 0.34394581866E+01 0.33295952648E+01
 0.31686192989E+01 0.29575356141E+01 0.27005853576E+01 0.24043629227E+01 0.20772824744E+01
 0.17295277533E+01 0.13732425982E+01 0.10225059770E+01 0.69271520866E+00 0.39933615628E+00
 0.15636861829E+00 -.24935188515E-01 -.13670659249E+00 -.13670659249E+00 -.61948403894E-01
 0.84608997887E-01 0.29678196286E+00 0.56496990258E+00 0.87646090571E+00 0.12164200127E+01
 0.15693449181E+01 0.19204924625E+01 0.22568090012E+01 0.25672114877E+01 0.28424521096E+01
 0.30750147672E+01 0.32594145553E+01 0.33929534074E+01 0.34766133146E+01 0.35155616642E+01
 0.35188316070E+01 0.34975268640E+01 0.34618272053E+01 0.34212718922E+01 0.33839819529E+01
 0.33559790184E+01 0.33410752136E+01 0.33410752136E+01 0.33559790184E+01 0.33839819529E+01
 0.34212718922E+01 0.34618272053E+01 0.34975268640E+01 0.35188316070E+01 0.35155616642E+01
 0.34766133146E+01 0.33929534074E+01 0.32594145553E+01 0.30750147672E+01 0.28424521096E+01
 0.25672114877E+01 0.22568090012E+01 0.19204924625E+01 0.15693449181E+01 0.12164200127E+01
 0.87646090571E+00 0.56496990258E+00 0.29678196286E+00 0.84608997887E-01 -.61948403894E-01
 -.13670659249E+00 -.24935188515E-01 0.84608997887E-01 0.26207132494E+00 0.49951189747E+00
 0.78575104891E+00 0.11070501506E+01 0.14483558978E+01 0.17947370110E+01 0.21325270970E+01
 0.24498757055E+01 0.27367718242E+01 0.29849041937E+01 0.31877793024E+01 0.33413007766E+01
 0.34446527827E+01 0.35010342303E+01 0.35177409307E+01 0.35052221208E+01 0.34740541547E+01
 0.34339677712E+01 0.33937623197E+01 0.33603816140E+01 0.33385780626E+01 0.33310264218E+01
 0.33385780626E+01 0.33603816140E+01 0.33937623197E+01 0.34339677712E+01 0.34740541547E+01
 0.35052221208E+01 0.35177409307E+01 0.35010342303E+01 0.34446527827E+01 0.33413007766E+01
 0.31877793024E+01 0.29849041937E+01 0.27367718242E+01 0.24498757055E+01 0.21325270970E+01
 0.17947370110E+01 0.14483558978E+01 0.11070501506E+01 0.78575104891E+00 0.49951189747E+00
 0.26207132494E+00 0.84608997887E-01 -.24935188515E-01 -.61948403894E-01 0.15636861829E+00
 0.29678196286E+00 0.49951189747E+00 0.75499513979E+00 0.10508856224E+01 0.13730406966E+01
 0.17068355732E+01 0.20383853674E+01 0.23553100261E+01 0.26469593096E+01 0.29043371700E+01
 0.31201226654E+01 0.32890826245E+01 0.34088679730E+01 0.34808557498E+01 0.35105392058E+01
 0.35070823558E+01 0.34811810180E+01 0.34426091486E+01 0.34005487463E+01 0.33626716156E+01
 0.33345631589E+01 0.33196978392E+01 0.33196978392E+01 0.33345631589E+01 0.33626716156E+01
 0.34005487463E+01 0.34426091486E+01 0.34811810180E+01 0.35070823558E+01 0.35105392058E+01
 0.34808557498E+01 0.34088679730E+01 0.32890826245E+01 0.31201226654E+01 0.29043371700E+01
 0.26469593096E+01 0.23553100261E+01 0.20383853674E+01 0.17068355732E+01 0.13730406966E+01
 0.10508856224E+01 0.75499513979E+00 0.49951189747E+00 0.29678196286E+00 0.15636861829E+00
 0.84608997887E-01 0.84608997887E-01 0.39933615628E+00 0.56496990258E+00 0.78575104891E+00
 0.10508856224E+01 0.13474729781E+01 0.16616296736E+01 0.19796726634E+01 0.22890057073E+01
 0.25785312650E+01 0.28386989896E+01 0.30615143830E+01 0.32408310708E+01 0.33730313304E+01
 0.34578834318E+01 0.34991364317E+01 0.35044194653E+01 0.34839620446E+01 0.34475704384E+01
 0.34045180109E+01 0.33629828298E+01 0.33292433471E+01 0.33074796201E+01 0.32999855708E+01
 0.33074796201E+01 0.33292433471E+01 0.33629828298E+01 0.34045180109E+01 0.34475704384E+01
 0.34839620446E+01 0.35044194653E+01 0.34991364317E+01 0.34578834318E+01 0.33730313304E+01
 0.32408310708E+01 0.30615143830E+01 0.28386989896E+01 0.25785312650E+01 0.22890057073E+01
 0.19796726634E+01 0.16616296736E+01 0.13474729781E+01 0.10508856224E+01 0.78575104891E+00
 0.56496990258E+00 0.39933615628E+00 0.29678196286E+00 0.26207132494E+00 0.29678196286E+00
 0.69271520866E+00 0.87646090571E+00 0.11070501506E+01 0.13730406966E+01 0.16616296736E+01
 0.19597223181E+01 0.22548474890E+01 0.25357058813E+01 0.27923598266E+01 0.30162934393E+01
 0.32006439556E+01 0.33407741851E+01 0.34350876154E+01 0.34857343820E+01 0.34987759686E+01
 0.34834547673E+01 0.34495063476E+01 0.34060697862E+01 0.33615992437E+01 0.33229065111E+01
 0.32947703329E+01 0.32800542066E+01 0.32800542066E+01 0.32947703329E+01 0.33229065111E+01
 0.33615992437E+01 0.34060697862E+01 0.34495063476E+01 0.34834547673E+01 0.34987759686E+01
 0.34857343820E+01 0.34350876154E+01 0.33407741851E+01 0.32006439556E+01 0.30162934393E+01
 0.27923598266E+01 0.25357058813E+01 0.22548474890E+01 0.19597223181E+01 0.16616296736E+01
 0.13730406966E+01 0.11070501506E+01 0.87646090571E+00 0.69271520866E+00 0.56496990258E+00
 0.49951189747E+00 0.49951189747E+00 0.56496990258E+00 0.10225059770E+01 0.12164200127E+01
 0.14483558978E+01 0.17068355732E+01 0.19796726634E+01 0.22548474890E+01 0.25211300426E+01
 0.27683961079E+01 0.29877742043E+01 0.31718701207E+01 0.33152595043E+01 0.34152344362E+01
 0.34725470288E+01 0.34917586438E+01 0.34808632290E+01 0.34492476013E+01 0.34057687721E+01
 0.33589322605E+01 0.33159128201E+01 0.32819749950E+01 0.32604580118E+01 0.32531091020E+01
 0.32604580118E+01 0.32819749950E+01 0.33159128201E+01 0.33589322605E+01 0.34057687721E+01
 0.34492476013E+01 0.34808632290E+01 0.34917586438E+01 0.34725470288E+01 0.34152344362E+01
 0.33152595043E+01 0.31718701207E+01 0.29877742043E+01 0.27683961079E+01 0.25211300426E+01
 0.22548474890E+01 0.19796726634E+01 0.17068355732E+01 0.14483558978E+01 0.12164200127E+01
 0.10225059770E+01 0.87646090571E+00 0.78575104891E+00 0.75499513979E+00 0.78575104891E+00
 0.87646090571E+00 0.13732425982E+01 0.15693449181E+01 0.17947370110E+01 0.20383853674E+01
 0.22890057073E+01 0.25357058813E+01 0.27683961079E+01 0.29780322937E+01 0.31568728371E+01
 0.32989258066E+01 0.34006235217E+01 0.34615529584E+01 0.34849141981E+01 0.34773827877E+01
 0.34476853539E+01 0.34042709103E+01 0.33554861076E+01 0.33086925029E+01 0.32695225983E+01
 0.32417094226E+01 0.32273537767E+01 0.32273537767E+01 0.32417094226E+01 0.32695225983E+01
 0.33086925029E+01 0.33554861076E+01 0.34042709103E+01 0.34476853539E+01 0.34773827877E+01
 0.34849141981E+01 0.34615529584E+01 0.34006235217E+01 0.32989258066E+01 0.31568728371E+01
 0.29780322937E+01 0.27683961079E+01 0.25357058813E+01 0.22890057073E+01 0.20383853674E+01
 0.17947370110E+01 0.15693449181E+01 0.13732425982E+01 0.12164200127E+01 0.11070501506E+01
 0.10508856224E+01 0.10508856224E+01 0.11070501506E+01 0.12164200127E+01 0.17295277533E+01
 0.19204924625E+01 0.21325270970E+01 0.23553100261E+01 0.25785312650E+01 0.27923598266E+01
 0.29877742043E+01 0.31568728371E+01 0.32933069253E+01 0.33928930452E+01 0.34543003782E+01
 0.34795555986E+01 0.34740684042E+01 0.34456634332E+01 0.34022456048E+01 0.33518135896E+01
 0.33017365073E+01 0.32578885319E+01 0.32243214913E+01 0.32034240465E+01 0.31963487096E+01
 0.32034240465E+01 0.32243214913E+01 0.32578885319E+01 0.33017365073E+01 0.33518135896E+01
 0.34022456048E+01 0.34456634332E+01 0.34740684042E+01 0.34795555986E+01 0.34543003782E+01
 0.33928930452E+01 0.32933069253E+01 0.31568728371E+01 0.29877742043E+01 0.27923598266E+01
 0.25785312650E+01 0.23553100261E+01 0.21325270970E+01 0.19204924625E+01 0.17295277533E+01
 0.15693449181E+01 0.14483558978E+01 0.13730406966E+01 0.13474729781E+01 0.13730406966E+01
 0.14483558978E+01 0.15693449181E+01 0.20772824744E+01 0.22568090012E+01 0.24498757055E+01
 0.26469593096E+01 0.28386989896E+01 0.30162934393E+01 0.31718701207E+01 0.32989258066E+01
 0.33928930452E+01 0.34517709094E+01 0.34766292763E+01 0.34717353490E+01 0.34438897600E+01
 0.34003023275E+01 0.33484633371E+01 0.32955708936E+01 0.32476018187E+01 0.32088477584E+01
 0.31819423245E+01 0.31682303318E+01 0.31682303318E+01 0.31819423245E+01 0.32088477584E+01
 0.32476018187E+01 0.32955708936E+01 0.33484633371E+01 0.34003023275E+01 0.34438897600E+01
 0.34717353490E+01 0.34766292763E+01 0.34517709094E+01 0.33928930452E+01 0.32989258066E+01
 0.31718701207E+01 0.30162934393E+01 0.28386989896E+01 0.26469593096E+01 0.24498757055E+01
 0.22568090012E+01 0.20772824744E+01 0.19204924625E+01 0.17947370110E+01 0.17068355732E+01
 0.16616296736E+01 0.16616296736E+01 0.17068355732E+01 0.17947370110E+01 0.19204924625E+01
 0.24043629227E+01 0.25672114877E+01 0.27367718242E+01 0.29043371700E+01 0.30615143830E+01
 0.32006439556E+01 0.33152595043E+01 0.34006235217E+01 0.34543003782E+01 0.34766292763E+01
 0.34708987024E+01 0.34428711185E+01 0.33989270470E+01 0.33459211961E+01 0.32907101723E+01
 0.32392210749E+01 0.31958909565E+01 0.31635610082E+01 0.31437466546E+01 0.31370880559E+01
 0.31437466546E+01 0.31635610082E+01 0.31958909565E+01 0.32392210749E+01 0.32907101723E+01
 0.33459211961E+01 0.33989270470E+01 0.34428711185E+01 0.34708987024E+01 0.34766292763E+01
 0.34543003782E+01 0.34006235217E+01 0.33152595043E+01 0.32006439556E+01 0.30615143830E+01
 0.29043371700E+01 0.27367718242E+01 0.25672114877E+01 0.24043629227E+01 0.22568090012E+01
 0.21325270970E+01 0.20383853674E+01 0.19796726634E+01 0.19597223181E+01 0.19796726634E+01
 0.20383853674E+01 0.21325270970E+01 0.22568090012E+01 0.27005853576E+01 0.28424521096E+01
 0.29849041937E+01 0.31201226654E+01 0.32408310708E+01 0.33407741851E+01 0.34152344362E+01
 0.34615529584E+01 0.34795555986E+01 0.34717353490E+01 0.34428711185E+01 0.33984326342E+01
 0.33445520782E+01 0.32875938297E+01 0.32332758827E+01 0.31860647889E+01 0.31489589806E+01
 0.31236405960E+01 0.31108607022E+01 0.31108607022E+01 0.31236405960E+01 0.31489589806E+01
 0.31860647889E+01 0.32332758827E+01 0.32875938297E+01 0.33445520782E+01 0.33984326342E+01
 0.34428711185E+01 0.34717353490E+01 0.34795555986E+01 0.34615529584E+01 0.34152344362E+01
 0.33407741851E+01 0.32408310708E+01 0.31201226654E+01 0.29849041937E+01 0.28424521096E+01
 0.27005853576E+01 0.25672114877E+01 0.24498757055E+01 0.23553100261E+01 0.22890057073E+01
 0.22548474890E+01 0.22548474890E+01 0.22890057073E+01 0.23553100261E+01 0.24498757055E+01
 0.25672114877E+01 0.29575356141E+01 0.30750147672E+01 0.31877793024E+01 0.32890826245E+01
 0.33730313304E+01 0.34350876154E+01 0.34725470288E+01 0.34849141981E+01 0.34740684042E+01
 0.34438897600E+01 0.33989270470E+01 0.33445520782E+01 0.32865198285E+01 0.32301864469E+01
 0.31799140532E+01 0.31387827863E+01 0.31086301683E+01 0.30903381563E+01 0.30842196887E+01
 0.30903381563E+01 0.31086301683E+01 0.31387827863E+01 0.31799140532E+01 0.32301864469E+01
 0.32865198285E+01 0.33445520782E+01 0.33989270470E+01 0.34438897600E+01 0.34740684042E+01
 0.34849141981E+01 0.34725470288E+01 0.34350876154E+01 0.33730313304E+01 0.32890826245E+01
 0.31877793024E+01 0.30750147672E+01 0.29575356141E+01 0.28424521096E+01 0.27367718242E+01
 0.26469593096E+01 0.25785312650E+01 0.25357058813E+01 0.25211300426E+01 0.25357058813E+01
 0.25785312650E+01 0.26469593096E+01 0.27367718242E+01 0.28424521096E+01 0.31686192989E+01
 0.32594145553E+01 0.33413007766E+01 0.34088679730E+01 0.34578834318E+01 0.34857343820E+01
 0.34917586438E+01 0.34773827877E+01 0.34456634332E+01 0.34003023275E+01 0.33459211961E+01
 0.32875938297E+01 0.32301864469E+01 0.31778183208E+01 0.31335498760E+01 0.30993365847E+01
 0.30762105511E+01 0.30645903792E+01 0.30645903792E+01 0.30762105511E+01 0.30993365847E+01
 0.31335498760E+01 0.31778183208E+01 0.32301864469E+01 0.32875938297E+01 0.33459211961E+01
 0.34003023275E+01 0.34456634332E+01 0.34773827877E+01 0.34917586438E+01 0.34857343820E+01
 0.34578834318E+01 0.34088679730E+01 0.33413007766E+01 0.32594145553E+01 0.31686192989E+01
 0.30750147672E+01 0.29849041937E+01 0.29043371700E+01 0.28386989896E+01 0.27923598266E+01
 0.27683961079E+01 0.27683961079E+01 0.27923598266E+01 0.28386989896E+01 0.29043371700E+01
 0.29849041937E+01 0.30750147672E+01 0.33295952648E+01 0.33929534074E+01 0.34446527827E+01
 0.34808557498E+01 0.34991364317E+01 0.34987759686E+01 0.34808632290E+01 0.34476853539E+01
 0.34022456048E+01 0.33484633371E+01 0.32907101723E+01 0.32332758827E+01 0.31799140532E+01
 0.31335498760E+01 0.30961876762E+01 0.30690033231E+01 0.30525609385E+01 0.30470656077E+01
 0.30525609385E+01 0.30690033231E+01 0.30961876762E+01 0.31335498760E+01 0.31799140532E+01
 0.32332758827E+01 0.32907101723E+01 0.33484633371E+01 0.34022456048E+01 0.34476853539E+01
 0.34808632290E+01 0.34987759686E+01 0.34991364317E+01 0.34808557498E+01 0.34446527827E+01
 0.33929534074E+01 0.33295952648E+01 0.32594145553E+01 0.31877793024E+01 0.31201226654E+01
 0.30615143830E+01 0.30162934393E+01 0.29877742043E+01 0.29780322937E+01 0.29877742043E+01
 0.30162934393E+01 0.30615143830E+01 0.31201226654E+01 0.31877793024E+01 0.32594145553E+01
 0.34394581866E+01 0.34766133146E+01 0.35010342303E+01 0.35105392058E+01 0.35044194653E+01
 0.34834547673E+01 0.34492476013E+01 0.34042709103E+01 0.33518135896E+01 0.32955708936E+01
 0.32392210749E+01 0.31860647889E+01 0.31387827863E+01 0.30993365847E+01 0.30690033231E+01
 0.30485077189E+01 0.30381964813E+01 0.30381964813E+01 0.30485077189E+01 0.30690033231E+01
 0.30993365847E+01 0.31387827863E+01 0.31860647889E+01 0.32392210749E+01 0.32955708936E+01
 0.33518135896E+01 0.34042709103E+01 0.34492476013E+01 0.34834547673E+01 0.35044194653E+01
 0.35105392058E+01 0.35010342303E+01 0.34766133146E+01 0.34394581866E+01 0.33929534074E+01
 0.33413007766E+01 0.32890826245E+01 0.32408310708E+01 0.32006439556E+01 0.31718701207E+01
 0.31568728371E+01 0.31568728371E+01 0.31718701207E+01 0.32006439556E+01 0.32408310708E+01
 0.32890826245E+01 0.33413007766E+01 0.33929534074E+01 0.35012160191E+01 0.35155616642E+01
 0.35177409307E+01 0.35070823558E+01 0.34839620446E+01 0.34495063476E+01 0.34057687721E+01
 0.33554861076E+01 0.33017365073E+01 0.32476018187E+01 0.31958909565E+01 0.31489589806E+01
 0.31086301683E+01 0.30762105511E+01 0.30525609385E+01 0.30381964813E+01 0.30333815911E+01
 0.30381964813E+01 0.30525609385E+01 0.30762105511E+01 0.31086301683E+01 0.31489589806E+01
 0.31958909565E+01 0.32476018187E+01 0.33017365073E+01 0.33554861076E+01 0.34057687721E+01
 0.34495063476E+01 0.34839620446E+01 0.35070823558E+01 0.35177409307E+01 0.35155616642E+01
 0.35012160191E+01 0.34766133146E+01 0.34446527827E+01 0.34088679730E+01 0.33730313304E+01
 0.33407741851E+01 0.33152595043E+01 0.32989258066E+01 0.32933069253E+01 0.32989258066E+01
 0.33152595043E+01 0.33407741851E+01 0.33730313304E+01 0.34088679730E+01 0.34446527827E+01
 0.34766133146E+01 0.35220364200E+01 0.35188316070E+01 0.35052221208E+01 0.34811810180E+01
 0.34475704384E+01 0.34060697862E+01 0.33589322605E+01 0.33086925029E+01 0.32578885319E+01
 0.32088477584E+01 0.31635610082E+01 0.31236405960E+01 0.30903381563E+01 0.30645903792E+01
 0.30470656077E+01 0.30381964813E+01 0.30381964813E+01 0.30470656077E+01 0.30645903792E+01
 0.30903381563E+01 0.31236405960E+01 0.31635610082E+01 0.32088477584E+01 0.32578885319E+01
 0.33086925029E+01 0.33589322605E+01 0.34060697862E+01 0.34475704384E+01 0.34811810180E+01
 0.35052221208E+01 0.35188316070E+01 0.35220364200E+01 0.35155616642E+01 0.35010342303E+01
 0.34808557498E+01 0.34578834318E+01 0.34350876154E+01 0.34152344362E+01 0.34006235217E+01
 0.33928930452E+01 0.33928930452E+01 0.34006235217E+01 0.34152344362E+01 0.34350876154E+01
 0.34578834318E+01 0.34808557498E+01 0.35010342303E+01 0.35155616642E+01 0.35123966095E+01
 0.34975268640E+01 0.34740541547E+01 0.34426091486E+01 0.34045180109E+01 0.33615992437E+01
 0.33159128201E+01 0.32695225983E+01 0.32243214913E+01 0.31819423245E+01 0.31437466546E+01
 0.31108607022E+01 0.30842196887E+01 0.30645903792E+01 0.30525609385E+01 0.30485077189E+01
 0.30525609385E+01 0.30645903792E+01 0.30842196887E+01 0.31108607022E+01 0.31437466546E+01
 0.31819423245E+01 0.32243214913E+01 0.32695225983E+01 0.33159128201E+01 0.33615992437E+01
 0.34045180109E+01 0.34426091486E+01 0.34740541547E+01 0.34975268640E+01 0.35123966095E+01
 0.35188316070E+01 0.35177409307E+01 0.35105392058E+01 0.34991364317E+01 0.34857343820E+01
 0.34725470288E+01 0.34615529584E+01 0.34543003782E+01 0.34517709094E+01 0.34543003782E+01
 0.34615529584E+01 0.34725470288E+01 0.34857343820E+01 0.34991364317E+01 0.35105392058E+01
 0.35177409307E+01 0.35188316070E+01 0.34831455039E+01 0.34618272053E+01 0.34339677712E+01
 0.34005487463E+01 0.33629828298E+01 0.33229065111E+01 0.32819749950E+01 0.32417094226E+01
 0.32034240465E+01 0.31682303318E+01 0.31370880559E+01 0.31108607022E+01 0.30903381563E+01
 0.30762105511E+01 0.30690033231E+01 0.30690033231E+01 0.30762105511E+01 0.30903381563E+01
 0.31108607022E+01 0.31370880559E+01 0.31682303318E+01 0.32034240465E+01 0.32417094226E+01
 0.32819749950E+01 0.33229065111E+01 0.33629828298E+01 0.34005487463E+01 0.34339677712E+01
 0.34618272053E+01 0.34831455039E+01 0.34975268640E+01 0.35052221208E+01 0.35070823558E+01
 0.35044194653E+01 0.34987759686E+01 0.34917586438E+01 0.34849141981E+01 0.34795555986E+01
 0.34766292763E+01 0.34766292763E+01 0.34795555986E+01 0.34849141981E+01 0.34917586438E+01
 0.34987759686E+01 0.35044194653E+01 0.35070823558E+01 0.35052221208E+01 0.34975268640E+01
 0.34441761240E+01 0.34212718922E+01 0.33937623197E+01 0.33626716156E+01 0.33292433471E+01
 0.32947703329E+01 0.32604580118E+01 0.32273537767E+01 0.31963487096E+01 0.31682303318E+01
 0.31437466546E+01 0.31236405960E+01 0.31086301683E+01 0.30993365847E+01 0.30961876762E+01
 0.30993365847E+01 0.31086301683E+01 0.31236405960E+01 0.31437466546E+01 0.31682303318E+01
 0.31963487096E+01 0.32273537767E+01 0.32604580118E+01 0.32947703329E+01 0.33292433471E+01
 0.33626716156E+01 0.33937623197E+01 0.34212718922E+01 0.34441761240E+01 0.34618272053E+01
 0.34740541547E+01 0.34811810180E+01 0.34839620446E+01 0.34834547673E+01 0.34808632290E+01
 0.34773827877E+01 0.34740684042E+01 0.34717353490E+01 0.34708987024E+01 0.34717353490E+01
 0.34740684042E+01 0.34773827877E+01 0.34808632290E+01 0.34834547673E+01 0.34839620446E+01
 0.34811810180E+01 0.34740541547E+01 0.34618272053E+01 0.34044968368E+01 0.33839819529E+01
 0.33603816140E+01 0.33345631589E+01 0.33074796201E+01 0.32800542066E+01 0.32531091020E+01
 0.32273537767E+01 0.32034240465E+01 0.31819423245E+01 0.31635610082E+01 0.31489589806E+01
 0.31387827863E+01 0.31335498760E+01 0.31335498760E+01 0.31387827863E+01 0.31489589806E+01
 0.31635610082E+01 0.31819423245E+01 0.32034240465E+01 0.32273537767E+01 0.32531091020E+01
 0.32800542066E+01 0.33074796201E+01 0.33345631589E+01 0.33603816140E+01 0.33839819529E+01
 0.34044968368E+01 0.34212718922E+01 0.34339677712E+01 0.34426091486E+01 0.34475704384E+01
 0.34495063476E+01 0.34492476013E+01 0.34476853539E+01 0.34456634332E+01 0.34438897600E+01
 0.34428711185E+01 0.34428711185E+01 0.34438897600E+01 0.34456634332E+01 0.34476853539E+01
 0.34492476013E+01 0.34495063476E+01 0.34475704384E+01 0.34426091486E+01 0.34339677712E+01
 0.34212718922E+01 0.33712823339E+01 0.33559790184E+01 0.33385780626E+01 0.33196978392E+01
 0.32999855708E+01 0.32800542066E+01 0.32604580118E+01 0.32417094226E+01 0.32243214913E+01
 0.32088477584E+01 0.31958909565E+01 0.31860647889E+01 0.31799140532E+01 0.31778183208E+01
 0.31799140532E+01 0.31860647889E+01 0.31958909565E+01 0.32088477584E+01 0.32243214913E+01
 0.32417094226E+01 0.32604580118E+01 0.32800542066E+01 0.32999855708E+01 0.33196978392E+01
 0.33385780626E+01 0.33559790184E+01 0.33712823339E+01 0.33839819529E+01 0.33937623197E+01
 0.34005487463E+01 0.34045180109E+01 0.34060697862E+01 0.34057687721E+01 0.34042709103E+01
 0.34022456048E+01 0.34003023275E+01 0.33989270470E+01 0.33984326342E+01 0.33989270470E+01
 0.34003023275E+01 0.34022456048E+01 0.34042709103E+01 0.34057687721E+01 0.34060697862E+01
 0.34045180109E+01 0.34005487463E+01 0.33937623197E+01 0.33839819529E+01 0.33494872970E+01
 0.33410752136E+01 0.33310264218E+01 0.33196978392E+01 0.33074796201E+01 0.32947703329E+01
 0.32819749950E+01 0.32695225983E+01 0.32578885319E+01 0.32476018187E+01 0.32392210749E+01
 0.32332758827E+01 0.32301864469E+01 0.32301864469E+01 0.32332758827E+01 0.32392210749E+01
 0.32476018187E+01 0.32578885319E+01 0.32695225983E+01 0.32819749950E+01 0.32947703329E+01
 0.33074796201E+01 0.33196978392E+01 0.33310264218E+01 0.33410752136E+01 0.33494872970E+01
 0.33559790184E+01 0.33603816140E+01 0.33626716156E+01 0.33629828298E+01 0.33615992437E+01
 0.33589322605E+01 0.33554861076E+01 0.33518135896E+01 0.33484633371E+01 0.33459211961E+01
 0.33445520782E+01 0.33445520782E+01 0.33459211961E+01 0.33484633371E+01 0.33518135896E+01
 0.33554861076E+01 0.33589322605E+01 0.33615992437E+01 0.33629828298E+01 0.33626716156E+01
 0.33603816140E+01 0.33559790184E+01 0.33419225729E+01 0.33410752136E+01 0.33385780626E+01
 0.33345631589E+01 0.33292433471E+01 0.33229065111E+01 0.33159128201E+01 0.33086925029E+01
 0.33017365073E+01 0.32955708936E+01 0.32907101723E+01 0.32875938297E+01 0.32865198285E+01
 0.32875938297E+01 0.32907101723E+01 0.32955708936E+01 0.33017365073E+01 0.33086925029E+01
 0.33159128201E+01 0.33229065111E+01 0.33292433471E+01 0.33345631589E+01 0.33385780626E+01
 0.33410752136E+01 0.33419225729E+01 0.33410752136E+01 0.33385780626E+01 0.33345631589E+01
 0.33292433471E+01 0.33229065111E+01 0.33159128201E+01 0.33086925029E+01 0.33017365073E+01
 0.32955708936E+01 0.32907101723E+01 0.32875938297E+01 0.32865198285E+01 0.32875938297E+01
 0.32907101723E+01 0.32955708936E+01 0.33017365073E+01 0.33086925029E+01 0.33159128201E+01
 0.33229065111E+01 0.33292433471E+01 0.33345631589E+01 0.33385780626E+01 0.33410752136E+01
 0.33494872970E+01 0.33559790184E+01 0.33603816140E+01 0.33626716156E+01 0.33629828298E+01
 0.33615992437E+01 0.33589322605E+01 0.33554861076E+01 0.33518135896E+01 0.33484633371E+01
 0.33459211961E+01 0.33445520782E+01 0.33445520782E+01 0.33459211961E+01 0.33484633371E+01
 0.33518135896E+01 0.33554861076E+01 0.33589322605E+01 0.33615992437E+01 0.33629828298E+01
 0.33626716156E+01 0.33603816140E+01 0.33559790184E+01 0.33494872970E+01 0.33410752136E+01
 0.33310264218E+01 0.33196978392E+01 0.33074796201E+01 0.32947703329E+01 0.32819749950E+01
 0.32695225983E+01 0.32578885319E+01 0.32476018187E+01 0.32392210749E+01 0.32332758827E+01
 0.32301864469E+01 0.32301864469E+01 0.32332758827E+01 0.32392210749E+01 0.32476018187E+01
 0.32578885319E+01 0.32695225983E+01 0.32819749950E+01 0.32947703329E+01 0.33074796201E+01
 0.33196978392E+01 0.33310264218E+01 0.33410752136E+01 0.33712823339E+01 0.33839819529E+01
 0.33937623197E+01 0.34005487463E+01 0.34045180109E+01 0.34060697862E+01 0.34057687721E+01
 0.34042709103E+01 0.34022456048E+01 0.34003023275E+01 0.33989270470E+01 0.33984326342E+01
 0.33989270470E+01 0.34003023275E+01 0.34022456048E+01 0.34042709103E+01 0.34057687721E+01
 0.34060697862E+01 0.34045180109E+01 0.34005487463E+01 0.33937623197E+01 0.33839819529E+01
 0.33712823339E+01 0.33559790184E+01 0.33385780626E+01 0.33196978392E+01 0.32999855708E+01
 0.32800542066E+01 0.32604580118E+01 0.32417094226E+01 0.32243214913E+01 0.32088477584E+01
 0.31958909565E+01 0.31860647889E+01 0.31799140532E+01 0.31778183208E+01 0.31799140532E+01
 0.31860647889E+01 0.31958909565E+01 0.32088477584E+01 0.32243214913E+01 0.32417094226E+01
 0.32604580118E+01 0.32800542066E+01 0.32999855708E+01 0.33196978392E+01 0.33385780626E+01
 0.33559790184E+01 0.34044968368E+01 0.34212718922E+01 0.34339677712E+01 0.34426091486E+01
 0.34475704384E+01 0.34495063476E+01 0.34492476013E+01 0.34476853539E+01 0.34456634332E+01
 0.34438897600E+01 0.34428711185E+01 0.34428711185E+01 0.34438897600E+01 0.34456634332E+01
 0.34476853539E+01 0.34492476013E+01 0.34495063476E+01 0.34475704384E+01 0.34426091486E+01
 0.34339677712E+01 0.34212718922E+01 0.34044968368E+01 0.33839819529E+01 0.33603816140E+01
 0.33345631589E+01 0.33074796201E+01 0.32800542066E+01 0.32531091020E+01 0.32273537767E+01
 0.32034240465E+01 0.31819423245E+01 0.31635610082E+01 0.31489589806E+01 0.31387827863E+01
 0.31335498760E+01 0.31335498760E+01 0.31387827863E+01 0.31489589806E+01 0.31635610082E+01
 0.31819423245E+01 0.32034240465E+01 0.32273537767E+01 0.32531091020E+01 0.32800542066E+01
 0.33074796201E+01 0.33345631589E+01 0.33603816140E+01 0.33839819529E+01 0.34441761240E+01
 0.34618272053E+01 0.34740541547E+01 0.34811810180E+01 0.34839620446E+01 0.34834547673E+01
 0.34808632290E+01 0.34773827877E+01 0.34740684042E+01 0.34717353490E+01 0.34708987024E+01
 0.34717353490E+01 0.34740684042E+01 0.34773827877E+01 0.34808632290E+01 0.34834547673E+01
 0.34839620446E+01 0.34811810180E+01 0.34740541547E+01 0.34618272053E+01 0.34441761240E+01
 0.34212718922E+01 0.33937623197E+01 0.33626716156E+01 0.33292433471E+01 0.32947703329E+01
 0.32604580118E+01 0.32273537767E+01 0.31963487096E+01 0.31682303318E+01 0.31437466546E+01
 0.31236405960E+01 0.31086301683E+01 0.30993365847E+01 0.30961876762E+01 0.30993365847E+01
 0.31086301683E+01 0.31236405960E+01 0.31437466546E+01 0.31682303318E+01 0.31963487096E+01
 0.32273537767E+01 0.32604580118E+01 0.32947703329E+01 0.33292433471E+01 0.33626716156E+01
 0.33937623197E+01 0.34212718922E+01 0.34831455039E+01 0.34975268640E+01 0.35052221208E+01
 0.35070823558E+01 0.35044194653E+01 0.34987759686E+01 0.34917586438E+01 0.34849141981E+01
 0.34795555986E+01 0.34766292763E+01 0.34766292763E+01 0.34795555986E+01 0.34849141981E+01
 0.34917586438E+01 0.34987759686E+01 0.35044194653E+01 0.35070823558E+01 0.35052221208E+01
 0.34975268640E+01 0.34831455039E+01 0.34618272053E+01 0.34339677712E+01 0.34005487463E+01
 0.33629828298E+01 0.33229065111E+01 0.32819749950E+01 0.32417094226E+01 0.32034240465E+01
 0.31682303318E+01 0.31370880559E+01 0.31108607022E+01 0.30903381563E+01 0.30762105511E+01
 0.30690033231E+01 0.30690033231E+01 0.30762105511E+01 0.30903381563E+01 0.31108607022E+01
 0.31370880559E+01 0.31682303318E+01 0.32034240465E+01 0.32417094226E+01 0.32819749950E+01
 0.33229065111E+01 0.33629828298E+01 0.34005487463E+01 0.34339677712E+01 0.34618272053E+01
 0.35123966095E+01 0.35188316070E+01 0.35177409307E+01 0.35105392058E+01 0.34991364317E+01
 0.34857343820E+01 0.34725470288E+01 0.34615529584E+01 0.34543003782E+01 0.34517709094E+01
 0.34543003782E+01 0.34615529584E+01 0.34725470288E+01 0.34857343820E+01 0.34991364317E+01
 0.35105392058E+01 0.35177409307E+01 0.35188316070E+01 0.35123966095E+01 0.34975268640E+01
 0.34740541547E+01 0.34426091486E+01 0.34045180109E+01 0.33615992437E+01 0.33159128201E+01
 0.32695225983E+01 0.32243214913E+01 0.31819423245E+01 0.31437466546E+01 0.31108607022E+01
 0.30842196887E+01 0.30645903792E+01 0.30525609385E+01 0.30485077189E+01 0.30525609385E+01
 0.30645903792E+01 0.30842196887E+01 0.31108607022E+01 0.31437466546E+01 0.31819423245E+01
 0.32243214913E+01 0.32695225983E+01 0.33159128201E+01 0.33615992437E+01 0.34045180109E+01
 0.34426091486E+01 0.34740541547E+01 0.34975268640E+01 0.35220364200E+01 0.35155616642E+01
 0.35010342303E+01 0.34808557498E+01 0.34578834318E+01 0.34350876154E+01 0.34152344362E+01
 0.34006235217E+01 0.33928930452E+01 0.33928930452E+01 0.34006235217E+01 0.34152344362E+01
 0.34350876154E+01 0.34578834318E+01 0.34808557498E+01 0.35010342303E+01 0.35155616642E+01
 0.35220364200E+01 0.35188316070E+01 0.35052221208E+01 0.34811810180E+01 0.34475704384E+01
 0.34060697862E+01 0.33589322605E+01 0.33086925029E+01 0.32578885319E+01 0.32088477584E+01
 0.31635610082E+01 0.31236405960E+01 0.30903381563E+01 0.30645903792E+01 0.30470656077E+01
 0.30381964813E+01 0.30381964813E+01 0.30470656077E+01 0.30645903792E+01 0.30903381563E+01
 0.31236405960E+01 0.31635610082E+01 0.32088477584E+01 0.32578885319E+01 0.33086925029E+01
 0.33589322605E+01 0.34060697862E+01 0.34475704384E+01 0.34811810180E+01 0.35052221208E+01
 0.35188316070E+01 0.35012160191E+01 0.34766133146E+01 0.34446527827E+01 0.34088679730E+01
 0.33730313304E+01 0.33407741851E+01 0.33152595043E+01 0.32989258066E+01 0.32933069253E+01
 0.32989258066E+01 0.33152595043E+01 0.33407741851E+01 0.33730313304E+01 0.34088679730E+01
 0.34446527827E+01 0.34766133146E+01 0.35012160191E+01 0.35155616642E+01 0.35177409307E+01
 0.35070823558E+01 0.34839620446E+01 0.34495063476E+01 0.34057687721E+01 0.33554861076E+01
 0.33017365073E+01 0.32476018187E+01 0.31958909565E+01 0.31489589806E+01 0.31086301683E+01
 0.30762105511E+01 0.30525609385E+01 0.30381964813E+01 0.30333815911E+01 0.30381964813E+01
 0.30525609385E+01 0.30762105511E+01 0.31086301683E+01 0.31489589806E+01 0.31958909565E+01
 0.32476018187E+01 0.33017365073E+01 0.33554861076E+01 0.34057687721E+01 0.34495063476E+01
 0.34839620446E+01 0.35070823558E+01 0.35177409307E+01 0.35155616642E+01 0.34394581866E+01
 0.33929534074E+01 0.33413007766E+01 0.32890826245E+01 0.32408310708E+01 0.32006439556E+01
 0.31718701207E+01 0.31568728371E+01 0.31568728371E+01 0.31718701207E+01 0.32006439556E+01
 0.32408310708E+01 0.32890826245E+01 0.33413007766E+01 0.33929534074E+01 0.34394581866E+01
 0.34766133146E+01 0.35010342303E+01 0.35105392058E+01 0.35044194653E+01 0.34834547673E+01
 0.34492476013E+01 0.34042709103E+01 0.33518135896E+01 0.32955708936E+01 0.32392210749E+01
 0.31860647889E+01 0.31387827863E+01 0.30993365847E+01 0.30690033231E+01 0.30485077189E+01
 0.30381964813E+01 0.30381964813E+01 0.30485077189E+01 0.30690033231E+01 0.30993365847E+01
 0.31387827863E+01 0.31860647889E+01 0.32392210749E+01 0.32955708936E+01 0.33518135896E+01
 0.34042709103E+01 0.34492476013E+01 0.34834547673E+01 0.35044194653E+01 0.35105392058E+01