 vasp.6.0.8 29Jun18 (build Jun 13 2019 12:54:44) complex                        
  
 executed on      IFC18_CrayMPICH date 2019.12.19  13:05:42
 running   32 mpi-ranks, with    4 threads/rank
 distrk:  each k-point on   32 cores,    1 groups
 distr:  one band on NCORES_PER_BAND=   1 cores,   32 groups


--------------------------------------------------------------------------------------------------------


 INCAR:
 POTCAR:    PAW_PBE Al 04Jan2001                  
 POTCAR:    PAW_PBE Al 04Jan2001                  
   VRHFIN =Al: s2p1                                                             
   LEXCH  = PE                                                                  
   EATOM  =    53.5387 eV,    3.9350 Ry                                         
                                                                                
   TITEL  = PAW_PBE Al 04Jan2001                                                
   LULTRA =        F    use ultrasoft PP ?                                      
   IUNSCR =        1    unscreen: 0-lin 1-nonlin 2-no                           
   RPACOR =    1.500    partial core radius                                     
   POMASS =   26.981; ZVAL   =    3.000    mass and valenz                      
   RCORE  =    1.900    outmost cutoff radius                                   
   RWIGS  =    2.650; RWIGS  =    1.402    wigner-seitz radius (au A)           
   ENMAX  =  240.300; ENMIN  =  180.225 eV                                      
   ICORE  =        2    local potential                                         
   LCOR   =        T    correct aug charges                                     
   LPAW   =        T    paw PP                                                  
   EAUG   =  291.052                                                            
   DEXC   =    0.000                                                            
   RMAX   =    1.939    core radius for proj-oper                               
   RAUG   =    1.300    factor for augmentation sphere                          
   RDEP   =    1.966    radius for radial grids                                 
   RDEPT  =    1.856    core radius for aug-charge                              
                                                                                
   Atomic configuration                                                         
    6 entries                                                                   
     n  l   j            E        occ.                                          
     1  0  0.50     -1511.1048   2.0000                                         
     2  0  0.50      -108.1629   2.0000                                         
     2  1  1.50       -69.6402   6.0000                                         
     3  0  0.50        -7.7528   2.0000                                         
     3  1  1.50        -2.7121   1.0000                                         
     3  2  2.50        -2.7212   0.0000                                         
   Description                                                                  
     l       E           TYP  RCUT    TYP  RCUT                                 
     0     -7.7528455     23  1.900                                             
     0     -3.3096929     23  1.900                                             
     1     -2.7120682     23  1.900                                             
     1     13.6058260     23  1.900                                             
     2     -2.7211652      7  1.900                                             
  local pseudopotential read in
  partial core-charges read in
  partial kinetic energy density read in
  atomic valenz-charges read in
  non local Contribution for L=           0  read in
    real space projection operators read in
  non local Contribution for L=           0  read in
    real space projection operators read in
  non local Contribution for L=           1  read in
    real space projection operators read in
  non local Contribution for L=           1  read in
    real space projection operators read in
    PAW grid and wavefunctions read in
 
   number of l-projection  operators is LMAX  =           4
   number of lm-projection operators is LMMAX =           8
 
  PAW_PBE Al 04Jan2001                  :
 energy of atom  1       EATOM=  -53.5387
 kinetic energy error for atom=    0.0001 (will be added to EATOM!!)
 
 
 POSCAR: Al1
  positions in direct lattice
  No initial velocities read in
 exchange correlation table for  LEXCH =        8
   RHO(1)=    0.500       N(1)  =     2000
   RHO(2)=  100.500       N(2)  =     4000
 


--------------------------------------------------------------------------------------------------------


 ion  position               nearest neighbor table
   1  0.000  0.000  0.000-
 
  LATTYP: Found a face centered cubic cell.
 ALAT       =     4.0389302945
  
  Lattice vectors:
  
 A1 = (   2.4733290000,   0.0000000000,   1.4279770000)
 A2 = (   0.8244430000,   2.3318770000,   1.4279770000)
 A3 = (   0.0000000000,   0.0000000000,   2.8559550000)


Analysis of symmetry for initial positions (statically):
=====================================================================
 Subroutine PRICEL returns:
 Original cell was already a primitive cell.
 

 Routine SETGRP: Setting up the symmetry group for a 
 face centered cubic supercell.


 Subroutine GETGRP returns: Found 48 space group operations
 (whereof 48 operations were pure point group operations)
 out of a pool of 48 trial point group operations.


The static configuration has the point symmetry O_h .


Analysis of symmetry for dynamics (positions and initial velocities):
=====================================================================
 Subroutine PRICEL returns:
 Original cell was already a primitive cell.
 

 Routine SETGRP: Setting up the symmetry group for a 
 face centered cubic supercell.


 Subroutine GETGRP returns: Found 48 space group operations
 (whereof 48 operations were pure point group operations)
 out of a pool of 48 trial point group operations.


The dynamic configuration has the point symmetry O_h .


Analysis of structural, dynamic, and magnetic symmetry:
=====================================================================
 Subroutine PRICEL returns:
 Original cell was already a primitive cell.
 

 Routine SETGRP: Setting up the symmetry group for a 
 face centered cubic supercell.


 Subroutine GETGRP returns: Found 48 space group operations
 (whereof 48 operations were pure point group operations)
 out of a pool of 48 trial point group operations.


The magnetic configuration has the point symmetry O_h .


 Subroutine INISYM returns: Found 48 space group operations
 (whereof 48 operations are pure point group operations),
 and found     1 'primitive' translations


----------------------------------------------------------------------------------------

                                     Primitive cell                                     

  volume of cell :      16.4717

  direct lattice vectors                    reciprocal lattice vectors
     2.473329000  0.000000000  1.427977000     0.404313377 -0.142946362  0.000000000
     0.824443000  2.331877000  1.427977000     0.000000000  0.428839085  0.000000000
     0.000000000  0.000000000  2.855955000    -0.202156618 -0.142946312  0.350145573

  length of vectors
     2.855954246  2.855954292  2.855955000     0.428839095  0.428839085  0.428838977

  position of ions in fractional coordinates (direct lattice)
     0.000000000  0.000000000  0.000000000

  ion indices of the primitive-cell ions
   primitive index   ion index
                 1           1

----------------------------------------------------------------------------------------

 
 

Automatic generation of k-mesh.
 generate k-points for:   13   13   13
Space group operators:
 irot       det(A)        alpha          n_x          n_y          n_z        tau_x        tau_y        tau_z
    1     1.000000     0.000000     1.000000     0.000000     0.000000     0.000000     0.000000     0.000000
    2    -1.000000     0.000000     1.000000     0.000000     0.000000     0.000000     0.000000     0.000000
    3     1.000000   120.000000    -0.471405    -0.333333    -0.816497     0.000000     0.000000     0.000000
    4    -1.000000   120.000000    -0.471405    -0.333333    -0.816497     0.000000     0.000000     0.000000
    5     1.000000   120.000000     0.471404     0.333334     0.816497     0.000000     0.000000     0.000000
    6    -1.000000   120.000000     0.471404     0.333334     0.816497     0.000000     0.000000     0.000000
    7     1.000000    90.000000    -0.816497    -0.577350     0.000000     0.000000     0.000000     0.000000
    8    -1.000000    90.000000    -0.816497    -0.577350     0.000000     0.000000     0.000000     0.000000
    9     1.000000   180.000000     0.866025     0.000000     0.500000     0.000000     0.000000     0.000000
   10    -1.000000   180.000000     0.866025     0.000000     0.500000     0.000000     0.000000     0.000000
   11     1.000000    90.000000     0.408248    -0.577350     0.707107     0.000000     0.000000     0.000000
   12    -1.000000    90.000000     0.408248    -0.577350     0.707107     0.000000     0.000000     0.000000
   13     1.000000   180.000000     0.816497     0.577350     0.000000     0.000000     0.000000     0.000000
   14    -1.000000   180.000000     0.816497     0.577350     0.000000     0.000000     0.000000     0.000000
   15     1.000000   120.000000     0.942809    -0.333333    -0.000000     0.000000     0.000000     0.000000
   16    -1.000000   120.000000     0.942809    -0.333333    -0.000000     0.000000     0.000000     0.000000
   17     1.000000   120.000000     0.000000    -1.000000     0.000000     0.000000     0.000000     0.000000
   18    -1.000000   120.000000     0.000000    -1.000000     0.000000     0.000000     0.000000     0.000000
   19     1.000000    90.000000     0.816497     0.577350    -0.000000     0.000000     0.000000     0.000000
   20    -1.000000    90.000000     0.816497     0.577350    -0.000000     0.000000     0.000000     0.000000
   21     1.000000    90.000000     0.408248    -0.577350    -0.707107     0.000000     0.000000     0.000000
   22    -1.000000    90.000000     0.408248    -0.577350    -0.707107     0.000000     0.000000     0.000000
   23     1.000000   180.000000     0.288675     0.816497     0.500000     0.000000     0.000000     0.000000
   24    -1.000000   180.000000     0.288675     0.816497     0.500000     0.000000     0.000000     0.000000
   25     1.000000   120.000000     0.000000     1.000000    -0.000000     0.000000     0.000000     0.000000
   26    -1.000000   120.000000     0.000000     1.000000    -0.000000     0.000000     0.000000     0.000000
   27     1.000000   120.000000     0.471404     0.333333    -0.816497     0.000000     0.000000     0.000000
   28    -1.000000   120.000000     0.471404     0.333333    -0.816497     0.000000     0.000000     0.000000
   29     1.000000   180.000000    -0.408248     0.577350     0.707107     0.000000     0.000000     0.000000
   30    -1.000000   180.000000    -0.408248     0.577350     0.707107     0.000000     0.000000     0.000000
   31     1.000000    90.000000    -0.408248     0.577350    -0.707107     0.000000     0.000000     0.000000
   32    -1.000000    90.000000    -0.408248     0.577350    -0.707107     0.000000     0.000000     0.000000
   33     1.000000   179.999999     0.000000     0.000000     1.000000     0.000000     0.000000     0.000000
   34    -1.000000   179.999999     0.000000     0.000000     1.000000     0.000000     0.000000     0.000000
   35     1.000000    90.000000    -0.408248     0.577350     0.707107     0.000000     0.000000     0.000000
   36    -1.000000    90.000000    -0.408248     0.577350     0.707107     0.000000     0.000000     0.000000
   37     1.000000   120.000000    -0.942809     0.333333     0.000000     0.000000     0.000000     0.000000
   38    -1.000000   120.000000    -0.942809     0.333333     0.000000     0.000000     0.000000     0.000000
   39     1.000000   180.000000    -0.408248     0.577350    -0.707107     0.000000     0.000000     0.000000
   40    -1.000000   180.000000    -0.408248     0.577350    -0.707107     0.000000     0.000000     0.000000
   41     1.000000   120.000000    -0.471404    -0.333333     0.816497     0.000000     0.000000     0.000000
   42    -1.000000   120.000000    -0.471404    -0.333333     0.816497     0.000000     0.000000     0.000000
   43     1.000000   180.000000     0.288675     0.816497    -0.500000     0.000000     0.000000     0.000000
   44    -1.000000   180.000000     0.288675     0.816497    -0.500000     0.000000     0.000000     0.000000
   45     1.000000   180.000000     0.577350    -0.816497     0.000000     0.000000     0.000000     0.000000
   46    -1.000000   180.000000     0.577350    -0.816497     0.000000     0.000000     0.000000     0.000000
   47     1.000000   180.000000     0.866025    -0.000000    -0.500000     0.000000     0.000000     0.000000
   48    -1.000000   180.000000     0.866025    -0.000000    -0.500000     0.000000     0.000000     0.000000
 
 Subroutine IBZKPT returns following result:
 ===========================================
 
 Found     84 irreducible k-points:
 
 Following reciprocal coordinates:
            Coordinates               Weight
  0.000000  0.000000  0.000000      1.000000
  0.076923 -0.000000  0.000000      8.000000
  0.153846  0.000000  0.000000      8.000000
  0.230769  0.000000  0.000000      8.000000
  0.307692  0.000000  0.000000      8.000000
  0.384615  0.000000  0.000000      8.000000
  0.461538  0.000000  0.000000      8.000000
  0.076923  0.076923  0.000000      6.000000
  0.153846  0.076923  0.000000     24.000000
  0.230769  0.076923  0.000000     24.000000
  0.307692  0.076923  0.000000     24.000000
  0.384615  0.076923  0.000000     24.000000
  0.461538  0.076923  0.000000     24.000000
 -0.461538  0.076923  0.000000     24.000000
 -0.384615  0.076923  0.000000     24.000000
 -0.307692  0.076923  0.000000     24.000000
 -0.230769  0.076923  0.000000     24.000000
 -0.153846  0.076923  0.000000     24.000000
 -0.076923  0.076923  0.000000     12.000000
  0.153846  0.153846  0.000000      6.000000
  0.230769  0.153846  0.000000     24.000000
  0.307692  0.153846  0.000000     24.000000
  0.384615  0.153846  0.000000     24.000000
  0.461538  0.153846  0.000000     24.000000
 -0.461538  0.153846  0.000000     24.000000
 -0.384615  0.153846  0.000000     24.000000
 -0.307692  0.153846  0.000000     24.000000
 -0.230769  0.153846  0.000000     24.000000
 -0.153846  0.153846  0.000000     12.000000
  0.230769  0.230769  0.000000      6.000000
  0.307692  0.230769  0.000000     24.000000
  0.384615  0.230769  0.000000     24.000000
  0.461538  0.230769  0.000000     24.000000
 -0.461538  0.230769  0.000000     24.000000
 -0.384615  0.230769  0.000000     24.000000
 -0.307692  0.230769  0.000000     24.000000
 -0.230769  0.230769  0.000000     12.000000
  0.307692  0.307692  0.000000      6.000000
  0.384615  0.307692  0.000000     24.000000
  0.461538  0.307692  0.000000     24.000000
 -0.461538  0.307692  0.000000     24.000000
 -0.384615  0.307692  0.000000     24.000000
 -0.307692  0.307692  0.000000     12.000000
  0.384615  0.384615  0.000000      6.000000
  0.461538  0.384615  0.000000     24.000000
 -0.461538  0.384615  0.000000     24.000000
 -0.384615  0.384615  0.000000     12.000000
  0.461538  0.461538  0.000000      6.000000
 -0.461538  0.461538  0.000000     12.000000
  0.230769  0.153846  0.076923     24.000000
  0.307692  0.153846  0.076923     48.000000
  0.384615  0.153846  0.076923     48.000000
  0.461538  0.153846  0.076923     48.000000
 -0.461538  0.153846  0.076923     48.000000
  0.307692  0.230769  0.076923     24.000000
  0.384615  0.230769  0.076923     48.000000
  0.461538  0.230769  0.076923     48.000000
 -0.461538  0.230769  0.076923     48.000000
 -0.384615  0.230769  0.076923     48.000000
 -0.307692  0.230769  0.076923     48.000000
 -0.230769  0.230769  0.076923     48.000000
 -0.153846  0.230769  0.076923     24.000000
  0.384615  0.307692  0.076923     24.000000
  0.461538  0.307692  0.076923     48.000000
 -0.461538  0.307692  0.076923     48.000000
 -0.384615  0.307692  0.076923     48.000000
 -0.307692  0.307692  0.076923     48.000000
 -0.230769  0.307692  0.076923     24.000000
  0.461538  0.384615  0.076923     24.000000
 -0.461538  0.384615  0.076923     48.000000
 -0.384615  0.384615  0.076923     48.000000
 -0.307692  0.384615  0.076923     24.000000
 -0.461538  0.461538  0.076923     24.000000
 -0.384615  0.461538  0.076923     24.000000
  0.461538  0.307692  0.153846     24.000000
 -0.461538  0.307692  0.153846     48.000000
 -0.384615  0.307692  0.153846     48.000000
 -0.461538  0.384615  0.153846     24.000000
 -0.384615  0.384615  0.153846     48.000000
 -0.307692  0.384615  0.153846     48.000000
 -0.230769  0.384615  0.153846     24.000000
 -0.384615  0.461538  0.153846     24.000000
 -0.307692  0.461538  0.153846     24.000000
 -0.307692  0.461538  0.230769     24.000000
 
 Following cartesian coordinates:
            Coordinates               Weight
  0.000000  0.000000  0.000000      1.000000
  0.031101 -0.010996  0.000000      8.000000
  0.062202 -0.021992  0.000000      8.000000
  0.093303 -0.032988  0.000000      8.000000
  0.124404 -0.043983  0.000000      8.000000
  0.155505 -0.054979  0.000000      8.000000
  0.186606 -0.065975  0.000000      8.000000
  0.031101  0.021992  0.000000      6.000000
  0.062202  0.010996  0.000000     24.000000
  0.093303  0.000000  0.000000     24.000000
  0.124404 -0.010996  0.000000     24.000000
  0.155505 -0.021992  0.000000     24.000000
  0.186606 -0.032988  0.000000     24.000000
 -0.186606  0.098963  0.000000     24.000000
 -0.155505  0.087967  0.000000     24.000000
 -0.124404  0.076971  0.000000     24.000000
 -0.093303  0.065975  0.000000     24.000000
 -0.062202  0.054979  0.000000     24.000000
 -0.031101  0.043983  0.000000     12.000000
  0.062202  0.043983  0.000000      6.000000
  0.093303  0.032988  0.000000     24.000000
  0.124404  0.021992  0.000000     24.000000
  0.155505  0.010996  0.000000     24.000000
  0.186606  0.000000  0.000000     24.000000
 -0.186606  0.131950  0.000000     24.000000
 -0.155505  0.120955  0.000000     24.000000
 -0.124404  0.109959  0.000000     24.000000
 -0.093303  0.098963  0.000000     24.000000
 -0.062202  0.087967  0.000000     12.000000
  0.093303  0.065975  0.000000      6.000000
  0.124404  0.054979  0.000000     24.000000
  0.155505  0.043983  0.000000     24.000000
  0.186606  0.032988  0.000000     24.000000
 -0.186606  0.164938  0.000000     24.000000
 -0.155505  0.153942  0.000000     24.000000
 -0.124404  0.142946  0.000000     24.000000
 -0.093303  0.131950  0.000000     12.000000
  0.124404  0.087967  0.000000      6.000000
  0.155505  0.076971  0.000000     24.000000
  0.186606  0.065975  0.000000     24.000000
 -0.186606  0.197926  0.000000     24.000000
 -0.155505  0.186930  0.000000     24.000000
 -0.124404  0.175934  0.000000     12.000000
  0.155505  0.109959  0.000000      6.000000
  0.186606  0.098963  0.000000     24.000000
 -0.186606  0.230913  0.000000     24.000000
 -0.155505  0.219917  0.000000     12.000000
  0.186606  0.131950  0.000000      6.000000
 -0.186606  0.263901  0.000000     12.000000
  0.077753  0.021992  0.026934     24.000000
  0.108854  0.010996  0.026934     48.000000
  0.139955  0.000000  0.026934     48.000000
  0.171056 -0.010996  0.026934     48.000000
 -0.202157  0.120955  0.026934     48.000000
  0.108854  0.043983  0.026934     24.000000
  0.139955  0.032988  0.026934     48.000000
  0.171056  0.021992  0.026934     48.000000
 -0.202157  0.153942  0.026934     48.000000
 -0.171056  0.142946  0.026934     48.000000
 -0.139955  0.131950  0.026934     48.000000
 -0.108854  0.120955  0.026934     48.000000
 -0.077753  0.109959  0.026934     24.000000
  0.139955  0.065975  0.026934     24.000000
  0.171056  0.054979  0.026934     48.000000
 -0.202157  0.186930  0.026934     48.000000
 -0.171056  0.175934  0.026934     48.000000
 -0.139955  0.164938  0.026934     48.000000
 -0.108854  0.153942  0.026934     24.000000
  0.171056  0.087967  0.026934     24.000000
 -0.202157  0.219917  0.026934     48.000000
 -0.171056  0.208922  0.026934     48.000000
 -0.139955  0.197926  0.026934     24.000000
 -0.202157  0.252905  0.026934     24.000000
 -0.171056  0.241909  0.026934     24.000000
  0.155505  0.043984  0.053869     24.000000
 -0.217707  0.175934  0.053869     48.000000
 -0.186606  0.164938  0.053869     48.000000
 -0.217707  0.208922  0.053869     24.000000
 -0.186606  0.197926  0.053869     48.000000
 -0.155505  0.186930  0.053869     48.000000
 -0.124404  0.175934  0.053869     24.000000
 -0.186606  0.230913  0.053869     24.000000
 -0.155505  0.219917  0.053869     24.000000
 -0.171056  0.208922  0.080803     24.000000
 


--------------------------------------------------------------------------------------------------------




 Dimension of arrays:
   k-points           NKPTS =     84   k-points in BZ     NKDIM =     84   number of bands    NBANDS=     32
   number of dos      NEDOS =    301   number of ions     NIONS =      1
   non local maximal  LDIM  =      4   non local SUM 2l+1 LMDIM =      8
   total plane-waves  NPLWV =  13824
   max r-space proj   IRMAX =      1   max aug-charges    IRDMAX= 261478
   dimension x,y,z NGX =    24 NGY =   24 NGZ =   24
   dimension x,y,z NGXF=    48 NGYF=   48 NGZF=   48
   support grid    NGXF=    96 NGYF=   96 NGZF=   96
   ions per type =               1
   NGX,Y,Z   is equivalent  to a cutoff of  13.97, 13.97, 13.97 a.u.
   NGXF,Y,Z  is equivalent  to a cutoff of  27.94, 27.94, 27.94 a.u.

 SYSTEM =  unknown system                          
 POSCAR =  Al1                                     

 Startparameter for this run:
   NWRITE =      2    write-flag & timer
   PREC   = accura    normal or accurate (medium, high low for compatibility)
   ISTART =      0    job   : 0-new  1-cont  2-samecut
   ICHARG =      2    charge: 1-file 2-atom 10-const
   ISPIN  =      2    spin polarized calculation?
   LNONCOLLINEAR =      F non collinear calculations
   LSORBIT =      F    spin-orbit coupling
   INIWAV =      1    electr: 0-lowe 1-rand  2-diag
   LASPH  =      T    aspherical Exc in radial PAW
   METAGGA=      F    non-selfconsistent MetaGGA calc.

 Electronic Relaxation 1
   ENCUT  =  680.0 eV  49.98 Ry    7.07 a.u.   6.07  6.07  6.07*2*pi/ulx,y,z
   ENINI  =  680.0     initial cutoff
   ENAUG  =  291.1 eV  augmentation charge cutoff
   NELM   =    200;   NELMIN=  2; NELMDL= -5     # of ELM steps 
   EDIFF  = 0.1E-04   stopping-criterion for ELM
   LREAL  =      F    real-space projection
   NLSPLINE    = F    spline interpolate recip. space projectors
   LCOMPAT=      F    compatible to vasp.4.4
   GGA_COMPAT  = T    GGA compatible to vasp.4.4-vasp.4.6
   LMAXPAW     = -100 max onsite density
   LMAXMIX     =    2 max onsite mixed and CHGCAR
   VOSKOWN=      0    Vosko Wilk Nusair interpolation
   ROPT   =    0.00000
 Ionic relaxation
   EDIFFG = -.5E-01   stopping-criterion for IOM
   NSW    =     99    number of steps for IOM
   NBLOCK =      1;   KBLOCK =     99    inner block; outer block 
   IBRION =      2    ionic relax: 0-MD 1-quasi-New 2-CG
   NFREE  =      1    steps in history (QN), initial steepest desc. (CG)
   ISIF   =      3    stress and relaxation
   IWAVPR =     11    prediction:  0-non 1-charg 2-wave 3-comb
   ISYM   =      2    0-nonsym 1-usesym 2-fastsym
   LCORR  =      T    Harris-Foulkes like correction to forces

   POTIM  = 0.5000    time-step for ionic-motion
   TEIN   =    0.0    initial temperature
   TEBEG  =    0.0;   TEEND  =   0.0 temperature during run
   SMASS  =  -3.00    Nose mass-parameter (am)
   estimated Nose-frequenzy (Omega)   =  0.10E-29 period in steps = 0.13E+47 mass=  -0.186E-27a.u.
   SCALEE = 1.0000    scale energy and forces
   NPACO  =    256;   APACO  = 16.0  distance and # of slots for P.C.
   PSTRESS=    0.0 pullay stress

  Mass of Ions in am
   POMASS =  26.98
  Ionic Valenz
   ZVAL   =   3.00
  Atomic Wigner-Seitz radii
   RWIGS  =  -1.00
  virtual crystal weights 
   VCA    =   1.00
   NELECT =       3.0000    total number of electrons
   NUPDOWN=      -1.0000    fix difference up-down

 DOS related values:
   EMIN   =  10.00;   EMAX   =-10.00  energy-range for DOS
   EFERMI =   0.00
   ISMEAR =     2;   SIGMA  =   0.20  broadening in eV -4-tet -1-fermi 0-gaus

 Electronic relaxation 2 (details)
   IALGO  =     58    algorithm
   LDIAG  =      T    sub-space diagonalisation (order eigenvalues)
   LSUBROT=      F    optimize rotation matrix (better conditioning)
   TURBO    =      0    0=normal 1=particle mesh
   IRESTART =      0    0=no restart 2=restart with 2 vectors
   NREBOOT  =      0    no. of reboots
   NMIN     =      0    reboot dimension
   EREF     =   0.00    reference energy to select bands
   IMIX   =      4    mixing-type and parameters
     AMIX     =   0.40;   BMIX     =  1.00
     AMIX_MAG =   1.60;   BMIX_MAG =  1.00
     AMIN     =   0.10
     WC   =   100.;   INIMIX=   1;  MIXPRE=   1;  MAXMIX= -45

 Intra band minimization:
   WEIMIN = 0.0010     energy-eigenvalue tresh-hold
   EBREAK =  0.78E-07  absolut break condition
   DEPER  =   0.30     relativ break condition  

   TIME   =   0.40     timestep for ELM

  volume/ion in A,a.u.               =      16.47       111.16
  Fermi-wavevector in a.u.,A,eV,Ry     =   0.927974  1.753616 11.716453  0.861135
  Thomas-Fermi vector in A             =   2.054101
 
 Write flags
   LWAVE        =      T    write WAVECAR
   LDOWNSAMPLE  =      F    k-point downsampling of WAVECAR
   LCHARG       =      T    write CHGCAR
   LVTOT        =      T    write LOCPOT, total local potential
   LVHAR        =      F    write LOCPOT, Hartree potential only
   LELF         =      T    write electronic localiz. function (ELF)
   LORBIT       =     11    0 simple, 1 ext, 2 COOP (PROOUT), +10 PAW based schemes


 Dipole corrections
   LMONO  =      F    monopole corrections only (constant potential shift)
   LDIPOL =      F    correct potential (dipole corrections)
   IDIPOL =      0    1-x, 2-y, 3-z, 4-all directions 
   EPSILON=  1.0000000 bulk dielectric constant

 Exchange correlation treatment:
   GGA     =    --    GGA type
   LEXCH   =     8    internal setting for exchange type
   VOSKOWN=      0    Vosko Wilk Nusair interpolation
   LHFCALC =     F    Hartree Fock is set to
   LHFONE  =     F    Hartree Fock one center treatment
   AEXX    =    0.0000 exact exchange contribution

 Linear response parameters
   LEPSILON=     F    determine dielectric tensor
   LRPA    =     F    only Hartree local field effects (RPA)
   LNABLA  =     F    use nabla operator in PAW spheres
   LVEL    =     F    velocity operator in full k-point grid
   LINTERFAST=   F  fast interpolation
   KINTER  =     0    interpolate to denser k-point grid
   CSHIFT  =0.1000    complex shift for real part using Kramers Kronig
   OMEGAMAX=  -1.0    maximum frequency
   DEG_THRESHOLD= 0.2000000E-02 threshold for treating states as degnerate
   RTIME   =   -0.100 relaxation time in fs
  (WPLASMAI=    0.000 imaginary part of plasma frequency in eV, 0.658/RTIME)
   DFIELD  = 0.0000000 0.0000000 0.0000000 field for delta impulse in time
 
 Orbital magnetization related:
   ORBITALMAG=     F  switch on orbital magnetization
   LCHIMAG   =     F  perturbation theory with respect to B field
   DQ        =  0.001000  dq finite difference perturbation B field
   LLRAUG    =     F  two centre corrections for induced B field



--------------------------------------------------------------------------------------------------------


 conjugate gradient relaxation of ions
 charge density and potential will be updated during run
 spin polarized calculation
 Conjugate gradient for all bands (Freysoldt, et al. PRB 79, 241103 (2009))
 preconditioned conjugated gradient                                        
 perform sub-space diagonalisation
    before iterative eigenvector-optimisation
 modified Broyden-mixing scheme, WC =      100.0
 initial mixing is a Kerker type mixing with AMIX =  0.4000 and BMIX =      1.0000
 Hartree-type preconditioning will be used
 using additional bands           30
 reciprocal scheme for non local part
 use partial core corrections
 no Harris-corrections to forces 
 use gradient corrections 
 use of overlap-Matrix (Vanderbilt PP)
 Methfessel and Paxton  Order N= 2 SIGMA  =   0.20


--------------------------------------------------------------------------------------------------------


  energy-cutoff  :      680.00
  volume of cell :       16.47
      direct lattice vectors                 reciprocal lattice vectors
     2.473329000  0.000000000  1.427977000     0.404313377 -0.142946362  0.000000000
     0.824443000  2.331877000  1.427977000     0.000000000  0.428839085  0.000000000
     0.000000000  0.000000000  2.855955000    -0.202156618 -0.142946312  0.350145573

  length of vectors
     2.855954246  2.855954292  2.855955000     0.428839095  0.428839085  0.428838977


 
 k-points in units of 2pi/SCALE and weight: read from INCAR                         
   0.00000000  0.00000000  0.00000000       0.000
   0.03110103 -0.01099587  0.00000000       0.004
   0.06220206 -0.02199175  0.00000000       0.004
   0.09330309 -0.03298762  0.00000000       0.004
   0.12440412 -0.04398350  0.00000000       0.004
   0.15550514 -0.05497937  0.00000000       0.004
   0.18660617 -0.06597524  0.00000000       0.004
   0.03110103  0.02199175  0.00000000       0.003
   0.06220206  0.01099587  0.00000000       0.011
   0.09330309  0.00000000  0.00000000       0.011
   0.12440412 -0.01099587  0.00000000       0.011
   0.15550514 -0.02199175  0.00000000       0.011
   0.18660617 -0.03298762  0.00000000       0.011
  -0.18660617  0.09896287  0.00000000       0.011
  -0.15550514  0.08796699  0.00000000       0.011
  -0.12440412  0.07697112  0.00000000       0.011
  -0.09330309  0.06597524  0.00000000       0.011
  -0.06220206  0.05497937  0.00000000       0.011
  -0.03110103  0.04398350  0.00000000       0.005
   0.06220206  0.04398350  0.00000000       0.003
   0.09330309  0.03298762  0.00000000       0.011
   0.12440412  0.02199175  0.00000000       0.011
   0.15550514  0.01099587  0.00000000       0.011
   0.18660617  0.00000000  0.00000000       0.011
  -0.18660617  0.13195049  0.00000000       0.011
  -0.15550514  0.12095461  0.00000000       0.011
  -0.12440412  0.10995874  0.00000000       0.011
  -0.09330309  0.09896287  0.00000000       0.011
  -0.06220206  0.08796699  0.00000000       0.005
   0.09330309  0.06597524  0.00000000       0.003
   0.12440412  0.05497937  0.00000000       0.011
   0.15550514  0.04398350  0.00000000       0.011
   0.18660617  0.03298762  0.00000000       0.011
  -0.18660617  0.16493811  0.00000000       0.011
  -0.15550514  0.15394224  0.00000000       0.011
  -0.12440412  0.14294636  0.00000000       0.011
  -0.09330309  0.13195049  0.00000000       0.005
   0.12440412  0.08796699  0.00000000       0.003
   0.15550514  0.07697112  0.00000000       0.011
   0.18660617  0.06597524  0.00000000       0.011
  -0.18660617  0.19792573  0.00000000       0.011
  -0.15550514  0.18692986  0.00000000       0.011
  -0.12440412  0.17593398  0.00000000       0.005
   0.15550514  0.10995874  0.00000000       0.003
   0.18660617  0.09896287  0.00000000       0.011
  -0.18660617  0.23091335  0.00000000       0.011
  -0.15550514  0.21991748  0.00000000       0.005
   0.18660617  0.13195049  0.00000000       0.003
  -0.18660617  0.26390098  0.00000000       0.005
   0.07775258  0.02199175  0.02693427       0.011
   0.10885361  0.01099588  0.02693427       0.022
   0.13995464  0.00000000  0.02693427       0.022
   0.17105566 -0.01099587  0.02693427       0.022
  -0.20215668  0.12095462  0.02693427       0.022
   0.10885361  0.04398350  0.02693427       0.011
   0.13995464  0.03298763  0.02693427       0.022
   0.17105566  0.02199175  0.02693427       0.022
  -0.20215668  0.15394224  0.02693427       0.022
  -0.17105565  0.14294637  0.02693427       0.022
  -0.13995462  0.13195049  0.02693427       0.022
  -0.10885360  0.12095462  0.02693427       0.022
  -0.07775257  0.10995874  0.02693427       0.011
   0.13995464  0.06597525  0.02693427       0.011
   0.17105566  0.05497937  0.02693427       0.022
  -0.20215668  0.18692986  0.02693427       0.022
  -0.17105565  0.17593399  0.02693427       0.022
  -0.13995462  0.16493811  0.02693427       0.022
  -0.10885360  0.15394224  0.02693427       0.011
   0.17105566  0.08796700  0.02693427       0.011
  -0.20215668  0.21991748  0.02693427       0.022
  -0.17105565  0.20892161  0.02693427       0.022
  -0.13995462  0.19792574  0.02693427       0.011
  -0.20215668  0.25290511  0.02693427       0.011
  -0.17105565  0.24190923  0.02693427       0.011
   0.15550516  0.04398350  0.05386855       0.011
  -0.21770719  0.17593399  0.05386855       0.022
  -0.18660616  0.16493812  0.05386855       0.022
  -0.21770719  0.20892161  0.05386855       0.011
  -0.18660616  0.19792574  0.05386855       0.022
  -0.15550513  0.18692987  0.05386855       0.022
  -0.12440411  0.17593399  0.05386855       0.011
  -0.18660616  0.23091336  0.05386855       0.011
  -0.15550513  0.21991749  0.05386855       0.011
  -0.17105564  0.20892162  0.08080282       0.011
 
 k-points in reciprocal lattice and weights: read from INCAR                         
   0.00000000  0.00000000  0.00000000       0.000
   0.07692308 -0.00000000  0.00000000       0.004
   0.15384615  0.00000000  0.00000000       0.004
   0.23076923  0.00000000  0.00000000       0.004
   0.30769231  0.00000000  0.00000000       0.004
   0.38461538  0.00000000  0.00000000       0.004
   0.46153846  0.00000000  0.00000000       0.004
   0.07692308  0.07692308  0.00000000       0.003
   0.15384615  0.07692308  0.00000000       0.011
   0.23076923  0.07692308  0.00000000       0.011
   0.30769231  0.07692308  0.00000000       0.011
   0.38461538  0.07692308  0.00000000       0.011
   0.46153846  0.07692308  0.00000000       0.011
  -0.46153846  0.07692308  0.00000000       0.011
  -0.38461538  0.07692308  0.00000000       0.011
  -0.30769231  0.07692308  0.00000000       0.011
  -0.23076923  0.07692308  0.00000000       0.011
  -0.15384615  0.07692308  0.00000000       0.011
  -0.07692308  0.07692308  0.00000000       0.005
   0.15384615  0.15384615  0.00000000       0.003
   0.23076923  0.15384615  0.00000000       0.011
   0.30769231  0.15384615  0.00000000       0.011
   0.38461538  0.15384615  0.00000000       0.011
   0.46153846  0.15384615  0.00000000       0.011
  -0.46153846  0.15384615  0.00000000       0.011
  -0.38461538  0.15384615  0.00000000       0.011
  -0.30769231  0.15384615  0.00000000       0.011
  -0.23076923  0.15384615  0.00000000       0.011
  -0.15384615  0.15384615  0.00000000       0.005
   0.23076923  0.23076923  0.00000000       0.003
   0.30769231  0.23076923  0.00000000       0.011
   0.38461538  0.23076923  0.00000000       0.011
   0.46153846  0.23076923  0.00000000       0.011
  -0.46153846  0.23076923  0.00000000       0.011
  -0.38461538  0.23076923  0.00000000       0.011
  -0.30769231  0.23076923  0.00000000       0.011
  -0.23076923  0.23076923  0.00000000       0.005
   0.30769231  0.30769231  0.00000000       0.003
   0.38461538  0.30769231  0.00000000       0.011
   0.46153846  0.30769231  0.00000000       0.011
  -0.46153846  0.30769231  0.00000000       0.011
  -0.38461538  0.30769231  0.00000000       0.011
  -0.30769231  0.30769231  0.00000000       0.005
   0.38461538  0.38461538  0.00000000       0.003
   0.46153846  0.38461538  0.00000000       0.011
  -0.46153846  0.38461538  0.00000000       0.011
  -0.38461538  0.38461538  0.00000000       0.005
   0.46153846  0.46153846  0.00000000       0.003
  -0.46153846  0.46153846  0.00000000       0.005
   0.23076923  0.15384615  0.07692308       0.011
   0.30769231  0.15384615  0.07692308       0.022
   0.38461538  0.15384615  0.07692308       0.022
   0.46153846  0.15384615  0.07692308       0.022
  -0.46153846  0.15384615  0.07692308       0.022
   0.30769231  0.23076923  0.07692308       0.011
   0.38461538  0.23076923  0.07692308       0.022
   0.46153846  0.23076923  0.07692308       0.022
  -0.46153846  0.23076923  0.07692308       0.022
  -0.38461538  0.23076923  0.07692308       0.022
  -0.30769231  0.23076923  0.07692308       0.022
  -0.23076923  0.23076923  0.07692308       0.022
  -0.15384615  0.23076923  0.07692308       0.011
   0.38461538  0.30769231  0.07692308       0.011
   0.46153846  0.30769231  0.07692308       0.022
  -0.46153846  0.30769231  0.07692308       0.022
  -0.38461538  0.30769231  0.07692308       0.022
  -0.30769231  0.30769231  0.07692308       0.022
  -0.23076923  0.30769231  0.07692308       0.011
   0.46153846  0.38461538  0.07692308       0.011
  -0.46153846  0.38461538  0.07692308       0.022
  -0.38461538  0.38461538  0.07692308       0.022
  -0.30769231  0.38461538  0.07692308       0.011
  -0.46153846  0.46153846  0.07692308       0.011
  -0.38461538  0.46153846  0.07692308       0.011
   0.46153846  0.30769231  0.15384615       0.011
  -0.46153846  0.30769231  0.15384615       0.022
  -0.38461538  0.30769231  0.15384615       0.022
  -0.46153846  0.38461538  0.15384615       0.011
  -0.38461538  0.38461538  0.15384615       0.022
  -0.30769231  0.38461538  0.15384615       0.022
  -0.23076923  0.38461538  0.15384615       0.011
  -0.38461538  0.46153846  0.15384615       0.011
  -0.30769231  0.46153846  0.15384615       0.011
  -0.30769231  0.46153846  0.23076923       0.011
 
 position of ions in fractional coordinates (direct lattice) 
   0.00000000  0.00000000  0.00000000
 
 position of ions in cartesian coordinates  (Angst):
   0.00000000  0.00000000  0.00000000
 


--------------------------------------------------------------------------------------------------------


 k-point  1 :   0.0000 0.0000 0.0000  plane waves:     645
 k-point  2 :   0.0769-0.0000 0.0000  plane waves:     652
 k-point  3 :   0.1538 0.0000 0.0000  plane waves:     655
 k-point  4 :   0.2308 0.0000 0.0000  plane waves:     649
 k-point  5 :   0.3077 0.0000 0.0000  plane waves:     652
 k-point  6 :   0.3846 0.0000 0.0000  plane waves:     664
 k-point  7 :   0.4615 0.0000 0.0000  plane waves:     649
 k-point  8 :   0.0769 0.0769 0.0000  plane waves:     657
 k-point  9 :   0.1538 0.0769 0.0000  plane waves:     658
 k-point 10 :   0.2308 0.0769 0.0000  plane waves:     656
 k-point 11 :   0.3077 0.0769 0.0000  plane waves:     655
 k-point 12 :   0.3846 0.0769 0.0000  plane waves:     653
 k-point 13 :   0.4615 0.0769 0.0000  plane waves:     655
 k-point 14 :  -0.4615 0.0769 0.0000  plane waves:     663
 k-point 15 :  -0.3846 0.0769 0.0000  plane waves:     656
 k-point 16 :  -0.3077 0.0769 0.0000  plane waves:     657
 k-point 17 :  -0.2308 0.0769 0.0000  plane waves:     654
 k-point 18 :  -0.1538 0.0769 0.0000  plane waves:     659
 k-point 19 :  -0.0769 0.0769 0.0000  plane waves:     656
 k-point 20 :   0.1538 0.1538 0.0000  plane waves:     665
 k-point 21 :   0.2308 0.1538 0.0000  plane waves:     660
 k-point 22 :   0.3077 0.1538 0.0000  plane waves:     659
 k-point 23 :   0.3846 0.1538 0.0000  plane waves:     664
 k-point 24 :   0.4615 0.1538 0.0000  plane waves:     664
 k-point 25 :  -0.4615 0.1538 0.0000  plane waves:     666
 k-point 26 :  -0.3846 0.1538 0.0000  plane waves:     664
 k-point 27 :  -0.3077 0.1538 0.0000  plane waves:     652
 k-point 28 :  -0.2308 0.1538 0.0000  plane waves:     653
 k-point 29 :  -0.1538 0.1538 0.0000  plane waves:     658
 k-point 30 :   0.2308 0.2308 0.0000  plane waves:     653
 k-point 31 :   0.3077 0.2308 0.0000  plane waves:     657
 k-point 32 :   0.3846 0.2308 0.0000  plane waves:     663
 k-point 33 :   0.4615 0.2308 0.0000  plane waves:     665
 k-point 34 :  -0.4615 0.2308 0.0000  plane waves:     675
 k-point 35 :  -0.3846 0.2308 0.0000  plane waves:     676
 k-point 36 :  -0.3077 0.2308 0.0000  plane waves:     669
 k-point 37 :  -0.2308 0.2308 0.0000  plane waves:     662
 k-point 38 :   0.3077 0.3077 0.0000  plane waves:     652
 k-point 39 :   0.3846 0.3077 0.0000  plane waves:     666
 k-point 40 :   0.4615 0.3077 0.0000  plane waves:     668
 k-point 41 :  -0.4615 0.3077 0.0000  plane waves:     672
 k-point 42 :  -0.3846 0.3077 0.0000  plane waves:     671
 k-point 43 :  -0.3077 0.3077 0.0000  plane waves:     670
 k-point 44 :   0.3846 0.3846 0.0000  plane waves:     664
 k-point 45 :   0.4615 0.3846 0.0000  plane waves:     668
 k-point 46 :  -0.4615 0.3846 0.0000  plane waves:     668
 k-point 47 :  -0.3846 0.3846 0.0000  plane waves:     674
 k-point 48 :   0.4615 0.4615 0.0000  plane waves:     668
 k-point 49 :  -0.4615 0.4615 0.0000  plane waves:     666
 k-point 50 :   0.2308 0.1538 0.0769  plane waves:     663
 k-point 51 :   0.3077 0.1538 0.0769  plane waves:     656
 k-point 52 :   0.3846 0.1538 0.0769  plane waves:     651
 k-point 53 :   0.4615 0.1538 0.0769  plane waves:     661
 k-point 54 :  -0.4615 0.1538 0.0769  plane waves:     665
 k-point 55 :   0.3077 0.2308 0.0769  plane waves:     658
 k-point 56 :   0.3846 0.2308 0.0769  plane waves:     661
 k-point 57 :   0.4615 0.2308 0.0769  plane waves:     662
 k-point 58 :  -0.4615 0.2308 0.0769  plane waves:     662
 k-point 59 :  -0.3846 0.2308 0.0769  plane waves:     668
 k-point 60 :  -0.3077 0.2308 0.0769  plane waves:     663
 k-point 61 :  -0.2308 0.2308 0.0769  plane waves:     659
 k-point 62 :  -0.1538 0.2308 0.0769  plane waves:     650
 k-point 63 :   0.3846 0.3077 0.0769  plane waves:     659
 k-point 64 :   0.4615 0.3077 0.0769  plane waves:     662
 k-point 65 :  -0.4615 0.3077 0.0769  plane waves:     665
 k-point 66 :  -0.3846 0.3077 0.0769  plane waves:     668
 k-point 67 :  -0.3077 0.3077 0.0769  plane waves:     669
 k-point 68 :  -0.2308 0.3077 0.0769  plane waves:     667
 k-point 69 :   0.4615 0.3846 0.0769  plane waves:     664
 k-point 70 :  -0.4615 0.3846 0.0769  plane waves:     668
 k-point 71 :  -0.3846 0.3846 0.0769  plane waves:     670
 k-point 72 :  -0.3077 0.3846 0.0769  plane waves:     670
 k-point 73 :  -0.4615 0.4615 0.0769  plane waves:     666
 k-point 74 :  -0.3846 0.4615 0.0769  plane waves:     666
 k-point 75 :   0.4615 0.3077 0.1538  plane waves:     668
 k-point 76 :  -0.4615 0.3077 0.1538  plane waves:     664
 k-point 77 :  -0.3846 0.3077 0.1538  plane waves:     668
 k-point 78 :  -0.4615 0.3846 0.1538  plane waves:     664
 k-point 79 :  -0.3846 0.3846 0.1538  plane waves:     667
 k-point 80 :  -0.3077 0.3846 0.1538  plane waves:     676
 k-point 81 :  -0.2308 0.3846 0.1538  plane waves:     666
 k-point 82 :  -0.3846 0.4615 0.1538  plane waves:     668
 k-point 83 :  -0.3077 0.4615 0.1538  plane waves:     672
 k-point 84 :  -0.3077 0.4615 0.2308  plane waves:     670

 maximum and minimum number of plane-waves per node :       676      645

 maximum number of plane-waves:       676
 maximum index in each direction: 
   IXMAX=    6   IYMAX=    6   IZMAX=    6
   IXMIN=   -6   IYMIN=   -6   IZMIN=   -6


 serial   3D FFT for wavefunctions
 parallel 3D FFT for charge:
    minimum data exchange during FFTs selected (reduces bandwidth)


 total amount of memory used by VASP MPI-rank0    41789. kBytes
=======================================================================

   base      :      30000. kBytes
   nonl-proj :       3795. kBytes
   fftplans  :        588. kBytes
   grid      :       1466. kBytes
   one-center:          6. kBytes
   wavefun   :       5934. kBytes
 
     INWAV:  cpu time    0.0006: real time    0.0001
 Broyden mixing: mesh for mixing (old mesh)
   NGX = 13   NGY = 13   NGZ = 13
  (NGX  = 48   NGY  = 48   NGZ  = 48)
  gives a total of   2197 points

 initial charge density was supplied:
 charge density of overlapping atoms calculated
 number of electron       3.0000000 magnetization       0.0000000
 keeping initial charge density in first step


--------------------------------------------------------------------------------------------------------


 Maximum index for augmentation-charges         8371 (set IRDMAX)


--------------------------------------------------------------------------------------------------------


 First call to EWALD:  gamma=   0.697
 Maximum number of real-space cells 3x 3x 3
 Maximum number of reciprocal cells 3x 3x 3

    FEWALD:  cpu time    0.0198: real time    0.0050


--------------------------------------- Iteration      1(   1)  ---------------------------------------


    POTLOK:  cpu time    0.1459: real time    0.0366
    SETDIJ:  cpu time    1.1057: real time    0.6987
    TRIAL :  cpu time   22.1975: real time    5.5677
    CORREC:  cpu time    0.0159: real time    0.0040
    --------------------------------------------
      LOOP:  cpu time   23.4952: real time    6.3152

 eigenvalue-minimisations  : 12064
 total energy-change (2. order) :-0.3371330E+01  (-0.2671703E+03)
 number of electron       3.0000000 magnetization       0.0000000
 augmentation part        3.0000000 magnetization       0.0000000

 Free energy of the ion-electron system (eV)
  ---------------------------------------------------
  alpha Z        PSCENC =        -0.20391376
  Ewald energy   TEWEN  =       -73.55777243
  -Hartree energ DENC   =        -0.10076170
  -exchange      EXHF   =         0.00000000
  -V(xc)+E(xc)   XCENC  =       -26.23665293
  PAW double counting   =        66.20015713      -34.24562076
  entropy T*S    EENTRO =         0.00041372
  eigenvalues    EBANDS =        11.23425138
  atomic energy  EATOM  =        53.53856935
  ---------------------------------------------------
  free energy    TOTEN  =        -3.37132999 eV

  energy without entropy =       -3.37174371  energy(sigma->0) =       -3.37143342


--------------------------------------------------------------------------------------------------------




--------------------------------------- Iteration      1(   2)  ---------------------------------------


    TRIAL :  cpu time   30.4036: real time    7.6014
    CORREC:  cpu time    0.0159: real time    0.0040
    --------------------------------------------
      LOOP:  cpu time   30.4288: real time    7.6078

 eigenvalue-minimisations  : 15680
 total energy-change (2. order) :-0.3935081E+00  (-0.3905033E+00)
 number of electron       3.0000000 magnetization       0.0000000
 augmentation part        3.0000000 magnetization       0.0000000

 Free energy of the ion-electron system (eV)
  ---------------------------------------------------
  alpha Z        PSCENC =        -0.20391376
  Ewald energy   TEWEN  =       -73.55777243
  -Hartree energ DENC   =        -0.10076170
  -exchange      EXHF   =         0.00000000
  -V(xc)+E(xc)   XCENC  =       -26.23665293
  PAW double counting   =        66.20015713      -34.24562076
  entropy T*S    EENTRO =         0.00006815
  eigenvalues    EBANDS =        10.84108886
  atomic energy  EATOM  =        53.53856935
  ---------------------------------------------------
  free energy    TOTEN  =        -3.76483808 eV

  energy without entropy =       -3.76490623  energy(sigma->0) =       -3.76485512


--------------------------------------------------------------------------------------------------------




--------------------------------------- Iteration      1(   3)  ---------------------------------------


    TRIAL :  cpu time   20.2594: real time    5.0651
    CORREC:  cpu time    0.0148: real time    0.0037
    --------------------------------------------
      LOOP:  cpu time   20.2832: real time    5.0713

 eigenvalue-minimisations  : 11264
 total energy-change (2. order) :-0.8430293E-04  (-0.8430360E-04)
 number of electron       3.0000000 magnetization       0.0000000
 augmentation part        3.0000000 magnetization       0.0000000

 Free energy of the ion-electron system (eV)
  ---------------------------------------------------
  alpha Z        PSCENC =        -0.20391376
  Ewald energy   TEWEN  =       -73.55777243
  -Hartree energ DENC   =        -0.10076170
  -exchange      EXHF   =         0.00000000
  -V(xc)+E(xc)   XCENC  =       -26.23665293
  PAW double counting   =        66.20015713      -34.24562076
  entropy T*S    EENTRO =         0.00006858
  eigenvalues    EBANDS =        10.84100413
  atomic energy  EATOM  =        53.53856935
  ---------------------------------------------------
  free energy    TOTEN  =        -3.76492238 eV

  energy without entropy =       -3.76499096  energy(sigma->0) =       -3.76493953


--------------------------------------------------------------------------------------------------------




--------------------------------------- Iteration      1(   4)  ---------------------------------------


    TRIAL :  cpu time   42.7630: real time   10.6914
    CORREC:  cpu time    0.0158: real time    0.0039
    --------------------------------------------
      LOOP:  cpu time   42.7882: real time   10.6978

 eigenvalue-minimisations  : 19712
 total energy-change (2. order) :-0.3630092E-08  (-0.3130149E-08)
 number of electron       3.0000000 magnetization       0.0000000
 augmentation part        3.0000000 magnetization       0.0000000

 Free energy of the ion-electron system (eV)
  ---------------------------------------------------
  alpha Z        PSCENC =        -0.20391376
  Ewald energy   TEWEN  =       -73.55777243
  -Hartree energ DENC   =        -0.10076170
  -exchange      EXHF   =         0.00000000
  -V(xc)+E(xc)   XCENC  =       -26.23665293
  PAW double counting   =        66.20015713      -34.24562076
  entropy T*S    EENTRO =         0.00006858
  eigenvalues    EBANDS =        10.84100413
  atomic energy  EATOM  =        53.53856935
  ---------------------------------------------------
  free energy    TOTEN  =        -3.76492239 eV

  energy without entropy =       -3.76499096  energy(sigma->0) =       -3.76493953


--------------------------------------------------------------------------------------------------------




--------------------------------------- Iteration      1(   5)  ---------------------------------------


    TRIAL :  cpu time   20.4517: real time    5.1133
    CORREC:  cpu time    0.0176: real time    0.0044
    CHARGE:  cpu time    0.3109: real time    0.0779
    --------------------------------------------
      LOOP:  cpu time   20.7890: real time    5.1980

 eigenvalue-minimisations  : 11328
 total energy-change (2. order) :-0.2417977E-10  (-0.3133576E-13)
 number of electron       3.0000000 magnetization       0.0000000
 augmentation part       -0.0368847 magnetization       0.0000000

 Free energy of the ion-electron system (eV)
  ---------------------------------------------------
  alpha Z        PSCENC =        -0.20391376
  Ewald energy   TEWEN  =       -73.55777243
  -Hartree energ DENC   =        -0.10076170
  -exchange      EXHF   =         0.00000000
  -V(xc)+E(xc)   XCENC  =       -26.23665293
  PAW double counting   =        66.20015713      -34.24562076
  entropy T*S    EENTRO =         0.00006858
  eigenvalues    EBANDS =        10.84100413
  atomic energy  EATOM  =        53.53856935
  ---------------------------------------------------
  free energy    TOTEN  =        -3.76492239 eV

  energy without entropy =       -3.76499096  energy(sigma->0) =       -3.76493953


--------------------------------------------------------------------------------------------------------




--------------------------------------- Iteration      1(   6)  ---------------------------------------


    POTLOK:  cpu time    0.1368: real time    0.0342
    SETDIJ:  cpu time    1.1399: real time    0.7363
    TRIAL :  cpu time   11.9761: real time    2.9969
    CORREC:  cpu time   10.0720: real time    2.9693
    CHARGE:  cpu time    0.2649: real time    0.0663
    --------------------------------------------
      LOOP:  cpu time   23.6005: real time    6.8059

 eigenvalue-minimisations  :     0
 total energy-change (2. order) : 0.2391509E-01  (-0.1267963E-02)
 number of electron       3.0000000 magnetization      -0.0000000
 augmentation part       -0.0382455 magnetization      -0.0000000

 Free energy of the ion-electron system (eV)
  ---------------------------------------------------
  alpha Z        PSCENC =        -0.20391376
  Ewald energy   TEWEN  =       -73.55777243
  -Hartree energ DENC   =        -0.10619427
  -exchange      EXHF   =         0.00000000
  -V(xc)+E(xc)   XCENC  =       -26.11967607
  PAW double counting   =       155.40054018     -123.45407789
  entropy T*S    EENTRO =         0.00015414
  eigenvalues    EBANDS =        10.76144901
  atomic energy  EATOM  =        53.53856935
  ---------------------------------------------------
  free energy    TOTEN  =        -3.74100730 eV

  energy without entropy =       -3.74116143  energy(sigma->0) =       -3.74104583


--------------------------------------------------------------------------------------------------------




--------------------------------------- Iteration      1(   7)  ---------------------------------------


    POTLOK:  cpu time    0.1219: real time    0.0305
    SETDIJ:  cpu time    1.1389: real time    0.7356
    TRIAL :  cpu time   11.9110: real time    2.9789
    CORREC:  cpu time   10.0629: real time    2.9665
    CHARGE:  cpu time    0.2653: real time    0.0664
    --------------------------------------------
      LOOP:  cpu time   23.5116: real time    6.7810

 eigenvalue-minimisations  :     0
 total energy-change (2. order) :-0.1226357E-02  (-0.1520579E-03)
 number of electron       3.0000000 magnetization       0.0000000
 augmentation part       -0.0385266 magnetization       0.0000000

 Free energy of the ion-electron system (eV)
  ---------------------------------------------------
  alpha Z        PSCENC =        -0.20391376
  Ewald energy   TEWEN  =       -73.55777243
  -Hartree energ DENC   =        -0.10585152
  -exchange      EXHF   =         0.00000000
  -V(xc)+E(xc)   XCENC  =       -26.12640828
  PAW double counting   =       144.66300322     -112.72085619
  entropy T*S    EENTRO =         0.00017626
  eigenvalues    EBANDS =        10.77084182
  atomic energy  EATOM  =        53.53856935
  ---------------------------------------------------
  free energy    TOTEN  =        -3.74223366 eV

  energy without entropy =       -3.74240992  energy(sigma->0) =       -3.74227772


--------------------------------------------------------------------------------------------------------




--------------------------------------- Iteration      1(   8)  ---------------------------------------


    POTLOK:  cpu time    0.1205: real time    0.0301
    SETDIJ:  cpu time    1.1386: real time    0.7351
    TRIAL :  cpu time   11.9160: real time    2.9802
    CORREC:  cpu time   10.0309: real time    2.9591
    CHARGE:  cpu time    0.2646: real time    0.0662
    --------------------------------------------
      LOOP:  cpu time   23.4796: real time    6.7733

 eigenvalue-minimisations  :     0
 total energy-change (2. order) :-0.1514510E-03  (-0.1888245E-05)
 number of electron       3.0000000 magnetization       0.0000000
 augmentation part       -0.0385219 magnetization       0.0000000

 Free energy of the ion-electron system (eV)
  ---------------------------------------------------
  alpha Z        PSCENC =        -0.20391376
  Ewald energy   TEWEN  =       -73.55777243
  -Hartree energ DENC   =        -0.10637610
  -exchange      EXHF   =         0.00000000
  -V(xc)+E(xc)   XCENC  =       -26.12582450
  PAW double counting   =       140.82775669     -108.88580681
  entropy T*S    EENTRO =         0.00017599
  eigenvalues    EBANDS =        10.77080620
  atomic energy  EATOM  =        53.53856935
  ---------------------------------------------------
  free energy    TOTEN  =        -3.74238511 eV

  energy without entropy =       -3.74256109  energy(sigma->0) =       -3.74242910


--------------------------------------------------------------------------------------------------------




--------------------------------------- Iteration      1(   9)  ---------------------------------------


    POTLOK:  cpu time    0.1208: real time    0.0302
    SETDIJ:  cpu time    1.1388: real time    0.7356
    TRIAL :  cpu time   11.9399: real time    2.9865
    CORREC:  cpu time   10.0301: real time    2.9587
    EDDIAG:  cpu time    7.7345: real time    1.9337
    CHARGE:  cpu time    0.2611: real time    0.0657
    --------------------------------------------
      LOOP:  cpu time   31.2340: real time    8.7131

 eigenvalue-minimisations  :     0
 total energy-change (2. order) :-0.1957680E-05  (-0.6092591E-07)
 number of electron       3.0000000 magnetization       0.0000000
 augmentation part       -0.0385197 magnetization       0.0000000

 Free energy of the ion-electron system (eV)
  ---------------------------------------------------
  alpha Z        PSCENC =        -0.20391376
  Ewald energy   TEWEN  =       -73.55777243
  -Hartree energ DENC   =        -0.10637382
  -exchange      EXHF   =         0.00000000
  -V(xc)+E(xc)   XCENC  =       -26.12574321
  PAW double counting   =       140.89130068     -108.94931377
  entropy T*S    EENTRO =         0.00017573
  eigenvalues    EBANDS =        10.77068390
  atomic energy  EATOM  =        53.53856935
  ---------------------------------------------------
  free energy    TOTEN  =        -3.74238706 eV

  energy without entropy =       -3.74256279  energy(sigma->0) =       -3.74243100


--------------------------------------------------------------------------------------------------------


  average scaling for gradient   1.2787


 average (electrostatic) potential at core
  the test charge radii are     1.0406
  (the norm of the test charge is              1.0000)
       1 -72.6076
 
 
 
 E-fermi :   7.9315     XC(G=0): -10.2027     alpha+bet :-14.9019


 spin component 1

 k-point     1 :       0.0000    0.0000    0.0000
  band No.  band energies     occupation 
      1      -3.1282      1.00000
      2      20.6468      0.00000
      3      20.6469      0.00000
      4      20.6469      0.00000
      5      22.1515      0.00000
      6      22.1515      0.00000
      7      22.1515      0.00000
      8      24.4968      0.00000
      9      27.4539      0.00000
     10      27.4539      0.00000
     11      30.3282      0.00000
     12      32.6813      0.00000
     13      32.6813      0.00000
     14      32.6813      0.00000
     15      41.3246      0.00000
     16      56.0938      0.00000
     17      56.0938      0.00000
     18      56.0938      0.00000
     19      56.1547      0.00000
     20      59.5062      0.00000
     21      59.5062      0.00000
     22      59.5062      0.00000
     23      63.1391      0.00000
     24      63.1391      0.00000
     25      65.3803      0.00000
     26      65.3803      0.00000
     27      65.3804      0.00000
     28      73.5423      0.00000
     29      73.5423      0.00000
     30      73.5423      0.00000
     31      81.2254      0.00000
     32      83.4759      0.00000

 k-point     2 :       0.0769   -0.0000    0.0000
  band No.  band energies     occupation 
      1      -2.9672      1.00000
      2      18.2890      0.00000
      3      20.1400      0.00000
      4      20.1400      0.00000
      5      22.8030      0.00000
      6      22.9061      0.00000
      7      22.9061      0.00000
      8      26.0909      0.00000
      9      26.5983      0.00000
     10      26.5983      0.00000
     11      29.7585      0.00000
     12      33.4933      0.00000
     13      33.8617      0.00000
     14      33.8617      0.00000
     15      41.9571      0.00000
     16      55.5359      0.00000
     17      55.8795      0.00000
     18      55.8795      0.00000
     19      56.4208      0.00000
     20      57.8669      0.00000
     21      57.8670      0.00000
     22      59.4823      0.00000
     23      61.9528      0.00000
     24      61.9528      0.00000
     25      65.5245      0.00000
     26      68.5264      0.00000
     27      68.5264      0.00000
     28      72.2752      0.00000
     29      73.3908      0.00000
     30      73.3908      0.00000
     31      82.5793      0.00000
     32      82.5916      0.00000

 k-point     3 :       0.1538    0.0000    0.0000
  band No.  band energies     occupation 
      1      -2.4853      1.00000
      2      15.1782      0.00000
      3      19.4734      0.00000
      4      19.4734      0.00000
      5      22.6650      0.00000
      6      24.0500      0.00000
      7      24.0500      0.00000
      8      25.3201      0.00000
      9      25.3201      0.00000
     10      28.5464      0.00000
     11      29.0532      0.00000
     12      35.6029      0.00000
     13      36.3659      0.00000
     14      36.3659      0.00000
     15      43.6160      0.00000
     16      53.3458      0.00000
     17      53.3458      0.00000
     18      54.5220      0.00000
     19      56.5497      0.00000
     20      56.5497      0.00000
     21      56.6089      0.00000
     22      59.2538      0.00000
     23      61.9118      0.00000
     24      61.9118      0.00000
     25      65.9519      0.00000
     26      70.0400      0.00000
     27      71.6049      0.00000
     28      71.6050      0.00000
     29      73.5596      0.00000
     30      73.5596      0.00000
     31      80.1176      0.00000
     32      80.1185      0.00000

 k-point     4 :       0.2308    0.0000    0.0000
  band No.  band energies     occupation 
      1      -1.6857      1.00000
      2      12.1796      0.00000
      3      19.0142      0.00000
      4      19.0142      0.00000
      5      22.4301      0.00000
      6      23.1401      0.00000
      7      23.1401      0.00000
      8      26.4483      0.00000
      9      26.4483      0.00000
     10      27.1490      0.00000
     11      31.9699      0.00000
     12      38.7328      0.00000
     13      39.3686      0.00000
     14      39.3686      0.00000
     15      45.8984      0.00000
     16      49.5228      0.00000
     17      49.5228      0.00000
     18      53.0485      0.00000
     19      56.4514      0.00000
     20      56.4514      0.00000
     21      56.7977      0.00000
     22      58.6030      0.00000
     23      62.2701      0.00000
     24      62.2702      0.00000
     25      66.6436      0.00000
     26      67.8581      0.00000
     27      69.9821      0.00000
     28      69.9822      0.00000
     29      74.9602      0.00000
     30      74.9606      0.00000
     31      77.5014      0.00000
     32      79.1794      0.00000

 k-point     5 :       0.3077    0.0000    0.0000
  band No.  band energies     occupation 
      1      -0.5737      1.00000
      2       9.3906      0.00000
      3      18.8092      0.00000
      4      18.8092      0.00000
      5      21.7989      0.00000
      6      21.7989      0.00000
      7      22.3433      0.00000
      8      25.7915      0.00000
      9      28.4609      0.00000
     10      28.4609      0.00000
     11      34.7283      0.00000
     12      42.2357      0.00000
     13      42.2357      0.00000
     14      42.4999      0.00000
     15      46.3516      0.00000
     16      46.3517      0.00000
     17      48.3109      0.00000
     18      51.4473      0.00000
     19      56.4231      0.00000
     20      56.4231      0.00000
     21      57.0255      0.00000
     22      57.5360      0.00000
     23      62.5292      0.00000
     24      62.5292      0.00000
     25      65.6350      0.00000
     26      66.5165      0.00000
     27      66.5165      0.00000
     28      67.5518      0.00000
     29      74.1521      0.00000
     30      74.4954      0.00000
     31      74.4955      0.00000
     32      77.3665      0.00000

 k-point     6 :       0.3846    0.0000    0.0000
  band No.  band energies     occupation 
      1       0.8434      1.00000
      2       6.8468      1.00000
      3      18.8697      0.00000
      4      18.8697      0.00000
      5      20.6705      0.00000
      6      20.6705      0.00000
      7      22.4936      0.00000
      8      24.5962      0.00000
      9      30.6428      0.00000
     10      30.6428      0.00000
     11      37.3249      0.00000
     12      41.4839      0.00000
     13      41.4839      0.00000
     14      46.1613      0.00000
     15      47.4635      0.00000
     16      47.4635      0.00000
     17      48.2845      0.00000
     18      52.7142      0.00000
     19      56.0804      0.00000
     20      56.3089      0.00000
     21      56.3089      0.00000
     22      57.3163      0.00000
     23      60.8359      0.00000
     24      60.8359      0.00000
     25      63.5066      0.00000
     26      64.5262      0.00000
     27      64.5263      0.00000
     28      68.4317      0.00000
     29      68.5530      0.00000
     30      74.1028      0.00000
     31      74.1028      0.00000
     32      76.8861      0.00000

 k-point     7 :       0.4615    0.0000    0.0000
  band No.  band energies     occupation 
      1       2.5549      1.00000
      2       4.5701      1.00000
      3      19.1992      0.00000
      4      19.1992      0.00000
      5      19.8013      0.00000
      6      19.8013      0.00000
      7      22.9118      0.00000
      8      23.6344      0.00000
      9      32.4998      0.00000
     10      32.4998      0.00000
     11      39.2841      0.00000
     12      39.2841      0.00000
     13      39.3522      0.00000
     14      45.9386      0.00000
     15      50.0972      0.00000
     16      50.8493      0.00000
     17      50.8493      0.00000
     18      54.2003      0.00000
     19      55.4522      0.00000
     20      55.4522      0.00000
     21      55.8373      0.00000
     22      57.9992      0.00000
     23      58.0073      0.00000
     24      58.0073      0.00000
     25      61.7525      0.00000
     26      63.6167      0.00000
     27      64.5574      0.00000
     28      64.5574      0.00000
     29      69.3230      0.00000
     30      73.9409      0.00000
     31      73.9409      0.00000
     32      75.8234      0.00000

 k-point     8 :       0.0769    0.0769    0.0000
  band No.  band energies     occupation 
      1      -2.9136      1.00000
      2      19.0907      0.00000
      3      19.0907      0.00000
      4      19.3775      0.00000
      5      21.6561      0.00000
      6      24.0209      0.00000
      7      24.0209      0.00000
      8      25.1102      0.00000
      9      26.1951      0.00000
     10      27.6526      0.00000
     11      30.5591      0.00000
     12      32.9272      0.00000
     13      32.9272      0.00000
     14      35.1674      0.00000
     15      42.2436      0.00000
     16      55.6118      0.00000
     17      55.6201      0.00000
     18      55.6201      0.00000
     19      56.5518      0.00000
     20      57.9720      0.00000
     21      57.9720      0.00000
     22      59.0087      0.00000
     23      59.6469      0.00000
     24      63.0924      0.00000
     25      67.2671      0.00000
     26      67.2671      0.00000
     27      69.7905      0.00000
     28      71.3671      0.00000
     29      73.7313      0.00000
     30      73.7313      0.00000
     31      81.4123      0.00000
     32      83.0888      0.00000

 k-point     9 :       0.1538    0.0769    0.0000
  band No.  band energies     occupation 
      1      -2.5387      1.00000
      2      16.2825      0.00000
      3      18.2584      0.00000
      4      19.4764      0.00000
      5      21.9768      0.00000
      6      23.2821      0.00000
      7      24.3990      0.00000
      8      25.3178      0.00000
      9      27.1063      0.00000
     10      28.6358      0.00000
     11      30.0659      0.00000
     12      34.3303      0.00000
     13      34.4646      0.00000
     14      37.1345      0.00000
     15      43.7283      0.00000
     16      53.3496      0.00000
     17      54.0145      0.00000
     18      55.6471      0.00000
     19      56.0887      0.00000
     20      56.5326      0.00000
     21      57.0789      0.00000
     22      58.7423      0.00000
     23      59.6224      0.00000
     24      62.6039      0.00000
     25      68.0758      0.00000
     26      68.6229      0.00000
     27      71.1317      0.00000
     28      72.5070      0.00000
     29      73.0701      0.00000
     30      74.3314      0.00000
     31      79.1343      0.00000
     32      80.2605      0.00000

 k-point    10 :       0.2308    0.0769    0.0000
  band No.  band energies     occupation 
      1      -1.8452      1.00000
      2      13.2672      0.00000
      3      17.6843      0.00000
      4      19.1515      0.00000
      5      21.3744      0.00000
      6      23.5633      0.00000
      7      24.2845      0.00000
      8      25.1955      0.00000
      9      27.5352      0.00000
     10      28.7360      0.00000
     11      31.6296      0.00000
     12      37.0067      0.00000
     13      37.4755      0.00000
     14      39.6538      0.00000
     15      45.9633      0.00000
     16      49.4258      0.00000
     17      51.0445      0.00000
     18      54.4140      0.00000
     19      55.7615      0.00000
     20      56.3737      0.00000
     21      57.1428      0.00000
     22      59.1423      0.00000
     23      59.1985      0.00000
     24      62.6277      0.00000
     25      66.8263      0.00000
     26      68.5777      0.00000
     27      70.6673      0.00000
     28      72.2434      0.00000
     29      73.5347      0.00000
     30      75.6252      0.00000
     31      76.7510      0.00000
     32      77.5509      0.00000

 k-point    11 :       0.3077    0.0769    0.0000
  band No.  band energies     occupation 
      1      -0.8377      1.00000
      2      10.4173      0.00000
      3      17.3779      0.00000
      4      18.9086      0.00000
      5      19.8871      0.00000
      6      23.9065      0.00000
      7      24.0104      0.00000
      8      25.5466      0.00000
      9      27.4719      0.00000
     10      29.3777      0.00000
     11      34.4537      0.00000
     12      40.0219      0.00000
     13      41.2378      0.00000
     14      42.4103      0.00000
     15      45.8490      0.00000
     16      47.7746      0.00000
     17      48.5305      0.00000
     18      52.7007      0.00000
     19      55.8388      0.00000
     20      56.3837      0.00000
     21      57.2379      0.00000
     22      58.1560      0.00000
     23      59.7594      0.00000
     24      63.0097      0.00000
     25      64.4983      0.00000
     26      67.3986      0.00000
     27      68.3561      0.00000
     28      70.8257      0.00000
     29      72.0734      0.00000
     30      72.9978      0.00000
     31      76.6543      0.00000
     32      77.3423      0.00000

 k-point    12 :       0.3846    0.0769    0.0000
  band No.  band energies     occupation 
      1       0.4773      1.00000
      2       7.7961      1.01507
      3      17.3423      0.00000
      4      18.6044      0.00000
      5      18.9319      0.00000
      6      22.7295      0.00000
      7      24.0974      0.00000
      8      25.8936      0.00000
      9      28.0993      0.00000
     10      31.3889      0.00000
     11      37.1264      0.00000
     12      40.9812      0.00000
     13      43.0140      0.00000
     14      45.1369      0.00000
     15      45.1755      0.00000
     16      47.1773      0.00000
     17      49.4869      0.00000
     18      52.6849      0.00000
     19      55.8452      0.00000
     20      56.3930      0.00000
     21      56.4395      0.00000
     22      57.5631      0.00000
     23      60.0999      0.00000
     24      61.1924      0.00000
     25      63.7816      0.00000
     26      64.2827      0.00000
     27      65.3786      0.00000
     28      70.7498      0.00000
     29      70.8352      0.00000
     30      71.2254      0.00000
     31      71.5251      0.00000
     32      76.1265      0.00000

 k-point    13 :       0.4615    0.0769    0.0000
  band No.  band energies     occupation 
      1       2.0907      1.00000
      2       5.4319      1.00000
      3      17.5792      0.00000
      4      17.6333      0.00000
      5      19.1815      0.00000
      6      21.7853      0.00000
      7      24.3842      0.00000
      8      24.9823      0.00000
      9      30.3411      0.00000
     10      32.8793      0.00000
     11      39.2269      0.00000
     12      39.3974      0.00000
     13      40.4895      0.00000
     14      47.0755      0.00000
     15      48.4505      0.00000
     16      49.1861      0.00000
     17      50.5243      0.00000
     18      54.3559      0.00000
     19      55.2501      0.00000
     20      55.8218      0.00000
     21      56.2509      0.00000
     22      56.9443      0.00000
     23      58.9493      0.00000
     24      59.0600      0.00000
     25      62.2305      0.00000
     26      63.0502      0.00000
     27      64.3746      0.00000
     28      65.4823      0.00000
     29      70.1994      0.00000
     30      70.7104      0.00000
     31      71.7287      0.00000
     32      75.1817      0.00000

 k-point    14 :      -0.4615    0.0769    0.0000
  band No.  band energies     occupation 
      1       3.3152      1.00000
      2       4.0191      1.00000
      3      16.9249      0.00000
      4      18.0894      0.00000
      5      19.7230      0.00000
      6      21.1002      0.00000
      7      24.1378      0.00000
      8      25.0400      0.00000
      9      32.1386      0.00000
     10      32.2539      0.00000
     11      38.4154      0.00000
     12      39.7033      0.00000
     13      40.4645      0.00000
     14      46.3847      0.00000
     15      50.0231      0.00000
     16      50.9289      0.00000
     17      51.6921      0.00000
     18      53.8105      0.00000
     19      55.0416      0.00000
     20      55.3621      0.00000
     21      56.5102      0.00000
     22      57.2120      0.00000
     23      57.4776      0.00000
     24      58.9821      0.00000
     25      61.9500      0.00000
     26      62.4920      0.00000
     27      62.9582      0.00000
     28      64.8968      0.00000
     29      70.0973      0.00000
     30      70.3662      0.00000
     31      71.8606      0.00000
     32      74.9439      0.00000

 k-point    15 :      -0.3846    0.0769    0.0000
  band No.  band energies     occupation 
      1       1.5206      1.00000
      2       6.1892      1.00000
      3      16.4966      0.00000
      4      18.8716      0.00000
      5      20.5399      0.00000
      6      20.6825      0.00000
      7      23.6477      0.00000
      8      25.8422      0.00000
      9      30.1083      0.00000
     10      31.8361      0.00000
     11      38.5389      0.00000
     12      39.4441      0.00000
     13      42.1213      0.00000
     14      46.4956      0.00000
     15      47.2581      0.00000
     16      48.7283      0.00000
     17      50.0657      0.00000
     18      54.2935      0.00000
     19      55.3302      0.00000
     20      55.7811      0.00000
     21      56.0362      0.00000
     22      57.7765      0.00000
     23      58.8959      0.00000
     24      60.3189      0.00000
     25      61.9528      0.00000
     26      62.7303      0.00000
     27      64.8390      0.00000
     28      67.5898      0.00000
     29      70.3525      0.00000
     30      71.0322      0.00000
     31      71.2795      0.00000
     32      75.4082      0.00000

 k-point    16 :      -0.3077    0.0769    0.0000
  band No.  band energies     occupation 
      1       0.0053      1.00000
      2       8.6400      0.00002
      3      16.3511      0.00000
      4      19.9086      0.00000
      5      20.5451      0.00000
      6      21.6189      0.00000
      7      23.4045      0.00000
      8      26.8270      0.00000
      9      27.7800      0.00000
     10      30.0541      0.00000
     11      36.3713      0.00000
     12      40.8005      0.00000
     13      43.8784      0.00000
     14      44.1035      0.00000
     15      44.2850      0.00000
     16      47.5559      0.00000
     17      49.3976      0.00000
     18      51.8728      0.00000
     19      55.9799      0.00000
     20      56.1338      0.00000
     21      56.9984      0.00000
     22      57.7003      0.00000
     23      61.0303      0.00000
     24      61.7708      0.00000
     25      63.0034      0.00000
     26      64.5808      0.00000
     27      67.3181      0.00000
     28      70.3923      0.00000
     29      70.8286      0.00000
     30      72.8428      0.00000
     31      73.0406      0.00000
     32      76.0452      0.00000

 k-point    17 :      -0.2308    0.0769    0.0000
  band No.  band energies     occupation 
      1      -1.2081      1.00000
      2      11.3364      0.00000
      3      16.4905      0.00000
      4      20.5868      0.00000
      5      21.2744      0.00000
      6      22.9177      0.00000
      7      23.4022      0.00000
      8      25.6387      0.00000
      9      27.2260      0.00000
     10      28.8575      0.00000
     11      33.6764      0.00000
     12      38.4555      0.00000
     13      40.2976      0.00000
     14      42.1232      0.00000
     15      46.2819      0.00000
     16      47.3888      0.00000
     17      49.8174      0.00000
     18      52.9346      0.00000
     19      55.8947      0.00000
     20      56.1439      0.00000
     21      57.2998      0.00000
     22      58.5326      0.00000
     23      60.4332      0.00000
     24      61.7214      0.00000
     25      66.5218      0.00000
     26      67.0855      0.00000
     27      69.5704      0.00000
     28      70.3354      0.00000
     29      73.0125      0.00000
     30      74.7129      0.00000
     31      76.7785      0.00000
     32      78.0924      0.00000

 k-point    18 :      -0.1538    0.0769    0.0000
  band No.  band energies     occupation 
      1      -2.1116      1.00000
      2      14.2288      0.00000
      3      16.9268      0.00000
      4      20.9168      0.00000
      5      22.6360      0.00000
      6      23.4590      0.00000
      7      23.9794      0.00000
      8      24.4232      0.00000
      9      25.8069      0.00000
     10      29.7109      0.00000
     11      30.8726      0.00000
     12      35.1951      0.00000
     13      37.3518      0.00000
     14      39.0088      0.00000
     15      44.9303      0.00000
     16      49.9825      0.00000
     17      53.4181      0.00000
     18      54.4610      0.00000
     19      55.8214      0.00000
     20      56.0987      0.00000
     21      57.1609      0.00000
     22      59.3412      0.00000
     23      60.0845      0.00000
     24      61.3911      0.00000
     25      68.2317      0.00000
     26      68.9008      0.00000
     27      70.3629      0.00000
     28      72.3994      0.00000
     29      72.9875      0.00000
     30      75.7229      0.00000
     31      78.2400      0.00000
     32      79.1390      0.00000

 k-point    19 :      -0.0769    0.0769    0.0000
  band No.  band energies     occupation 
      1      -2.6993      1.00000
      2      16.9907      0.00000
      3      17.8870      0.00000
      4      21.0643      0.00000
      5      22.4022      0.00000
      6      23.3490      0.00000
      7      24.2448      0.00000
      8      24.8408      0.00000
      9      26.0832      0.00000
     10      27.9890      0.00000
     11      30.2391      0.00000
[...]
  180      eddiag                                2.115799                              5   2
  181        fftwav_mpi                            0.204745                          840   3
  182          fftwav                                0.195326                        840   4
  183            fft3d                                 0.166396                      840   5
  184        eccp                                  0.017719                          672   3
  185        M_sumb_d                              0.075887                          340   3
  186        overl                                 0.004464                          168   3
  187        redis_proj                            0.062125                          504   3
  188          M_alltoall_d                          0.054435                        504   4
  189        hamilt_local                          0.054437                          168   3
  190          vhamil                                0.005311                        168   4
  191          kinhamil                              0.045817                        168   4
  192            fftext_mpi                            0.042495                      168   5
  193              fft3d_mpi                             0.038978                    168   6
  194                fft3d                                 0.036747                  168   7
  195        redis_pw                              0.111553                          504   3
  196          M_alltoall_d                          0.100064                        504   4
  197        orth1                                 0.017696                          168   3
  198        shift_bands_between_low_high          0.000630                          168   3
  199        pdssyex_zheevx                        1.497845                          168   3
  200        lincom                                0.018890                          168   3
  201      rotate_active_occupied_orbital        0.000015                              1   2
  202      sphpro_fast                           0.510229                              2   2
  203        M_sumb_d                              0.002273                            5   3
  204      force_and_stress                      1.312926                              1   2
  205        forloc                                0.052314                            1   3
  206          M_sumb_d                              0.052044                          1   4
  207        fornl                                 0.008228                            1   3
  208          phase                                 0.001731                         84   4
  209          M_sumb_d                              0.000118                          2   4
  210        fordep                                0.061825                            1   3
  211          setdij_                               0.061676                          6   4
  212            fft3d_mpi                             0.028094                       24   5
  213              fftbas_plan_mpi                       0.026825                     24   6
  214                dfftw_execute                         0.003973                   72   7
  215                map_backward                          0.007042                   24   7
  216                  map_gather                            0.000167                 12   8
  217                  m_alltoallv_z                         0.006178                 12   8
  218                  map_scatter                           0.000279                 12   8
  219                map_forward                           0.010311                   24   7
  220                  map_gather                            0.000531                 12   8
  221                  m_alltoallv_z                         0.008592                 12   8
  222                  map_scatter                           0.000699                 12   8
  223            M_sumb_d                              0.000798                        6   5
  224        setdij_                               0.203329                           20   3
  225          fft3d_mpi                             0.091482                         80   4
  226            fftbas_plan_mpi                       0.087152                       80   5
  227              dfftw_execute                         0.012852                    240   6
  228              map_backward                          0.023056                     80   6
  229                map_gather                            0.000560                   40   7
  230                m_alltoallv_z                         0.020253                   40   7
  231                map_scatter                           0.000835                   40   7
  232              map_forward                           0.033367                     80   6
  233                map_gather                            0.001704                   40   7
  234                m_alltoallv_z                         0.027900                   40   7
  235                map_scatter                           0.002247                   40   7
  236          M_sumb_d                              0.002781                         20   4
  237        set_dd_magatom                        0.000009                            1   3
  238        set_dd_paw                            0.725043                            1   3
  239          set_rsgf_all                          0.000004                          1   4
  240          M_sumb_d                              0.724859                          7   4
  241        strkin                                0.000936                            1   3
  242          M_sumb_d                              0.000073                          1   4
  243        strelo                                0.000480                            1   3
  244          M_sumb_d                              0.000283                          2   4
  245        strenl                                0.217766                            1   3
  246          spher                                 0.131312                         19   4
  247          phase                                 0.016659                        756   4
  248          proj1                                 0.048681                       1512   4
  249            crexp_mul_wave                        0.012494                     1512   5
  250          M_sumb_d                              0.000084                          1   4
  251        fft3d_mpi                             0.015277                           22   3
  252          fftbas_plan_mpi                       0.014728                         22   4
  253            dfftw_execute                         0.001731                       66   5
  254            map_forward                           0.004301                       20   5
  255              map_gather                            0.000101                     10   6
  256              m_alltoallv_z                         0.003647                     10   6
  257              map_scatter                           0.000171                     10   6
  258            map_backward                          0.005243                       24   5
  259              map_gather                            0.000202                     12   6
  260              m_alltoallv_z                         0.004488                     12   6
  261              map_scatter                           0.000184                     12   6
  262        M_sumb_d                              0.000163                            5   3
  263        forhar                                0.000379                            1   3
  264          M_sumb_d                              0.000287                          1   4
  265        strehar                               0.000284                            1   3
  266          M_sumb_d                              0.000158                          1   4
  267        M_bcast_d                             0.000079                            2   3
  268      set_dd_magatom                        0.000004                              1   2
  269      fftwav_mpi                            0.114557                            504   2
  270        fftwav                                0.109087                          504   3
  271          fft3d                                 0.090628                        504   4
  272      lprj_proall                           0.000007                              1   2
 
 Flat profile
 ============
 
             routine name                   CPU           calls
 ---------------------------------------------------------------
 eddav                                  21.382871           5
 pdssyex_zheevx                         14.011716        1512
 M_sumb_d                               13.401680       22021
 total_time                             13.076792           1
 M_alltoall_d                            7.061075       46739
 fft3d                                   2.786508       11098
 edwav                                   1.389525           8
 M_bcast_z                               0.923103        8405
 orth1                                   0.800485        9087
 bg_ppotrf_trtri                         0.527466        1512
 sphpro_fast                             0.507956           2
 redis_proj                              0.479465       29924
 redis_pw                                0.388932       16815
 fftwav                                  0.307109        7229
 m_alltoallv_z                           0.286100         590
 lincom                                  0.226467        2856
 setdij_                                 0.212183          37
 M_bcast_d                               0.188733        3056
 hamiltmu                                0.188195        3029
 proj1                                   0.176047        4541
 w1_copy                                 0.164172        9087
 fftext_mpi                              0.162386        3869
 set_charge                              0.156810           9
 spher                                   0.143142          20
 overl                                   0.139744        8914
 eccp                                    0.134777        3528
 vhamil                                  0.122293        3869
 fftbas_plan_mpi                         0.107866         530
 potlok                                  0.105345          11
 orthch                                  0.100989           9
 lincom_slice                            0.098170        1512
 gemm                                    0.095571        3701
 dfftw_execute                           0.093256        1590
 fftwav_mpi                              0.086910        7229
 vnlac0                                  0.084263        3701
 fft3d_mpi                               0.082629        4399
 kinhamil                                0.075928        3869
 crexp_mul_wave                          0.074584        4541
 apply_precond                           0.070861        2189
 orth1_nosubindex                        0.069661        1512
 phase                                   0.069230        2437
 crpa_reader                             0.058471           1
 eddiag                                  0.049808           5
 work_mul_crexp                          0.048250        3701
 lincom_distri                           0.044480        1512
 overl1                                  0.044397        3029
 orth1_distri                            0.043690        1512
 densta                                  0.042583          20
 m_sum_g                                 0.034829        3024
 soft_charge                             0.030661           9
 w1_projall                              0.028721        2189
 pw_charge                               0.028243        1512
 force_and_stress                        0.026815           1
 setup_precond                           0.021257         840
 strenl                                  0.021029           1
 choleski                                0.018409        1512
 hamilt_local                            0.017107         840
 map_scatter                             0.015937         590
 truncate_high_frequency_w1              0.013830        3869
 w1_dscal                                0.013344         672
 redis_pw_all                            0.011388           8
 recon_slice                             0.010412        1512
 map_gather                              0.010157         590
 map_forward                             0.010017         524
 map_backward                            0.009677         536
 distri_slice                            0.009589        1512
 fornl                                   0.006379           1
 depsum                                  0.003932           9
 set_dd_paw                              0.002535          11
 proj                                    0.002273          84
 brgrid                                  0.001061           1
 strkin                                  0.000863           1
 shift_bands_between_low_high            0.000630         168
 forloc                                  0.000270           1
 strelo                                  0.000197           1
 fordep                                  0.000149           1
 strehar                                 0.000126           1
 redis_pw_over_bands                     0.000102           9
 forhar                                  0.000092           1
 set_rsgf_all                            0.000056          11
 potlok_metagga                          0.000042          11
 set_kineden                             0.000034           9
 rotate_active_occupied_orbital          0.000015           1
 set_dd_magatom                          0.000013           2
 vectorpot                               0.000011           1
 lprj_proall                             0.000007           1
 ---------------------------------------------------------------
  summed up times    81.2428798675537     
 
 Accumulative profile
 ====================
 
             routine name                   CPU           calls
 ---------------------------------------------------------------
 total_time                             81.242880           1
 eddav                                  34.018565           5
 edwav                                  20.245142           8
 pdssyex_zheevx                         14.011716        1512
 M_sumb_d                               13.401680       22021
 set_dd_paw                              7.942138          11
 M_alltoall_d                            7.061075       46739
 redis_pw                                3.977108       16815
 redis_proj                              3.952364       29924
 fft3d                                   2.786508       11098
 fftwav_mpi                              2.242098        7229
 fftwav                                  2.155188        7229
 eddiag                                  2.115799           5
 orthch                                  2.054240           9
 fft3d_mpi                               1.554067        4399
 hamiltmu                                1.520689        3029
 force_and_stress                        1.312926           1
 kinhamil                                1.231843        3869
 fftext_mpi                              1.155915        3869
 M_bcast_z                               0.923103        8405
 orth1                                   0.800485        9087
 set_charge                              0.613801           9
 m_sum_g                                 0.556158        3024
 choleski                                0.545875        1512
 fftbas_plan_mpi                         0.533009         530
 bg_ppotrf_trtri                         0.527466        1512
 sphpro_fast                             0.510229           2
 lincom_distri                           0.450995        1512
 soft_charge                             0.410301           9
 setdij_                                 0.387370          37
 orth1_distri                            0.381166        1512
 potlok                                  0.342595          11
 m_alltoallv_z                           0.286100         590
 hamilt_local                            0.267720         840
 redis_pw_over_bands                     0.260350           9
 redis_pw_all                            0.260248           8
 proj1                                   0.250631        4541
 vnlac0                                  0.228083        3701
 lincom                                  0.226467        2856
 strenl                                  0.217766           1
 M_bcast_d                               0.188733        3056
 w1_projall                              0.185057        2189
 map_forward                             0.170214         524
 w1_copy                                 0.164172        9087
 map_backward                            0.161674         536
 spher                                   0.143142          20
 overl                                   0.139744        8914
 eccp                                    0.134777        3528
 vhamil                                  0.122293        3869
 lincom_slice                            0.098170        1512
 gemm                                    0.095571        3701
 dfftw_execute                           0.093256        1590
 densta                                  0.075785          20
 crexp_mul_wave                          0.074584        4541
 apply_precond                           0.070861        2189
 orth1_nosubindex                        0.069661        1512
 phase                                   0.069230        2437
 fordep                                  0.061825           1
 crpa_reader                             0.058471           1
 forloc                                  0.052314           1
 work_mul_crexp                          0.048250        3701
 overl1                                  0.044397        3029
 pw_charge                               0.028243        1512
 setup_precond                           0.021257         840
 map_scatter                             0.015937         590
 truncate_high_frequency_w1              0.013830        3869
 w1_dscal                                0.013344         672
 recon_slice                             0.010412        1512
 map_gather                              0.010157         590
 distri_slice                            0.009589        1512
 fornl                                   0.008228           1
 proj                                    0.007916          84
 depsum                                  0.004957           9
 brgrid                                  0.001061           1
 strkin                                  0.000936           1
 shift_bands_between_low_high            0.000630         168
 strelo                                  0.000480           1
 forhar                                  0.000379           1
 strehar                                 0.000284           1
 set_rsgf_all                            0.000056          11
 potlok_metagga                          0.000042          11
 set_kineden                             0.000034           9
 rotate_active_occupied_orbital          0.000015           1
 set_dd_magatom                          0.000013           2
 vectorpot                               0.000011           1
 lprj_proall                             0.000007           1
 ---------------------------------------------------------------
 
Profiling took   0.684752  0.809514  0.005589  0.004377 seconds
Profiling took   0.675000 seconds
