<?xml version="1.0" encoding="ISO-8859-1"?>
<modeling>
 <generator>
  <i name="program" type="string">vasp </i>
  <i name="version" type="string">6.0.8  </i>
  <i name="subversion" type="string">29Jun18 (build Jun 13 2019 12:54:44) complex                          parallel </i>
  <i name="platform" type="string">IFC18_CrayMPICH </i>
  <i name="date" type="string">2019 12 19 </i>
  <i name="time" type="string">13:05:42 </i>
 </generator>
 <incar>
  <i type="string" name="PREC"> Accurate</i>
  <i type="string" name="ALGO"> All</i>
  <i type="logical" name="ADDGRID"> T  </i>
  <i type="int" name="ISPIN">     2</i>
  <i type="int" name="ICHARG">     2</i>
  <i type="int" name="NELM">   200</i>
  <i type="int" name="IBRION">     2</i>
  <i name="EDIFF">      0.00001000</i>
  <i name="EDIFFG">     -0.05000000</i>
  <i type="int" name="NSW">    99</i>
  <i type="int" name="ISIF">     3</i>
  <i name="ENCUT">    680.00000000</i>
  <v name="MAGMOM">      0.00000000</v>
  <i type="logical" name="LREAL"> F  </i>
  <i type="int" name="ISMEAR">     2</i>
  <i name="SIGMA">      0.20000000</i>
  <i name="KSPACING">      0.22000000</i>
  <i type="logical" name="LWAVE"> T  </i>
  <i type="logical" name="LCHARG"> T  </i>
  <i type="logical" name="LVTOT"> T  </i>
  <i type="logical" name="LELF"> T  </i>
  <i type="logical" name="LASPH"> T  </i>
  <i type="logical" name="LAECHG"> T  </i>
  <i type="string" name="ALGO"> All</i>
  <i type="int" name="NELM">   200</i>
  <i name="EDIFF">      0.00001000</i>
  <i type="string" name="METAGGA"> None</i>
  <i type="logical" name="LASPH"> T  </i>
  <i type="logical" name="LMIXTAU"> T  </i>
  <i type="int" name="ISPIN">     2</i>
 </incar>
 <structure name="primitive_cell" >
  <crystal>
   <varray name="basis" >
    <v>       2.47332900       0.00000000       1.42797700 </v>
    <v>       0.82444300       2.33187700       1.42797700 </v>
    <v>       0.00000000       0.00000000       2.85595500 </v>
   </varray>
   <i name="volume">     16.47171763 </i>
   <varray name="rec_basis" >
    <v>       0.40431338      -0.14294636       0.00000000 </v>
    <v>       0.00000000       0.42883909       0.00000000 </v>
    <v>      -0.20215662      -0.14294631       0.35014557 </v>
   </varray>
  </crystal>
  <varray name="positions" >
   <v>       0.00000000       0.00000000       0.00000000 </v>
  </varray>
 </structure>
 <varray name="primitive_index" >
  <v type="int" >        1 </v>
 </varray>
 <kpoints>
  <generation param="Gamma">
   <v type="int" name="divisions">      13       13       13 </v>
   <v name="usershift">      0.00000000       0.00000000       0.00000000 </v>
   <v name="genvec1">      0.07692308       0.00000000       0.00000000 </v>
   <v name="genvec2">      0.00000000       0.07692308       0.00000000 </v>
   <v name="genvec3">     -0.00000000      -0.00000000       0.07692308 </v>
   <v name="shift">      0.00000000       0.00000000       0.00000000 </v>
  </generation>
  <varray name="kpointlist" >
   <v>       0.00000000       0.00000000       0.00000000 </v>
   <v>       0.07692308      -0.00000000       0.00000000 </v>
   <v>       0.15384615       0.00000000       0.00000000 </v>
   <v>       0.23076923       0.00000000       0.00000000 </v>
   <v>       0.30769231       0.00000000       0.00000000 </v>
   <v>       0.38461538       0.00000000       0.00000000 </v>
   <v>       0.46153846       0.00000000       0.00000000 </v>
   <v>       0.07692308       0.07692308       0.00000000 </v>
   <v>       0.15384615       0.07692308       0.00000000 </v>
   <v>       0.23076923       0.07692308       0.00000000 </v>
   <v>       0.30769231       0.07692308       0.00000000 </v>
   <v>       0.38461538       0.07692308       0.00000000 </v>
   <v>       0.46153846       0.07692308       0.00000000 </v>
   <v>      -0.46153846       0.07692308       0.00000000 </v>
   <v>      -0.38461538       0.07692308       0.00000000 </v>
   <v>      -0.30769231       0.07692308       0.00000000 </v>
   <v>      -0.23076923       0.07692308       0.00000000 </v>
   <v>      -0.15384615       0.07692308       0.00000000 </v>
   <v>      -0.07692308       0.07692308       0.00000000 </v>
   <v>       0.15384615       0.15384615       0.00000000 </v>
   <v>       0.23076923       0.15384615       0.00000000 </v>
   <v>       0.30769231       0.15384615       0.00000000 </v>
   <v>       0.38461538       0.15384615       0.00000000 </v>
   <v>       0.46153846       0.15384615       0.00000000 </v>
   <v>      -0.46153846       0.15384615       0.00000000 </v>
   <v>      -0.38461538       0.15384615       0.00000000 </v>
   <v>      -0.30769231       0.15384615       0.00000000 </v>
   <v>      -0.23076923       0.15384615       0.00000000 </v>
   <v>      -0.15384615       0.15384615       0.00000000 </v>
   <v>       0.23076923       0.23076923       0.00000000 </v>
   <v>       0.30769231       0.23076923       0.00000000 </v>
   <v>       0.38461538       0.23076923       0.00000000 </v>
   <v>       0.46153846       0.23076923       0.00000000 </v>
   <v>      -0.46153846       0.23076923       0.00000000 </v>
   <v>      -0.38461538       0.23076923       0.00000000 </v>
   <v>      -0.30769231       0.23076923       0.00000000 </v>
   <v>      -0.23076923       0.23076923       0.00000000 </v>
   <v>       0.30769231       0.30769231       0.00000000 </v>
   <v>       0.38461538       0.30769231       0.00000000 </v>
   <v>       0.46153846       0.30769231       0.00000000 </v>
   <v>      -0.46153846       0.30769231       0.00000000 </v>
   <v>      -0.38461538       0.30769231       0.00000000 </v>
   <v>      -0.30769231       0.30769231       0.00000000 </v>
   <v>       0.38461538       0.38461538       0.00000000 </v>
   <v>       0.46153846       0.38461538       0.00000000 </v>
   <v>      -0.46153846       0.38461538       0.00000000 </v>
   <v>      -0.38461538       0.38461538       0.00000000 </v>
   <v>       0.46153846       0.46153846       0.00000000 </v>
   <v>      -0.46153846       0.46153846       0.00000000 </v>
   <v>       0.23076923       0.15384615       0.07692308 </v>
   <v>       0.30769231       0.15384615       0.07692308 </v>
   <v>       0.38461538       0.15384615       0.07692308 </v>
   <v>       0.46153846       0.15384615       0.07692308 </v>
   <v>      -0.46153846       0.15384615       0.07692308 </v>
   <v>       0.30769231       0.23076923       0.07692308 </v>
   <v>       0.38461538       0.23076923       0.07692308 </v>
   <v>       0.46153846       0.23076923       0.07692308 </v>
   <v>      -0.46153846       0.23076923       0.07692308 </v>
   <v>      -0.38461538       0.23076923       0.07692308 </v>
   <v>      -0.30769231       0.23076923       0.07692308 </v>
   <v>      -0.23076923       0.23076923       0.07692308 </v>
   <v>      -0.15384615       0.23076923       0.07692308 </v>
   <v>       0.38461538       0.30769231       0.07692308 </v>
   <v>       0.46153846       0.30769231       0.07692308 </v>
   <v>      -0.46153846       0.30769231       0.07692308 </v>
   <v>      -0.38461538       0.30769231       0.07692308 </v>
   <v>      -0.30769231       0.30769231       0.07692308 </v>
   <v>      -0.23076923       0.30769231       0.07692308 </v>
   <v>       0.46153846       0.38461538       0.07692308 </v>
   <v>      -0.46153846       0.38461538       0.07692308 </v>
   <v>      -0.38461538       0.38461538       0.07692308 </v>
   <v>      -0.30769231       0.38461538       0.07692308 </v>
   <v>      -0.46153846       0.46153846       0.07692308 </v>
   <v>      -0.38461538       0.46153846       0.07692308 </v>
   <v>       0.46153846       0.30769231       0.15384615 </v>
   <v>      -0.46153846       0.30769231       0.15384615 </v>
   <v>      -0.38461538       0.30769231       0.15384615 </v>
   <v>      -0.46153846       0.38461538       0.15384615 </v>
   <v>      -0.38461538       0.38461538       0.15384615 </v>
   <v>      -0.30769231       0.38461538       0.15384615 </v>
   <v>      -0.23076923       0.38461538       0.15384615 </v>
   <v>      -0.38461538       0.46153846       0.15384615 </v>
   <v>      -0.30769231       0.46153846       0.15384615 </v>
   <v>      -0.30769231       0.46153846       0.23076923 </v>
  </varray>
  <varray name="weights" >
   <v>       0.00045517 </v>
   <v>       0.00364133 </v>
   <v>       0.00364133 </v>
   <v>       0.00364133 </v>
   <v>       0.00364133 </v>
   <v>       0.00364133 </v>
   <v>       0.00364133 </v>
   <v>       0.00273100 </v>
   <v>       0.01092399 </v>
   <v>       0.01092399 </v>
   <v>       0.01092399 </v>
   <v>       0.01092399 </v>
   <v>       0.01092399 </v>
   <v>       0.01092399 </v>
   <v>       0.01092399 </v>
   <v>       0.01092399 </v>
   <v>       0.01092399 </v>
   <v>       0.01092399 </v>
   <v>       0.00546199 </v>
   <v>       0.00273100 </v>
   <v>       0.01092399 </v>
   <v>       0.01092399 </v>
   <v>       0.01092399 </v>
   <v>       0.01092399 </v>
   <v>       0.01092399 </v>
   <v>       0.01092399 </v>
   <v>       0.01092399 </v>
   <v>       0.01092399 </v>
   <v>       0.00546199 </v>
   <v>       0.00273100 </v>
   <v>       0.01092399 </v>
   <v>       0.01092399 </v>
   <v>       0.01092399 </v>
   <v>       0.01092399 </v>
   <v>       0.01092399 </v>
   <v>       0.01092399 </v>
   <v>       0.00546199 </v>
   <v>       0.00273100 </v>
   <v>       0.01092399 </v>
   <v>       0.01092399 </v>
   <v>       0.01092399 </v>
   <v>       0.01092399 </v>
   <v>       0.00546199 </v>
   <v>       0.00273100 </v>
   <v>       0.01092399 </v>
   <v>       0.01092399 </v>
   <v>       0.00546199 </v>
   <v>       0.00273100 </v>
   <v>       0.00546199 </v>
   <v>       0.01092399 </v>
   <v>       0.02184797 </v>
   <v>       0.02184797 </v>
   <v>       0.02184797 </v>
   <v>       0.02184797 </v>
   <v>       0.01092399 </v>
   <v>       0.02184797 </v>
   <v>       0.02184797 </v>
   <v>       0.02184797 </v>
   <v>       0.02184797 </v>
   <v>       0.02184797 </v>
   <v>       0.02184797 </v>
   <v>       0.01092399 </v>
   <v>       0.01092399 </v>
   <v>       0.02184797 </v>
   <v>       0.02184797 </v>
   <v>       0.02184797 </v>
   <v>       0.02184797 </v>
   <v>       0.01092399 </v>
   <v>       0.01092399 </v>
   <v>       0.02184797 </v>
   <v>       0.02184797 </v>
   <v>       0.01092399 </v>
   <v>       0.01092399 </v>
   <v>       0.01092399 </v>
   <v>       0.01092399 </v>
   <v>       0.02184797 </v>
   <v>       0.02184797 </v>
   <v>       0.01092399 </v>
   <v>       0.02184797 </v>
   <v>       0.02184797 </v>
   <v>       0.01092399 </v>
   <v>       0.01092399 </v>
   <v>       0.01092399 </v>
   <v>       0.01092399 </v>
  </varray>
 </kpoints>
 <parameters>
  <separator name="general" >
   <i type="string" name="SYSTEM">unknown system</i>
   <i type="logical" name="LCOMPAT"> F  </i>
  </separator>
  <separator name="electronic" >
   <i type="string" name="PREC">accura</i>
   <i name="ENMAX">    680.00000000</i>
   <i name="ENAUG">    291.05200000</i>
   <i name="EDIFF">      0.00001000</i>
   <i type="int" name="IALGO">    58</i>
   <i type="int" name="IWAVPR">    11</i>
   <i type="int" name="NBANDS">    32</i>
   <i type="int" name="NBANDSLOW">    -1</i>
   <i type="int" name="NBANDSHIGH">    -1</i>
   <i name="NELECT">      3.00000000</i>
   <i type="int" name="TURBO">     0</i>
   <i type="int" name="IRESTART">     0</i>
   <i type="int" name="NREBOOT">     0</i>
   <i type="int" name="NMIN">     0</i>
   <i name="EREF">      0.00000000</i>
   <separator name="electronic smearing" >
    <i type="int" name="ISMEAR">     2</i>
    <i name="SIGMA">      0.20000000</i>
    <i name="KSPACING">      0.22000000</i>
    <i type="logical" name="KGAMMA"> T  </i>
    <i type="logical" name="KBLOWUP"> T  </i>
   </separator>
   <separator name="electronic projectors" >
    <i type="logical" name="LREAL"> F  </i>
    <v name="ROPT">      0.00000000</v>
    <i type="int" name="LMAXPAW">  -100</i>
    <i type="int" name="LMAXMIX">     2</i>
    <i type="logical" name="NLSPLINE"> F  </i>
   </separator>
   <separator name="electronic startup" >
    <i type="int" name="ISTART">     0</i>
    <i type="int" name="ICHARG">     2</i>
    <i type="int" name="INIWAV">     1</i>
   </separator>
   <separator name="electronic spin" >
    <i type="int" name="ISPIN">     2</i>
    <i type="logical" name="LNONCOLLINEAR"> F  </i>
    <v name="MAGMOM">      0.00000000</v>
    <i name="NUPDOWN">     -1.00000000</i>
    <i type="logical" name="LSORBIT"> F  </i>
    <v name="SAXIS">      0.00000000      0.00000000      1.00000000</v>
    <i type="logical" name="LSPIRAL"> F  </i>
    <v name="QSPIRAL">      0.00000000      0.00000000      0.00000000</v>
    <i type="logical" name="LZEROZ"> F  </i>
   </separator>
   <separator name="electronic exchange-correlation" >
    <i type="logical" name="LASPH"> T  </i>
    <i type="logical" name="LMETAGGA"> F  </i>
   </separator>
   <separator name="electronic convergence" >
    <i type="int" name="NELM">   200</i>
    <i type="int" name="NELMDL">    -5</i>
    <i type="int" name="NELMIN">     2</i>
    <i name="ENINI">    680.00000000</i>
    <separator name="electronic convergence detail" >
     <i type="logical" name="LDIAG"> T  </i>
     <i type="logical" name="LSUBROT"> F  </i>
     <i name="WEIMIN">      0.00100000</i>
     <i name="EBREAK">      0.00000008</i>
     <i name="DEPER">      0.30000000</i>
     <i type="int" name="NRMM">     4</i>
     <i name="TIME">      0.40000000</i>
    </separator>
   </separator>
   <separator name="electronic mixer" >
    <i name="AMIX">      0.40000000</i>
    <i name="BMIX">      1.00000000</i>
    <i name="AMIN">      0.10000000</i>
    <i name="AMIX_MAG">      1.60000000</i>
    <i name="BMIX_MAG">      1.00000000</i>
    <separator name="electronic mixer details" >
     <i type="int" name="IMIX">     4</i>
     <i type="logical" name="MIXFIRST"> F  </i>
     <i type="int" name="MAXMIX">   -45</i>
     <i name="WC">    100.00000000</i>
     <i type="int" name="INIMIX">     1</i>
     <i type="int" name="MIXPRE">     1</i>
     <i type="int" name="MREMOVE">     5</i>
    </separator>
   </separator>
   <separator name="electronic dipolcorrection" >
    <i type="logical" name="LDIPOL"> F  </i>
    <i type="logical" name="LMONO"> F  </i>
    <i type="int" name="IDIPOL">     0</i>
    <i name="EPSILON">      1.00000000</i>
    <v name="DIPOL">   -100.00000000   -100.00000000   -100.00000000</v>
    <i name="EFIELD">      0.00000000</i>
   </separator>
  </separator>
  <separator name="grids" >
   <i type="int" name="NGX">    24</i>
   <i type="int" name="NGY">    24</i>
   <i type="int" name="NGZ">    24</i>
   <i type="int" name="NGXF">    48</i>
   <i type="int" name="NGYF">    48</i>
   <i type="int" name="NGZF">    48</i>
   <i type="logical" name="ADDGRID"> T  </i>
  </separator>
  <separator name="ionic" >
   <i type="int" name="NSW">    99</i>
   <i type="int" name="IBRION">     2</i>
   <i type="int" name="MDALGO">     0</i>
   <i type="int" name="ISIF">     3</i>
   <i name="PSTRESS">      0.00000000</i>
   <i name="EDIFFG">     -0.05000000</i>
   <i type="int" name="NFREE">     1</i>
   <i name="POTIM">      0.50000000</i>
   <i name="SMASS">     -3.00000000</i>
   <i name="SCALEE">      1.00000000</i>
  </separator>
  <separator name="ionic md" >
   <i name="TEBEG">      0.00010000</i>
   <i name="TEEND">      0.00010000</i>
   <i type="int" name="NBLOCK">     1</i>
   <i type="int" name="KBLOCK">    99</i>
   <i type="int" name="NPACO">   256</i>
   <i name="APACO">     16.00000000</i>
  </separator>
  <separator name="symmetry" >
   <i type="int" name="ISYM">     2</i>
   <i name="SYMPREC">      0.00001000</i>
  </separator>
  <separator name="dos" >
   <i type="int" name="LORBIT">    11</i>
   <v name="RWIGS">     -1.00000000</v>
   <i type="int" name="NEDOS">   301</i>
   <i name="EMIN">     10.00000000</i>
   <i name="EMAX">    -10.00000000</i>
   <i name="EFERMI">      0.00000000</i>
  </separator>
  <separator name="writing" >
   <i type="int" name="NWRITE">     2</i>
   <i type="logical" name="LWAVE"> T  </i>
   <i type="logical" name="LDOWNSAMPLE"> F  </i>
   <i type="logical" name="LCHARG"> T  </i>
   <i type="logical" name="LPARD"> F  </i>
   <i type="logical" name="LVTOT"> T  </i>
   <i type="logical" name="LVHAR"> F  </i>
   <i type="logical" name="LELF"> T  </i>
   <i type="logical" name="LOPTICS"> F  </i>
   <v name="STM">      0.00000000      0.00000000      0.00000000      0.00000000      0.00000000      0.00000000      0.00000000</v>
  </separator>
  <separator name="performance" >
   <i type="int" name="NPAR">    32</i>
   <i type="int" name="NSIM">     4</i>
   <i type="int" name="NBLK">    -1</i>
   <i type="logical" name="LPLANE"> T  </i>
   <i type="logical" name="LSCALAPACK"> T  </i>
   <i type="logical" name="LSCAAWARE"> T  </i>
   <i type="logical" name="LSCALU"> F  </i>
   <i type="logical" name="LASYNC"> F  </i>
   <i type="logical" name="LORBITALREAL"> F  </i>
  </separator>
  <separator name="miscellaneous" >
   <i type="int" name="IDIOT">     3</i>
   <i type="int" name="PHON_NSTRUCT">    -1</i>
   <i type="logical" name="LMUSIC"> F  </i>
   <v name="POMASS">     26.98100000</v>
   <v name="DARWINR">      0.00000000</v>
   <v name="DARWINV">      1.00000000</v>
   <i type="logical" name="LCORR"> T  </i>
  </separator>
  <i type="logical" name="GGA_COMPAT"> T  </i>
  <i type="logical" name="LBERRY"> F  </i>
  <i type="int" name="ICORELEVEL">     0</i>
  <i type="logical" name="LDAU"> F  </i>
  <i type="int" name="I_CONSTRAINED_M">     0</i>
  <separator name="electronic exchange-correlation" >
   <i type="string" name="GGA">--</i>
   <i type="int" name="VOSKOWN">     0</i>
   <i type="logical" name="LHFCALC"> F  </i>
   <i type="string" name="PRECFOCK"></i>
   <i type="logical" name="LSYMGRAD"> F  </i>
   <i type="logical" name="LHFONE"> F  </i>
   <i type="logical" name="LRHFCALC"> F  </i>
   <i type="logical" name="LTHOMAS"> F  </i>
   <i type="logical" name="LMODELHF"> F  </i>
   <i type="logical" name="LFOCKACE"> F  </i>
   <i name="ENCUT4O">     -1.00000000</i>
   <i type="int" name="EXXOEP">     0</i>
   <i type="int" name="FOURORBIT">     0</i>
   <i name="AEXX">      0.00000000</i>
   <i name="HFALPHA">      0.00000000</i>
   <i name="MCALPHA">      0.00000000</i>
   <i name="ALDAX">      1.00000000</i>
   <i name="AGGAX">      1.00000000</i>
   <i name="ALDAC">      1.00000000</i>
   <i name="AGGAC">      1.00000000</i>
   <i type="int" name="NKREDX">     1</i>
   <i type="int" name="NKREDY">     1</i>
   <i type="int" name="NKREDZ">     1</i>
   <i type="logical" name="SHIFTRED"> F  </i>
   <i type="logical" name="ODDONLY"> F  </i>
   <i type="logical" name="EVENONLY"> F  </i>
   <i type="int" name="LMAXFOCK">     0</i>
   <i type="int" name="NMAXFOCKAE">     0</i>
   <i type="logical" name="LFOCKAEDFT"> F  </i>
   <i name="HFSCREEN">      0.00000000</i>
   <i name="HFSCREENC">      0.00000000</i>
   <i type="int" name="NBANDSGWLOW">     0</i>
  </separator>
  <separator name="vdW DFT" >
   <i type="logical" name="LUSE_VDW"> F  </i>
   <i name="Zab_VDW">     -0.84910000</i>
   <i name="PARAM1">      0.12340000</i>
   <i name="PARAM2">      1.00000000</i>
   <i name="PARAM3">      0.00000000</i>
  </separator>
  <separator name="model GW" >
   <i type="int" name="MODEL_GW">     0</i>
   <i name="MODEL_EPS0">      9.88303058</i>
   <i name="MODEL_ALPHA">      1.00000000</i>
  </separator>
  <separator name="linear response parameters" >
   <i type="logical" name="LEPSILON"> F  </i>
   <i type="logical" name="LRPA"> F  </i>
   <i type="logical" name="LNABLA"> F  </i>
   <i type="logical" name="LVEL"> F  </i>
   <i type="int" name="KINTER">     0</i>
   <i name="CSHIFT">      0.10000000</i>
   <i name="OMEGAMAX">     -1.00000000</i>
   <i name="DEG_THRESHOLD">      0.00200000</i>
   <i name="RTIME">     -0.10000000</i>
   <i name="WPLASMAI">      0.00000000</i>
   <v name="DFIELD">      0.00000000      0.00000000      0.00000000</v>
   <v name="WPLASMA">      0.00000000      0.00000000      0.00000000      0.00000000      0.00000000      0.00000000      0.00000000      0.00000000      0.00000000</v>
  </separator>
  <separator name="orbital magnetization" >
   <i type="logical" name="NUCIND"> F  </i>
   <v name="MAGPOS">      0.00000000      0.00000000      0.00000000</v>
   <i type="logical" name="LNICSALL"> T  </i>
   <i type="logical" name="ORBITALMAG"> F  </i>
   <i type="logical" name="LMAGBLOCH"> F  </i>
   <i type="logical" name="LCHIMAG"> F  </i>
   <i type="logical" name="LGAUGE"> T  </i>
   <i type="int" name="MAGATOM">     0</i>
   <v name="MAGDIPOL">      0.00000000      0.00000000      0.00000000</v>
   <v name="AVECCONST">      0.00000000      0.00000000      0.00000000</v>
  </separator>
  <separator name="response functions" >
   <i type="logical" name="LFINITE_TEMPERATURE"> F  </i>
   <i type="logical" name="LADDER"> F  </i>
   <i type="logical" name="LRPAFORCE"> F  </i>
   <i type="logical" name="LFXC"> F  </i>
   <i type="logical" name="LHARTREE"> T  </i>
   <i type="int" name="IBSE">     0</i>
   <v type="int" name="KPOINT">    -1     0     0     0</v>
   <i type="logical" name="LTCTC"> F  </i>
   <i type="logical" name="LTCTE"> F  </i>
   <i type="logical" name="LTETE"> F  </i>
   <i type="logical" name="LTRIPLET"> F  </i>
   <i type="logical" name="LFXCEPS"> F  </i>
   <i type="logical" name="LFXHEG"> F  </i>
   <i type="int" name="NATURALO">     2</i>
   <i type="logical" name="L2ORDER"> F  </i>
   <i type="logical" name="LDMP1"> F  </i>
   <i type="logical" name="LMP2LT"> F  </i>
   <i type="logical" name="LSMP2LT"> F  </i>
   <i type="logical" name="LUSEW"> F  </i>
   <i name="ENCUTGW">     -2.00000000</i>
   <i name="ENCUTGWSOFT">     -2.00000000</i>
   <i name="ENCUTLF">     -1.00000000</i>
   <i type="int" name="LMAXMP2">    -1</i>
   <i name="SCISSOR">      0.00000000</i>
   <i type="int" name="NOMEGA">     0</i>
   <i type="int" name="NOMEGAR">     0</i>
   <i type="int" name="NBANDSGW">    -1</i>
   <i type="int" name="NBANDSO">    -1</i>
   <i type="int" name="NBANDSV">    -1</i>
   <i type="int" name="NELM">   200</i>
   <i type="int" name="NELMHF">     1</i>
   <i type="int" name="DIM">     3</i>
   <i type="int" name="IESPILON">     4</i>
   <i type="int" name="ANTIRES">     0</i>
   <i name="OMEGAMAX">    -30.00000000</i>
   <i name="OMEGAMIN">    -30.00000000</i>
   <i name="OMEGATL">   -200.00000000</i>
   <i type="int" name="OMEGAGRID">   145</i>
   <i name="CSHIFT">     -0.10000000</i>
   <i type="logical" name="LSELFENERGY"> F  </i>
   <i type="logical" name="LSPECTRAL"> F  </i>
   <i type="logical" name="LSPECTRALGW"> F  </i>
   <i type="logical" name="LSINGLES"> F  </i>
   <i type="logical" name="LFERMIGW"> F  </i>
   <i type="logical" name="ODDONLYGW"> F  </i>
   <i type="logical" name="EVENONLYGW"> F  </i>
   <i type="int" name="NKREDLFX">     1</i>
   <i type="int" name="NKREDLFY">     1</i>
   <i type="int" name="NKREDLFZ">     1</i>
   <i type="int" name="MAXMEM">  2800</i>
   <i type="int" name="TELESCOPE">     0</i>
   <i type="int" name="NTAUPAR">     1</i>
   <i type="int" name="NOMEGAPAR">    -1</i>
   <i name="LAMBDA">      1.00000000</i>
  </separator>
  <separator name="External order field" >
   <i name="OFIELD_KAPPA">      0.00000000</i>
   <v name="OFIELD_K">      0.00000000      0.00000000      0.00000000</v>
   <i name="OFIELD_Q6_NEAR">      0.00000000</i>
   <i name="OFIELD_Q6_FAR">      0.00000000</i>
   <i name="OFIELD_A">      0.00000000</i>
  </separator>
 </parameters>
 <atominfo>
  <atoms>       1 </atoms>
  <types>       1 </types>
  <array name="atoms" >
   <dimension dim="1">ion</dimension>
   <field type="string">element</field>
   <field type="int">atomtype</field>
   <set>
    <rc><c>Al</c><c>   1</c></rc>
   </set>
  </array>
  <array name="atomtypes" >
   <dimension dim="1">type</dimension>
   <field type="int">atomspertype</field>
   <field type="string">element</field>
   <field>mass</field>
   <field>valence</field>
   <field type="string">pseudopotential</field>
   <set>
    <rc><c>   1</c><c>Al</c><c>     26.98100000</c><c>      3.00000000</c><c>  PAW_PBE Al 04Jan2001                  </c></rc>
   </set>
  </array>
 </atominfo>
 <structure name="initialpos" >
  <crystal>
   <varray name="basis" >
    <v>       2.47332900       0.00000000       1.42797700 </v>
    <v>       0.82444300       2.33187700       1.42797700 </v>
    <v>       0.00000000       0.00000000       2.85595500 </v>
   </varray>
   <i name="volume">     16.47171763 </i>
   <varray name="rec_basis" >
    <v>       0.40431338      -0.14294636       0.00000000 </v>
    <v>       0.00000000       0.42883909       0.00000000 </v>
    <v>      -0.20215662      -0.14294631       0.35014557 </v>
   </varray>
  </crystal>
  <varray name="positions" >
   <v>       0.00000000       0.00000000       0.00000000 </v>
  </varray>
 </structure>
 <calculation>
  <scstep>
   <time name="total">   23.50    6.32</time>
   <energy>
    <i name="alphaZ">     -0.20391376 </i>
    <i name="ewald">    -73.55777243 </i>
    <i name="hartreedc">     -0.10076170 </i>
    <i name="XCdc">    -26.23665293 </i>
    <i name="pawpsdc">     66.20015713 </i>
    <i name="pawaedc">    -34.24562076 </i>
    <i name="eentropy">      0.00041372 </i>
    <i name="bandstr">     11.23425138 </i>
    <i name="atom">     53.53856935 </i>
    <i name="e_fr_energy">     -3.37132999 </i>
    <i name="e_wo_entrp">     -3.37174371 </i>
    <i name="e_0_energy">     -3.37143342 </i>
   </energy>
  </scstep>
  <scstep>
   <time name="total">   30.43    7.61</time>
   <energy>
    <i name="e_fr_energy">     -3.76483808 </i>
    <i name="e_wo_entrp">     -3.76490623 </i>
    <i name="e_0_energy">     -3.76485512 </i>
   </energy>
  </scstep>
  <scstep>
   <time name="total">   20.28    5.07</time>
   <energy>
    <i name="e_fr_energy">     -3.76492238 </i>
    <i name="e_wo_entrp">     -3.76499096 </i>
    <i name="e_0_energy">     -3.76493953 </i>
   </energy>
  </scstep>
  <scstep>
   <time name="total">   42.79   10.70</time>
   <energy>
    <i name="e_fr_energy">     -3.76492239 </i>
    <i name="e_wo_entrp">     -3.76499096 </i>
    <i name="e_0_energy">     -3.76493953 </i>
   </energy>
  </scstep>
  <scstep>
   <time name="total">   20.79    5.20</time>
   <energy>
    <i name="e_fr_energy">     -3.76492239 </i>
    <i name="e_wo_entrp">     -3.76499096 </i>
    <i name="e_0_energy">     -3.76493953 </i>
   </energy>
  </scstep>
  <scstep>
   <time name="total">   23.60    6.81</time>
   <energy>
    <i name="e_fr_energy">     -3.74100730 </i>
    <i name="e_wo_entrp">     -3.74116143 </i>
    <i name="e_0_energy">     -3.74104583 </i>
   </energy>
  </scstep>
  <scstep>
   <time name="total">   23.51    6.78</time>
   <energy>
    <i name="e_fr_energy">     -3.74223366 </i>
    <i name="e_wo_entrp">     -3.74240992 </i>
    <i name="e_0_energy">     -3.74227772 </i>
   </energy>
  </scstep>
  <scstep>
   <time name="total">   23.48    6.77</time>
   <energy>
    <i name="e_fr_energy">     -3.74238511 </i>
    <i name="e_wo_entrp">     -3.74256109 </i>
    <i name="e_0_energy">     -3.74242910 </i>
   </energy>
  </scstep>
  <scstep>
   <time name="total">   31.23    8.71</time>
   <energy>
    <i name="alphaZ">     -0.20391376 </i>
    <i name="ewald">    -73.55777243 </i>
    <i name="hartreedc">     -0.10637382 </i>
    <i name="XCdc">    -26.12574321 </i>
    <i name="pawpsdc">    140.89130068 </i>
    <i name="pawaedc">   -108.94931377 </i>
    <i name="eentropy">      0.00017573 </i>
    <i name="bandstr">     10.77068390 </i>
    <i name="atom">     53.53856935 </i>
    <i name="e_fr_energy">     -3.74238706 </i>
    <i name="e_wo_entrp">     -3.74256279 </i>
    <i name="e_0_energy">     -3.74243100 </i>
   </energy>
  </scstep>
  <structure>
   <crystal>
    <varray name="basis" >
     <v>       2.47332900       0.00000000       1.42797700 </v>
     <v>       0.82444300       2.33187700       1.42797700 </v>
     <v>       0.00000000       0.00000000       2.85595500 </v>
    </varray>
    <i name="volume">     16.47171763 </i>
    <varray name="rec_basis" >
     <v>       0.40431338      -0.14294636       0.00000000 </v>
     <v>       0.00000000       0.42883909       0.00000000 </v>
     <v>      -0.20215662      -0.14294631       0.35014557 </v>
    </varray>
   </crystal>
   <varray name="positions" >
    <v>       0.00000000       0.00000000       0.00000000 </v>
   </varray>
  </structure>
  <varray name="forces" >
   <v>      -0.00000000      -0.00000000       0.00000000 </v>
  </varray>
  <varray name="stress" >
   <v>      -0.30378505       0.00000000       0.00000006 </v>
   <v>       0.00000000      -0.30378506       0.00000004 </v>
   <v>       0.00000006       0.00000004      -0.30378519 </v>
  </varray>
  <energy>
   <i name="e_fr_energy">     -3.74238706 </i>
   <i name="e_wo_entrp">     -3.74243100 </i>
   <i name="e_0_energy">      0.00017573 </i>
  </energy>
  <time name="totalsc">  248.18   68.92</time>
  <eigenvalues>
   <array>
    <dimension dim="1">band</dimension>
    <dimension dim="2">kpoint</dimension>
    <dimension dim="3">spin</dimension>
    <field>eigene</field>
    <field>occ</field>
    <set>
     <set comment="spin 1">
      <set comment="kpoint 1">
       <r>   -3.1282    1.0000 </r>
       <r>   20.6468    0.0000 </r>
       <r>   20.6469    0.0000 </r>
       <r>   20.6469    0.0000 </r>
       <r>   22.1515    0.0000 </r>
       <r>   22.1515    0.0000 </r>
       <r>   22.1515    0.0000 </r>
       <r>   24.4968    0.0000 </r>
       <r>   27.4539    0.0000 </r>
       <r>   27.4539    0.0000 </r>
       <r>   30.3282    0.0000 </r>
       <r>   32.6813    0.0000 </r>
       <r>   32.6813    0.0000 </r>
       <r>   32.6813    0.0000 </r>
       <r>   41.3246    0.0000 </r>
       <r>   56.0938    0.0000 </r>
       <r>   56.0938    0.0000 </r>
       <r>   56.0938    0.0000 </r>
       <r>   56.1547    0.0000 </r>
       <r>   59.5062    0.0000 </r>
       <r>   59.5062    0.0000 </r>
       <r>   59.5062    0.0000 </r>
       <r>   63.1391    0.0000 </r>
       <r>   63.1391    0.0000 </r>
       <r>   65.3803    0.0000 </r>
       <r>   65.3803    0.0000 </r>
       <r>   65.3804    0.0000 </r>
       <r>   73.5423    0.0000 </r>
       <r>   73.5423    0.0000 </r>
       <r>   73.5423    0.0000 </r>
       <r>   81.2254    0.0000 </r>
       <r>   83.4759    0.0000 </r>
      </set>
      <set comment="kpoint 2">
       <r>   -2.9672    1.0000 </r>
       <r>   18.2890    0.0000 </r>
       <r>   20.1400    0.0000 </r>
       <r>   20.1400    0.0000 </r>
       <r>   22.8030    0.0000 </r>
       <r>   22.9061    0.0000 </r>
       <r>   22.9061    0.0000 </r>
       <r>   26.0909    0.0000 </r>
       <r>   26.5983    0.0000 </r>
       <r>   26.5983    0.0000 </r>
       <r>   29.7585    0.0000 </r>
       <r>   33.4933    0.0000 </r>
       <r>   33.8617    0.0000 </r>
       <r>   33.8617    0.0000 </r>
       <r>   41.9571    0.0000 </r>
       <r>   55.5359    0.0000 </r>
       <r>   55.8795    0.0000 </r>
       <r>   55.8795    0.0000 </r>
       <r>   56.4208    0.0000 </r>
       <r>   57.8669    0.0000 </r>
       <r>   57.8670    0.0000 </r>
       <r>   59.4823    0.0000 </r>
       <r>   61.9528    0.0000 </r>
       <r>   61.9528    0.0000 </r>
       <r>   65.5245    0.0000 </r>
       <r>   68.5264    0.0000 </r>
       <r>   68.5264    0.0000 </r>
       <r>   72.2752    0.0000 </r>
       <r>   73.3908    0.0000 </r>
       <r>   73.3908    0.0000 </r>
       <r>   82.5793    0.0000 </r>
       <r>   82.5916    0.0000 </r>
      </set>
      <set comment="kpoint 3">
       <r>   -2.4853    1.0000 </r>
       <r>   15.1782    0.0000 </r>
       <r>   19.4734    0.0000 </r>
       <r>   19.4734    0.0000 </r>
       <r>   22.6650    0.0000 </r>
       <r>   24.0500    0.0000 </r>
       <r>   24.0500    0.0000 </r>
       <r>   25.3201    0.0000 </r>
       <r>   25.3201    0.0000 </r>
       <r>   28.5464    0.0000 </r>
       <r>   29.0532    0.0000 </r>
       <r>   35.6029    0.0000 </r>
       <r>   36.3659    0.0000 </r>
       <r>   36.3659    0.0000 </r>
       <r>   43.6160    0.0000 </r>
       <r>   53.3458    0.0000 </r>
       <r>   53.3458    0.0000 </r>
       <r>   54.5220    0.0000 </r>
       <r>   56.5497    0.0000 </r>
       <r>   56.5497    0.0000 </r>
       <r>   56.6089    0.0000 </r>
       <r>   59.2538    0.0000 </r>
       <r>   61.9118    0.0000 </r>
       <r>   61.9118    0.0000 </r>
       <r>   65.9519    0.0000 </r>
       <r>   70.0400    0.0000 </r>
       <r>   71.6049    0.0000 </r>
       <r>   71.6050    0.0000 </r>
       <r>   73.5596    0.0000 </r>
       <r>   73.5596    0.0000 </r>
       <r>   80.1176    0.0000 </r>
       <r>   80.1185    0.0000 </r>
      </set>
      <set comment="kpoint 4">
       <r>   -1.6857    1.0000 </r>
       <r>   12.1796    0.0000 </r>
       <r>   19.0142    0.0000 </r>
       <r>   19.0142    0.0000 </r>
       <r>   22.4301    0.0000 </r>
       <r>   23.1401    0.0000 </r>
       <r>   23.1401    0.0000 </r>
       <r>   26.4483    0.0000 </r>
       <r>   26.4483    0.0000 </r>
       <r>   27.1490    0.0000 </r>
       <r>   31.9699    0.0000 </r>
       <r>   38.7328    0.0000 </r>
       <r>   39.3686    0.0000 </r>
       <r>   39.3686    0.0000 </r>
       <r>   45.8984    0.0000 </r>
       <r>   49.5228    0.0000 </r>
       <r>   49.5228    0.0000 </r>
       <r>   53.0485    0.0000 </r>
       <r>   56.4514    0.0000 </r>
       <r>   56.4514    0.0000 </r>
       <r>   56.7977    0.0000 </r>
       <r>   58.6030    0.0000 </r>
       <r>   62.2701    0.0000 </r>
       <r>   62.2702    0.0000 </r>
       <r>   66.6436    0.0000 </r>
       <r>   67.8581    0.0000 </r>
       <r>   69.9821    0.0000 </r>
       <r>   69.9822    0.0000 </r>
       <r>   74.9602    0.0000 </r>
       <r>   74.9606    0.0000 </r>
       <r>   77.5014    0.0000 </r>
       <r>   79.1794    0.0000 </r>
      </set>
      <set comment="kpoint 5">
       <r>   -0.5737    1.0000 </r>
       <r>    9.3906    0.0000 </r>
       <r>   18.8092    0.0000 </r>
       <r>   18.8092    0.0000 </r>
       <r>   21.7989    0.0000 </r>
       <r>   21.7989    0.0000 </r>
       <r>   22.3433    0.0000 </r>
       <r>   25.7915    0.0000 </r>
       <r>   28.4609    0.0000 </r>
       <r>   28.4609    0.0000 </r>
       <r>   34.7283    0.0000 </r>
       <r>   42.2357    0.0000 </r>
       <r>   42.2357    0.0000 </r>
       <r>   42.4999    0.0000 </r>
       <r>   46.3516    0.0000 </r>
       <r>   46.3517    0.0000 </r>
       <r>   48.3109    0.0000 </r>
       <r>   51.4473    0.0000 </r>
       <r>   56.4231    0.0000 </r>
       <r>   56.4231    0.0000 </r>
       <r>   57.0255    0.0000 </r>
       <r>   57.5360    0.0000 </r>
       <r>   62.5292    0.0000 </r>
       <r>   62.5292    0.0000 </r>
       <r>   65.6350    0.0000 </r>
       <r>   66.5165    0.0000 </r>
       <r>   66.5165    0.0000 </r>
       <r>   67.5518    0.0000 </r>
       <r>   74.1521    0.0000 </r>
       <r>   74.4954    0.0000 </r>
       <r>   74.4955    0.0000 </r>
       <r>   77.3665    0.0000 </r>
      </set>
      <set comment="kpoint 6">
       <r>    0.8434    1.0000 </r>
       <r>    6.8468    1.0000 </r>
       <r>   18.8697    0.0000 </r>
       <r>   18.8697    0.0000 </r>
       <r>   20.6705    0.0000 </r>
       <r>   20.6705    0.0000 </r>
       <r>   22.4936    0.0000 </r>
       <r>   24.5962    0.0000 </r>
       <r>   30.6428    0.0000 </r>
       <r>   30.6428    0.0000 </r>
       <r>   37.3249    0.0000 </r>
       <r>   41.4839    0.0000 </r>
       <r>   41.4839    0.0000 </r>
       <r>   46.1613    0.0000 </r>
       <r>   47.4635    0.0000 </r>
       <r>   47.4635    0.0000 </r>
       <r>   48.2845    0.0000 </r>
       <r>   52.7142    0.0000 </r>
       <r>   56.0804    0.0000 </r>
       <r>   56.3089    0.0000 </r>
       <r>   56.3089    0.0000 </r>
       <r>   57.3163    0.0000 </r>
       <r>   60.8359    0.0000 </r>
       <r>   60.8359    0.0000 </r>
       <r>   63.5066    0.0000 </r>
       <r>   64.5262    0.0000 </r>
       <r>   64.5263    0.0000 </r>
       <r>   68.4317    0.0000 </r>
       <r>   68.5530    0.0000 </r>
       <r>   74.1028    0.0000 </r>
       <r>   74.1028    0.0000 </r>
       <r>   76.8861    0.0000 </r>
      </set>
      <set comment="kpoint 7">
       <r>    2.5549    1.0000 </r>
       <r>    4.5701    1.0000 </r>
       <r>   19.1992    0.0000 </r>
       <r>   19.1992    0.0000 </r>
       <r>   19.8013    0.0000 </r>
       <r>   19.8013    0.0000 </r>
       <r>   22.9118    0.0000 </r>
       <r>   23.6344    0.0000 </r>
       <r>   32.4998    0.0000 </r>
       <r>   32.4998    0.0000 </r>
       <r>   39.2841    0.0000 </r>
       <r>   39.2841    0.0000 </r>
       <r>   39.3522    0.0000 </r>
       <r>   45.9386    0.0000 </r>
       <r>   50.0972    0.0000 </r>
       <r>   50.8493    0.0000 </r>
       <r>   50.8493    0.0000 </r>
       <r>   54.2003    0.0000 </r>
       <r>   55.4522    0.0000 </r>
       <r>   55.4522    0.0000 </r>
       <r>   55.8373    0.0000 </r>
       <r>   57.9992    0.0000 </r>
       <r>   58.0073    0.0000 </r>
       <r>   58.0073    0.0000 </r>
       <r>   61.7525    0.0000 </r>
       <r>   63.6167    0.0000 </r>
       <r>   64.5574    0.0000 </r>
       <r>   64.5574    0.0000 </r>
       <r>   69.3230    0.0000 </r>
       <r>   73.9409    0.0000 </r>
       <r>   73.9409    0.0000 </r>
       <r>   75.8234    0.0000 </r>
      </set>
      <set comment="kpoint 8">
       <r>   -2.9136    1.0000 </r>
       <r>   19.0907    0.0000 </r>
       <r>   19.0907    0.0000 </r>
       <r>   19.3775    0.0000 </r>
       <r>   21.6561    0.0000 </r>
       <r>   24.0209    0.0000 </r>
       <r>   24.0209    0.0000 </r>
       <r>   25.1102    0.0000 </r>
       <r>   26.1951    0.0000 </r>
       <r>   27.6526    0.0000 </r>
       <r>   30.5591    0.0000 </r>
       <r>   32.9272    0.0000 </r>
       <r>   32.9272    0.0000 </r>
       <r>   35.1674    0.0000 </r>
       <r>   42.2436    0.0000 </r>
       <r>   55.6118    0.0000 </r>
       <r>   55.6201    0.0000 </r>
       <r>   55.6201    0.0000 </r>
       <r>   56.5518    0.0000 </r>
       <r>   57.9720    0.0000 </r>
       <r>   57.9720    0.0000 </r>
       <r>   59.0087    0.0000 </r>
       <r>   59.6469    0.0000 </r>
       <r>   63.0924    0.0000 </r>
       <r>   67.2671    0.0000 </r>
       <r>   67.2671    0.0000 </r>
       <r>   69.7905    0.0000 </r>
       <r>   71.3671    0.0000 </r>
       <r>   73.7313    0.0000 </r>
       <r>   73.7313    0.0000 </r>
       <r>   81.4123    0.0000 </r>
       <r>   83.0888    0.0000 </r>
      </set>
      <set comment="kpoint 9">
       <r>   -2.5387    1.0000 </r>
       <r>   16.2825    0.0000 </r>
       <r>   18.2584    0.0000 </r>
       <r>   19.4764    0.0000 </r>
       <r>   21.9768    0.0000 </r>
       <r>   23.2821    0.0000 </r>
       <r>   24.3990    0.0000 </r>
       <r>   25.3178    0.0000 </r>
       <r>   27.1063    0.0000 </r>
       <r>   28.6358    0.0000 </r>
       <r>   30.0659    0.0000 </r>
       <r>   34.3303    0.0000 </r>
       <r>   34.4646    0.0000 </r>
       <r>   37.1345    0.0000 </r>
       <r>   43.7283    0.0000 </r>
       <r>   53.3496    0.0000 </r>
       <r>   54.0145    0.0000 </r>
       <r>   55.6471    0.0000 </r>
       <r>   56.0887    0.0000 </r>
       <r>   56.5326    0.0000 </r>
       <r>   57.0789    0.0000 </r>
       <r>   58.7423    0.0000 </r>
       <r>   59.6224    0.0000 </r>
       <r>   62.6039    0.0000 </r>
       <r>   68.0758    0.0000 </r>
       <r>   68.6229    0.0000 </r>
       <r>   71.1317    0.0000 </r>
       <r>   72.5070    0.0000 </r>
       <r>   73.0701    0.0000 </r>
       <r>   74.3314    0.0000 </r>
       <r>   79.1343    0.0000 </r>
       <r>   80.2605    0.0000 </r>
      </set>
      <set comment="kpoint 10">
       <r>   -1.8452    1.0000 </r>
       <r>   13.2672    0.0000 </r>
       <r>   17.6843    0.0000 </r>
       <r>   19.1515    0.0000 </r>
       <r>   21.3744    0.0000 </r>
       <r>   23.5633    0.0000 </r>
       <r>   24.2845    0.0000 </r>
       <r>   25.1955    0.0000 </r>
       <r>   27.5352    0.0000 </r>
       <r>   28.7360    0.0000 </r>
       <r>   31.6296    0.0000 </r>
       <r>   37.0067    0.0000 </r>
       <r>   37.4755    0.0000 </r>
       <r>   39.6538    0.0000 </r>
       <r>   45.9633    0.0000 </r>
       <r>   49.4258    0.0000 </r>
       <r>   51.0445    0.0000 </r>
       <r>   54.4140    0.0000 </r>
       <r>   55.7615    0.0000 </r>
       <r>   56.3737    0.0000 </r>
       <r>   57.1428    0.0000 </r>
       <r>   59.1423    0.0000 </r>
       <r>   59.1985    0.0000 </r>
       <r>   62.6277    0.0000 </r>
       <r>   66.8263    0.0000 </r>
       <r>   68.5777    0.0000 </r>
       <r>   70.6673    0.0000 </r>
       <r>   72.2434    0.0000 </r>
       <r>   73.5347    0.0000 </r>
       <r>   75.6252    0.0000 </r>
       <r>   76.7510    0.0000 </r>
       <r>   77.5509    0.0000 </r>
      </set>
      <set comment="kpoint 11">
       <r>   -0.8377    1.0000 </r>
       <r>   10.4173    0.0000 </r>
       <r>   17.3779    0.0000 </r>
       <r>   18.9086    0.0000 </r>
       <r>   19.8871    0.0000 </r>
       <r>   23.9065    0.0000 </r>
       <r>   24.0104    0.0000 </r>
       <r>   25.5466    0.0000 </r>
       <r>   27.4719    0.0000 </r>
       <r>   29.3777    0.0000 </r>
       <r>   34.4537    0.0000 </r>
       <r>   40.0219    0.0000 </r>
       <r>   41.2378    0.0000 </r>
       <r>   42.4103    0.0000 </r>
       <r>   45.8490    0.0000 </r>
       <r>   47.7746    0.0000 </r>
       <r>   48.5305    0.0000 </r>
       <r>   52.7007    0.0000 </r>
       <r>   55.8388    0.0000 </r>
       <r>   56.3837    0.0000 </r>
       <r>   57.2379    0.0000 </r>
       <r>   58.1560    0.0000 </r>
       <r>   59.7594    0.0000 </r>
       <r>   63.0097    0.0000 </r>
       <r>   64.4983    0.0000 </r>
       <r>   67.3986    0.0000 </r>
       <r>   68.3561    0.0000 </r>
       <r>   70.8257    0.0000 </r>
       <r>   72.0734    0.0000 </r>
       <r>   72.9978    0.0000 </r>
       <r>   76.6543    0.0000 </r>
       <r>   77.3423    0.0000 </r>
      </set>
      <set comment="kpoint 12">
       <r>    0.4773    1.0000 </r>
       <r>    7.7961    1.0151 </r>
       <r>   17.3423    0.0000 </r>
       <r>   18.6044    0.0000 </r>
       <r>   18.9319    0.0000 </r>
       <r>   22.7295    0.0000 </r>
       <r>   24.0974    0.0000 </r>
       <r>   25.8936    0.0000 </r>
       <r>   28.0993    0.0000 </r>
       <r>   31.3889    0.0000 </r>
       <r>   37.1264    0.0000 </r>
       <r>   40.9812    0.0000 </r>
       <r>   43.0140    0.0000 </r>
       <r>   45.1369    0.0000 </r>
       <r>   45.1755    0.0000 </r>
       <r>   47.1773    0.0000 </r>
       <r>   49.4869    0.0000 </r>
       <r>   52.6849    0.0000 </r>
       <r>   55.8452    0.0000 </r>
       <r>   56.3930    0.0000 </r>
       <r>   56.4395    0.0000 </r>
       <r>   57.5631    0.0000 </r>
       <r>   60.0999    0.0000 </r>
       <r>   61.1924    0.0000 </r>
       <r>   63.7816    0.0000 </r>
       <r>   64.2827    0.0000 </r>
       <r>   65.3786    0.0000 </r>
       <r>   70.7498    0.0000 </r>
       <r>   70.8352    0.0000 </r>
       <r>   71.2254    0.0000 </r>
       <r>   71.5251    0.0000 </r>
       <r>   76.1265    0.0000 </r>
      </set>
      <set comment="kpoint 13">
       <r>    2.0907    1.0000 </r>
       <r>    5.4319    1.0000 </r>
       <r>   17.5792    0.0000 </r>
       <r>   17.6333    0.0000 </r>
       <r>   19.1815    0.0000 </r>
       <r>   21.7853    0.0000 </r>
       <r>   24.3842    0.0000 </r>
       <r>   24.9823    0.0000 </r>
       <r>   30.3411    0.0000 </r>
       <r>   32.8793    0.0000 </r>
       <r>   39.2269    0.0000 </r>
       <r>   39.3974    0.0000 </r>
       <r>   40.4895    0.0000 </r>
       <r>   47.0755    0.0000 </r>
       <r>   48.4505    0.0000 </r>
       <r>   49.1861    0.0000 </r>
       <r>   50.5243    0.0000 </r>
       <r>   54.3559    0.0000 </r>
       <r>   55.2501    0.0000 </r>
       <r>   55.8218    0.0000 </r>
       <r>   56.2509    0.0000 </r>
       <r>   56.9443    0.0000 </r>
       <r>   58.9493    0.0000 </r>
       <r>   59.0600    0.0000 </r>
       <r>   62.2305    0.0000 </r>
       <r>   63.0502    0.0000 </r>
       <r>   64.3746    0.0000 </r>
       <r>   65.4823    0.0000 </r>
       <r>   70.1994    0.0000 </r>
       <r>   70.7104    0.0000 </r>
       <r>   71.7287    0.0000 </r>
       <r>   75.1817    0.0000 </r>
      </set>
      <set comment="kpoint 14">
       <r>    3.3152    1.0000 </r>
       <r>    4.0191    1.0000 </r>
       <r>   16.9249    0.0000 </r>
       <r>   18.0894    0.0000 </r>
       <r>   19.7230    0.0000 </r>
       <r>   21.1002    0.0000 </r>
       <r>   24.1378    0.0000 </r>
       <r>   25.0400    0.0000 </r>
       <r>   32.1386    0.0000 </r>
       <r>   32.2539    0.0000 </r>
       <r>   38.4154    0.0000 </r>
       <r>   39.7033    0.0000 </r>
       <r>   40.4645    0.0000 </r>
       <r>   46.3847    0.0000 </r>
       <r>   50.0231    0.0000 </r>
       <r>   50.9289    0.0000 </r>
       <r>   51.6921    0.0000 </r>
       <r>   53.8105    0.0000 </r>
       <r>   55.0416    0.0000 </r>
       <r>   55.3621    0.0000 </r>
       <r>   56.5102    0.0000 </r>
       <r>   57.2120    0.0000 </r>
       <r>   57.4776    0.0000 </r>
       <r>   58.9821    0.0000 </r>
       <r>   61.9500    0.0000 </r>
       <r>   62.4920    0.0000 </r>
       <r>   62.9582    0.0000 </r>
       <r>   64.8968    0.0000 </r>
       <r>   70.0973    0.0000 </r>
       <r>   70.3662    0.0000 </r>
       <r>   71.8606    0.0000 </r>
       <r>   74.9439    0.0000 </r>
      </set>
      <set comment="kpoint 15">
       <r>    1.5206    1.0000 </r>
       <r>    6.1892    1.0000 </r>
       <r>   16.4966    0.0000 </r>
       <r>   18.8716    0.0000 </r>
       <r>   20.5399    0.0000 </r>
       <r>   20.6825    0.0000 </r>
       <r>   23.6477    0.0000 </r>
       <r>   25.8422    0.0000 </r>
       <r>   30.1083    0.0000 </r>
       <r>   31.8361    0.0000 </r>
       <r>   38.5389    0.0000 </r>
       <r>   39.4441    0.0000 </r>
       <r>   42.1213    0.0000 </r>
       <r>   46.4956    0.0000 </r>
       <r>   47.2581    0.0000 </r>
       <r>   48.7283    0.0000 </r>
       <r>   50.0657    0.0000 </r>
       <r>   54.2935    0.0000 </r>
       <r>   55.3302    0.0000 </r>
       <r>   55.7811    0.0000 </r>
       <r>   56.0362    0.0000 </r>
       <r>   57.7765    0.0000 </r>
       <r>   58.8959    0.0000 </r>
       <r>   60.3189    0.0000 </r>
       <r>   61.9528    0.0000 </r>
       <r>   62.7303    0.0000 </r>
       <r>   64.8390    0.0000 </r>
       <r>   67.5898    0.0000 </r>
       <r>   70.3525    0.0000 </r>
       <r>   71.0322    0.0000 </r>
       <r>   71.2795    0.0000 </r>
       <r>   75.4082    0.0000 </r>
      </set>
      <set comment="kpoint 16">
       <r>    0.0053    1.0000 </r>
       <r>    8.6400    0.0000 </r>
       <r>   16.3511    0.0000 </r>
       <r>   19.9086    0.0000 </r>
       <r>   20.5451    0.0000 </r>
       <r>   21.6189    0.0000 </r>
       <r>   23.4045    0.0000 </r>
       <r>   26.8270    0.0000 </r>
       <r>   27.7800    0.0000 </r>
       <r>   30.0541    0.0000 </r>
       <r>   36.3713    0.0000 </r>
       <r>   40.8005    0.0000 </r>
       <r>   43.8784    0.0000 </r>
       <r>   44.1035    0.0000 </r>
       <r>   44.2850    0.0000 </r>
       <r>   47.5559    0.0000 </r>
       <r>   49.3976    0.0000 </r>
       <r>   51.8728    0.0000 </r>
       <r>   55.9799    0.0000 </r>
       <r>   56.1338    0.0000 </r>
       <r>   56.9984    0.0000 </r>
       <r>   57.7003    0.0000 </r>
       <r>   61.0303    0.0000 </r>
       <r>   61.7708    0.0000 </r>
       <r>   63.0034    0.0000 </r>
       <r>   64.5808    0.0000 </r>
       <r>   67.3181    0.0000 </r>
       <r>   70.3923    0.0000 </r>
       <r>   70.8286    0.0000 </r>
       <r>   72.8428    0.0000 </r>
       <r>   73.0406    0.0000 </r>
       <r>   76.0452    0.0000 </r>
      </set>
      <set comment="kpoint 17">
       <r>   -1.2081    1.0000 </r>
       <r>   11.3364    0.0000 </r>
       <r>   16.4905    0.0000 </r>
       <r>   20.5868    0.0000 </r>
       <r>   21.2744    0.0000 </r>
       <r>   22.9177    0.0000 </r>
       <r>   23.4022    0.0000 </r>
       <r>   25.6387    0.0000 </r>
       <r>   27.2260    0.0000 </r>
       <r>   28.8575    0.0000 </r>
       <r>   33.6764    0.0000 </r>
       <r>   38.4555    0.0000 </r>
       <r>   40.2976    0.0000 </r>
       <r>   42.1232    0.0000 </r>
       <r>   46.2819    0.0000 </r>
       <r>   47.3888    0.0000 </r>
       <r>   49.8174    0.0000 </r>
       <r>   52.9346    0.0000 </r>
       <r>   55.8947    0.0000 </r>
       <r>   56.1439    0.0000 </r>
       <r>   57.2998    0.0000 </r>
       <r>   58.5326    0.0000 </r>
       <r>   60.4332    0.0000 </r>
       <r>   61.7214    0.0000 </r>
       <r>   66.5218    0.0000 </r>
       <r>   67.0855    0.0000 </r>
       <r>   69.5704    0.0000 </r>
       <r>   70.3354    0.0000 </r>
       <r>   73.0125    0.0000 </r>
       <r>   74.7129    0.0000 </r>
       <r>   76.7785    0.0000 </r>
       <r>   78.0924    0.0000 </r>
      </set>
      <set comment="kpoint 18">
       <r>   -2.1116    1.0000 </r>
       <r>   14.2288    0.0000 </r>
       <r>   16.9268    0.0000 </r>
       <r>   20.9168    0.0000 </r>
       <r>   22.6360    0.0000 </r>
       <r>   23.4590    0.0000 </r>
       <r>   23.9794    0.0000 </r>
       <r>   24.4232    0.0000 </r>
       <r>   25.8069    0.0000 </r>
       <r>   29.7109    0.0000 </r>
       <r>   30.8726    0.0000 </r>
       <r>   35.1951    0.0000 </r>
       <r>   37.3518    0.0000 </r>
       <r>   39.0088    0.0000 </r>
       <r>   44.9303    0.0000 </r>
       <r>   49.9825    0.0000 </r>
       <r>   53.4181    0.0000 </r>
       <r>   54.4610    0.0000 </r>
       <r>   55.8214    0.0000 </r>
       <r>   56.0987    0.0000 </r>
       <r>   57.1609    0.0000 </r>
       <r>   59.3412    0.0000 </r>
       <r>   60.0845    0.0000 </r>
       <r>   61.3911    0.0000 </r>
       <r>   68.2317    0.0000 </r>
       <r>   68.9008    0.0000 </r>
       <r>   70.3629    0.0000 </r>
       <r>   72.3994    0.0000 </r>
       <r>   72.9875    0.0000 </r>
       <r>   75.7229    0.0000 </r>
       <r>   78.2400    0.0000 </r>
       <r>   79.1390    0.0000 </r>
      </set>
      <set comment="kpoint 19">
       <r>   -2.6993    1.0000 </r>
       <r>   16.9907    0.0000 </r>
       <r>   17.8870    0.0000 </r>
       <r>   21.0643    0.0000 </r>
       <r>   22.4022    0.0000 </r>
       <r>   23.3490    0.0000 </r>
       <r>   24.2448    0.0000 </r>
       <r>   24.8408    0.0000 </r>
       <r>   26.0832    0.0000 </r>
       <r>   27.9890    0.0000 </r>
       <r>   30.2391    0.0000 </r>
       <r>   33.2066    0.0000 </r>
       <r>   35.1341    0.0000 </r>
       <r>   36.1568    0.0000 </r>
       <r>   42.9816    0.0000 </r>
       <r>   53.6804    0.0000 </r>
       <r>   55.5147    0.0000 </r>
       <r>   55.8993    0.0000 </r>
       <r>   55.9516    0.0000 </r>
       <r>   56.6826    0.0000 </r>
       <r>   57.0591    0.0000 </r>
       <r>   59.5491    0.0000 </r>
       <r>   60.6321    0.0000 </r>
       <r>   61.3073    0.0000 </r>
       <r>   68.2939    0.0000 </r>
       <r>   68.8798    0.0000 </r>
       <r>   69.9237    0.0000 </r>
       <r>   72.4924    0.0000 </r>
       <r>   72.8656    0.0000 </r>
       <r>   73.6085    0.0000 </r>
       <r>   81.0959    0.0000 </r>
       <r>   81.6888    0.0000 </r>
      </set>
      <set comment="kpoint 20">
       <r>   -2.2716    1.0000 </r>
       <r>   17.3087    0.0000 </r>
       <r>   17.3087    0.0000 </r>
       <r>   17.4841    0.0000 </r>
       <r>   20.5449    0.0000 </r>
       <r>   21.1647    0.0000 </r>
       <r>   26.6833    0.0000 </r>
       <r>   26.6833    0.0000 </r>
       <r>   28.2440    0.0000 </r>
       <r>   29.3743    0.0000 </r>
       <r>   32.0055    0.0000 </r>
       <r>   33.7164    0.0000 </r>
       <r>   33.7164    0.0000 </r>
       <r>   38.1353    0.0000 </r>
       <r>   45.2271    0.0000 </r>
       <r>   53.1604    0.0000 </r>
       <r>   53.1604    0.0000 </r>
       <r>   54.3143    0.0000 </r>
       <r>   54.9767    0.0000 </r>
       <r>   56.9265    0.0000 </r>
       <r>   57.0287    0.0000 </r>
       <r>   57.0287    0.0000 </r>
       <r>   60.0452    0.0000 </r>
       <r>   62.5244    0.0000 </r>
       <r>   68.0743    0.0000 </r>
       <r>   69.8737    0.0000 </r>
       <r>   69.8737    0.0000 </r>
       <r>   73.6751    0.0000 </r>
       <r>   73.6751    0.0000 </r>
       <r>   75.0182    0.0000 </r>
       <r>   78.9665    0.0000 </r>
       <r>   79.0955    0.0000 </r>
      </set>
      <set comment="kpoint 21">
       <r>   -1.6857    1.0000 </r>
       <r>   14.5560    0.0000 </r>
       <r>   16.6309    0.0000 </r>
       <r>   17.9007    0.0000 </r>
       <r>   19.2660    0.0000 </r>
       <r>   20.8404    0.0000 </r>
       <r>   27.2204    0.0000 </r>
       <r>   27.2878    0.0000 </r>
       <r>   28.7298    0.0000 </r>
       <r>   31.1376    0.0000 </r>
       <r>   32.0728    0.0000 </r>
       <r>   35.3449    0.0000 </r>
       <r>   36.1618    0.0000 </r>
       <r>   39.7256    0.0000 </r>
       <r>   47.5257    0.0000 </r>
       <r>   49.5711    0.0000 </r>
       <r>   50.9565    0.0000 </r>
       <r>   54.1416    0.0000 </r>
       <r>   54.8621    0.0000 </r>
       <r>   56.1258    0.0000 </r>
       <r>   57.0334    0.0000 </r>
       <r>   57.2912    0.0000 </r>
       <r>   60.0281    0.0000 </r>
       <r>   62.0427    0.0000 </r>
       <r>   66.0273    0.0000 </r>
       <r>   70.3235    0.0000 </r>
       <r>   70.6738    0.0000 </r>
       <r>   72.2116    0.0000 </r>
       <r>   72.2556    0.0000 </r>
       <r>   76.3968    0.0000 </r>
       <r>   77.1720    0.0000 </r>
       <r>   77.1846    0.0000 </r>
      </set>
      <set comment="kpoint 22">
       <r>   -0.7849    1.0000 </r>
       <r>   11.7017    0.0000 </r>
       <r>   16.2265    0.0000 </r>
       <r>   17.5296    0.0000 </r>
       <r>   17.9056    0.0000 </r>
       <r>   22.4032    0.0000 </r>
       <r>   26.2104    0.0000 </r>
       <r>   27.2357    0.0000 </r>
       <r>   29.8674    0.0000 </r>
       <r>   30.4306    0.0000 </r>
       <r>   34.8862    0.0000 </r>
       <r>   38.1322    0.0000 </r>
       <r>   39.9539    0.0000 </r>
       <r>   41.8183    0.0000 </r>
       <r>   45.7747    0.0000 </r>
       <r>   48.0741    0.0000 </r>
       <r>   50.1817    0.0000 </r>
       <r>   54.6694    0.0000 </r>
       <r>   54.7455    0.0000 </r>
       <r>   54.9909    0.0000 </r>
       <r>   57.1503    0.0000 </r>
       <r>   57.2497    0.0000 </r>
       <r>   59.3114    0.0000 </r>
       <r>   61.9945    0.0000 </r>
       <r>   63.9110    0.0000 </r>
       <r>   68.0380    0.0000 </r>
       <r>   69.2707    0.0000 </r>
       <r>   70.1606    0.0000 </r>
       <r>   70.7536    0.0000 </r>
       <r>   75.2826    0.0000 </r>
       <r>   75.5544    0.0000 </r>
       <r>   77.6819    0.0000 </r>
      </set>
      <set comment="kpoint 23">
       <r>    0.4245    1.0000 </r>
       <r>    9.0262    0.0000 </r>
       <r>   16.0959    0.0000 </r>
       <r>   16.2048    0.0000 </r>
       <r>   17.8093    0.0000 </r>
       <r>   24.4131    0.0000 </r>
       <r>   25.0324    0.0000 </r>
       <r>   27.3245    0.0000 </r>
       <r>   28.6729    0.0000 </r>
       <r>   32.2653    0.0000 </r>
       <r>   37.6542    0.0000 </r>
       <r>   40.4560    0.0000 </r>
       <r>   43.2027    0.0000 </r>
       <r>   43.5060    0.0000 </r>
       <r>   44.2067    0.0000 </r>
       <r>   46.1743    0.0000 </r>
       <r>   51.9508    0.0000 </r>
       <r>   54.0193    0.0000 </r>
       <r>   55.1197    0.0000 </r>
       <r>   55.2503    0.0000 </r>
       <r>   56.0933    0.0000 </r>
       <r>   57.3257    0.0000 </r>
       <r>   58.5615    0.0000 </r>
       <r>   60.9808    0.0000 </r>
       <r>   63.0963    0.0000 </r>
       <r>   64.9556    0.0000 </r>
       <r>   67.3027    0.0000 </r>
       <r>   68.1312    0.0000 </r>
       <r>   68.5434    0.0000 </r>
       <r>   73.5601    0.0000 </r>
       <r>   74.3259    0.0000 </r>
       <r>   75.1056    0.0000 </r>
      </set>
      <set comment="kpoint 24">
       <r>    1.9344    1.0000 </r>
       <r>    6.5883    1.0000 </r>
       <r>   15.1062    0.0000 </r>
       <r>   16.2394    0.0000 </r>
       <r>   18.0018    0.0000 </r>
       <r>   24.0328    0.0000 </r>
       <r>   26.0520    0.0000 </r>
       <r>   27.9097    0.0000 </r>
       <r>   27.9835    0.0000 </r>
       <r>   33.3358    0.0000 </r>
       <r>   39.5686    0.0000 </r>
       <r>   39.9287    0.0000 </r>
       <r>   41.3150    0.0000 </r>
       <r>   46.1203    0.0000 </r>
       <r>   47.3284    0.0000 </r>
       <r>   49.1133    0.0000 </r>
       <r>   50.4879    0.0000 </r>
       <r>   53.5486    0.0000 </r>
       <r>   55.1908    0.0000 </r>
       <r>   55.7037    0.0000 </r>
       <r>   56.2688    0.0000 </r>
       <r>   57.3851    0.0000 </r>
       <r>   57.4189    0.0000 </r>
       <r>   60.3049    0.0000 </r>
       <r>   61.8095    0.0000 </r>
       <r>   64.0022    0.0000 </r>
       <r>   64.3928    0.0000 </r>
       <r>   65.6782    0.0000 </r>
       <r>   67.4053    0.0000 </r>
       <r>   68.8139    0.0000 </r>
       <r>   74.6202    0.0000 </r>
       <r>   74.7382    0.0000 </r>
      </set>
      <set comment="kpoint 25">
       <r>    3.7189    1.0000 </r>
       <r>    4.4295    1.0000 </r>
       <r>   14.2896    0.0000 </r>
       <r>   16.6574    0.0000 </r>
       <r>   18.4754    0.0000 </r>
       <r>   23.2723    0.0000 </r>
       <r>   25.9976    0.0000 </r>
       <r>   28.1566    0.0000 </r>
       <r>   29.7684    0.0000 </r>
       <r>   32.1789    0.0000 </r>
       <r>   38.2743    0.0000 </r>
       <r>   40.4278    0.0000 </r>
       <r>   42.1663    0.0000 </r>
       <r>   47.5979    0.0000 </r>
       <r>   49.8568    0.0000 </r>
       <r>   49.8609    0.0000 </r>
       <r>   50.3368    0.0000 </r>
       <r>   54.3934    0.0000 </r>
       <r>   54.7624    0.0000 </r>
       <r>   55.8560    0.0000 </r>
       <r>   55.9580    0.0000 </r>
       <r>   56.5439    0.0000 </r>
       <r>   57.4445    0.0000 </r>
       <r>   59.6613    0.0000 </r>
       <r>   61.3869    0.0000 </r>
       <r>   62.1702    0.0000 </r>
       <r>   63.7092    0.0000 </r>
       <r>   64.9825    0.0000 </r>
       <r>   65.3827    0.0000 </r>
       <r>   67.5773    0.0000 </r>
       <r>   74.7449    0.0000 </r>
       <r>   75.2207    0.0000 </r>
      </set>
      <set comment="kpoint 26">
       <r>    2.5034    1.0000 </r>
       <r>    5.8275    1.0000 </r>
       <r>   13.7649    0.0000 </r>
       <r>   17.3501    0.0000 </r>
       <r>   19.2332    0.0000 </r>
       <r>   22.7690    0.0000 </r>
       <r>   25.5218    0.0000 </r>
       <r>   28.7372    0.0000 </r>
       <r>   29.8157    0.0000 </r>
       <r>   31.1761    0.0000 </r>
       <r>   36.9986    0.0000 </r>
       <r>   41.4909    0.0000 </r>
       <r>   42.9230    0.0000 </r>
       <r>   45.7544    0.0000 </r>
       <r>   48.5924    0.0000 </r>
       <r>   49.7689    0.0000 </r>
       <r>   51.9251    0.0000 </r>
       <r>   54.3304    0.0000 </r>
       <r>   55.1169    0.0000 </r>
       <r>   55.3985    0.0000 </r>
       <r>   56.1480    0.0000 </r>
       <r>   56.7345    0.0000 </r>
       <r>   58.3772    0.0000 </r>
       <r>   59.8630    0.0000 </r>
       <r>   60.2844    0.0000 </r>
       <r>   61.3008    0.0000 </r>
       <r>   64.2188    0.0000 </r>
       <r>   65.6817    0.0000 </r>
       <r>   66.6603    0.0000 </r>
       <r>   68.9262    0.0000 </r>
       <r>   74.3609    0.0000 </r>
       <r>   75.3145    0.0000 </r>
      </set>
      <set comment="kpoint 27">
       <r>    0.8954    1.0000 </r>
       <r>    8.1665   -0.0402 </r>
       <r>   13.5435    0.0000 </r>
       <r>   18.3157    0.0000 </r>
       <r>   20.2653    0.0000 </r>
       <r>   22.5243    0.0000 </r>
       <r>   25.1645    0.0000 </r>
       <r>   27.3627    0.0000 </r>
       <r>   29.0946    0.0000 </r>
       <r>   30.8873    0.0000 </r>
       <r>   37.3285    0.0000 </r>
       <r>   39.9932    0.0000 </r>
       <r>   42.9192    0.0000 </r>
       <r>   45.4576    0.0000 </r>
       <r>   45.7304    0.0000 </r>
       <r>   49.5578    0.0000 </r>
       <r>   50.6187    0.0000 </r>
       <r>   53.4022    0.0000 </r>
       <r>   55.1680    0.0000 </r>
       <r>   55.2415    0.0000 </r>
       <r>   56.3018    0.0000 </r>
       <r>   58.6331    0.0000 </r>
       <r>   58.6966    0.0000 </r>
       <r>   60.2946    0.0000 </r>
       <r>   61.0741    0.0000 </r>
       <r>   63.0817    0.0000 </r>
       <r>   66.3424    0.0000 </r>
       <r>   67.6212    0.0000 </r>
       <r>   67.8009    0.0000 </r>
       <r>   73.2657    0.0000 </r>
       <r>   73.5072    0.0000 </r>
       <r>   76.2284    0.0000 </r>
      </set>
      <set comment="kpoint 28">
       <r>   -0.4156    1.0000 </r>
       <r>   10.7129    0.0000 </r>
       <r>   13.6627    0.0000 </r>
       <r>   19.5459    0.0000 </r>
       <r>   21.5480    0.0000 </r>
       <r>   22.5065    0.0000 </r>
       <r>   24.9156    0.0000 </r>
       <r>   25.1366    0.0000 </r>
       <r>   27.9372    0.0000 </r>
       <r>   31.3259    0.0000 </r>
       <r>   35.1775    0.0000 </r>
       <r>   39.0710    0.0000 </r>
       <r>   41.9551    0.0000 </r>
       <r>   42.8759    0.0000 </r>
       <r>   45.1126    0.0000 </r>
       <r>   49.6822    0.0000 </r>
       <r>   50.1015    0.0000 </r>
       <r>   53.0953    0.0000 </r>
       <r>   54.9070    0.0000 </r>
       <r>   55.1115    0.0000 </r>
       <r>   57.4002    0.0000 </r>
       <r>   58.3842    0.0000 </r>
       <r>   59.0127    0.0000 </r>
       <r>   60.8503    0.0000 </r>
       <r>   64.1839    0.0000 </r>
       <r>   65.4980    0.0000 </r>
       <r>   67.1379    0.0000 </r>
       <r>   70.6180    0.0000 </r>
       <r>   72.1733    0.0000 </r>
       <r>   72.7185    0.0000 </r>
       <r>   76.8628    0.0000 </r>
       <r>   77.1169    0.0000 </r>
      </set>
      <set comment="kpoint 29">
       <r>   -1.4201    1.0000 </r>
       <r>   13.0862    0.0000 </r>
       <r>   14.4689    0.0000 </r>
       <r>   21.0081    0.0000 </r>
       <r>   22.3121    0.0000 </r>
       <r>   23.0228    0.0000 </r>
       <r>   23.6433    0.0000 </r>
       <r>   24.4860    0.0000 </r>
       <r>   26.5191    0.0000 </r>
       <r>   31.7645    0.0000 </r>
       <r>   32.6930    0.0000 </r>
       <r>   35.9300    0.0000 </r>
       <r>   39.3612    0.0000 </r>
       <r>   42.0062    0.0000 </r>
       <r>   46.2236    0.0000 </r>
       <r>   47.1183    0.0000 </r>
       <r>   52.7745    0.0000 </r>
       <r>   54.2079    0.0000 </r>
       <r>   54.9662    0.0000 </r>
       <r>   55.1508    0.0000 </r>
       <r>   57.4589    0.0000 </r>
       <r>   58.5235    0.0000 </r>
       <r>   59.5845    0.0000 </r>
       <r>   60.8079    0.0000 </r>
       <r>   66.7561    0.0000 </r>
       <r>   67.7088    0.0000 </r>
       <r>   69.8580    0.0000 </r>
       <r>   71.7644    0.0000 </r>
       <r>   74.2967    0.0000 </r>
       <r>   75.1090    0.0000 </r>
       <r>   75.8163    0.0000 </r>
       <r>   78.0310    0.0000 </r>
      </set>
      <set comment="kpoint 30">
       <r>   -1.2081    1.0000 </r>
       <r>   15.8496    0.0000 </r>
       <r>   15.8546    0.0000 </r>
       <r>   15.8546    0.0000 </r>
       <r>   17.2317    0.0000 </r>
       <r>   19.3355    0.0000 </r>
       <r>   29.2104    0.0000 </r>
       <r>   29.3717    0.0000 </r>
       <r>   29.3717    0.0000 </r>
       <r>   33.1487    0.0000 </r>
       <r>   33.9813    0.0000 </r>
       <r>   35.2294    0.0000 </r>
       <r>   35.2294    0.0000 </r>
       <r>   40.3862    0.0000 </r>
       <r>   49.8303    0.0000 </r>
       <r>   49.9247    0.0000 </r>
       <r>   49.9247    0.0000 </r>
       <r>   50.0166    0.0000 </r>
       <r>   54.1596    0.0000 </r>
       <r>   56.8977    0.0000 </r>
       <r>   56.8977    0.0000 </r>
       <r>   57.1854    0.0000 </r>
       <r>   60.5132    0.0000 </r>
       <r>   60.5959    0.0000 </r>
       <r>   66.2472    0.0000 </r>
       <r>   68.7538    0.0000 </r>
       <r>   68.7539    0.0000 </r>
       <r>   72.1344    0.0000 </r>
       <r>   72.1345    0.0000 </r>
       <r>   72.4741    0.0000 </r>
       <r>   77.5861    0.0000 </r>
       <r>   78.0277    0.0000 </r>
      </set>
      <set comment="kpoint 31">
       <r>   -0.4159    1.0000 </r>
       <r>   13.1873    0.0000 </r>
       <r>   15.3545    0.0000 </r>
       <r>   15.4492    0.0000 </r>
       <r>   16.5789    0.0000 </r>
       <r>   19.6976    0.0000 </r>
       <r>   28.6045    0.0000 </r>
       <r>   30.0045    0.0000 </r>
       <r>   31.2823    0.0000 </r>
       <r>   33.0914    0.0000 </r>
       <r>   35.6787    0.0000 </r>
       <r>   37.1052    0.0000 </r>
       <r>   38.5293    0.0000 </r>
       <r>   41.7044    0.0000 </r>
       <r>   46.0244    0.0000 </r>
       <r>   47.8561    0.0000 </r>
       <r>   50.5957    0.0000 </r>
       <r>   52.4213    0.0000 </r>
       <r>   53.9433    0.0000 </r>
       <r>   56.2692    0.0000 </r>
       <r>   56.8994    0.0000 </r>
       <r>   56.9843    0.0000 </r>
       <r>   59.8965    0.0000 </r>
       <r>   60.5974    0.0000 </r>
       <r>   64.3218    0.0000 </r>
       <r>   66.0693    0.0000 </r>
       <r>   66.4573    0.0000 </r>
       <r>   70.2970    0.0000 </r>
       <r>   71.5150    0.0000 </r>
       <r>   72.2345    0.0000 </r>
       <r>   77.5550    0.0000 </r>
       <r>   78.3746    0.0000 </r>
      </set>
      <set comment="kpoint 32">
       <r>    0.6853    1.0000 </r>
       <r>   10.5125    0.0000 </r>
       <r>   13.9574    0.0000 </r>
       <r>   15.1297    0.0000 </r>
       <r>   16.6962    0.0000 </r>
       <r>   21.4215    0.0000 </r>
       <r>   27.5308    0.0000 </r>
       <r>   29.9328    0.0000 </r>
       <r>   32.0752    0.0000 </r>
       <r>   33.0629    0.0000 </r>
       <r>   38.4692    0.0000 </r>
       <r>   39.8481    0.0000 </r>
       <r>   42.4231    0.0000 </r>
       <r>   42.9047    0.0000 </r>
       <r>   43.5058    0.0000 </r>
       <r>   45.6636    0.0000 </r>
       <r>   51.4133    0.0000 </r>
       <r>   54.0106    0.0000 </r>
       <r>   54.3964    0.0000 </r>
       <r>   55.3436    0.0000 </r>
       <r>   55.7829    0.0000 </r>
       <r>   56.9184    0.0000 </r>
       <r>   59.8502    0.0000 </r>
       <r>   60.4844    0.0000 </r>
       <r>   61.4472    0.0000 </r>
       <r>   63.5681    0.0000 </r>
       <r>   65.1629    0.0000 </r>
       <r>   68.5855    0.0000 </r>
       <r>   70.0391    0.0000 </r>
       <r>   70.9944    0.0000 </r>
       <r>   75.8379    0.0000 </r>
       <r>   75.9578    0.0000 </r>
      </set>
      <set comment="kpoint 33">
       <r>    2.0873    1.0000 </r>
       <r>    8.0238    0.0853 </r>
       <r>   12.7435    0.0000 </r>
       <r>   15.1797    0.0000 </r>
       <r>   16.8572    0.0000 </r>
       <r>   23.6750    0.0000 </r>
       <r>   26.5161    0.0000 </r>
       <r>   29.4263    0.0000 </r>
       <r>   31.6592    0.0000 </r>
       <r>   33.7977    0.0000 </r>
       <r>   40.3041    0.0000 </r>
       <r>   40.6537    0.0000 </r>
       <r>   41.9469    0.0000 </r>
       <r>   44.1489    0.0000 </r>
       <r>   46.2368    0.0000 </r>
       <r>   47.7825    0.0000 </r>
       <r>   52.0937    0.0000 </r>
       <r>   52.3062    0.0000 </r>
       <r>   53.5570    0.0000 </r>
       <r>   54.4770    0.0000 </r>
       <r>   56.9217    0.0000 </r>
       <r>   57.2102    0.0000 </r>
       <r>   58.6774    0.0000 </r>
       <r>   59.9654    0.0000 </r>
       <r>   61.3307    0.0000 </r>
       <r>   61.5203    0.0000 </r>
       <r>   63.6739    0.0000 </r>
       <r>   67.4104    0.0000 </r>
       <r>   67.6541    0.0000 </r>
       <r>   69.1115    0.0000 </r>
       <r>   72.1312    0.0000 </r>
       <r>   75.5782    0.0000 </r>
      </set>
      <set comment="kpoint 34">
       <r>    3.7750    1.0000 </r>
       <r>    5.7818    1.0000 </r>
       <r>   11.8215    0.0000 </r>
       <r>   15.5046    0.0000 </r>
       <r>   17.2603    0.0000 </r>
       <r>   25.6991    0.0000 </r>
       <r>   26.0500    0.0000 </r>
       <r>   28.8162    0.0000 </r>
       <r>   31.7231    0.0000 </r>
       <r>   32.2935    0.0000 </r>
       <r>   38.6301    0.0000 </r>
       <r>   41.3526    0.0000 </r>
       <r>   43.6063    0.0000 </r>
       <r>   47.1635    0.0000 </r>
       <r>   47.7902    0.0000 </r>
       <r>   49.1396    0.0000 </r>
       <r>   51.9117    0.0000 </r>
       <r>   53.0444    0.0000 </r>
       <r>   53.6054    0.0000 </r>
       <r>   54.5997    0.0000 </r>
       <r>   56.5757    0.0000 </r>
       <r>   56.7899    0.0000 </r>
       <r>   58.1440    0.0000 </r>
       <r>   58.2935    0.0000 </r>
       <r>   60.3103    0.0000 </r>
       <r>   62.0677    0.0000 </r>
       <r>   63.5063    0.0000 </r>
       <r>   63.7723    0.0000 </r>
       <r>   66.8519    0.0000 </r>
       <r>   68.0454    0.0000 </r>
       <r>   70.0314    0.0000 </r>
       <r>   75.8298    0.0000 </r>
      </set>
      <set comment="kpoint 35">
       <r>    3.7828    1.0000 </r>
       <r>    5.7579    1.0000 </r>
       <r>   11.2077    0.0000 </r>
       <r>   16.1051    0.0000 </r>
       <r>   17.9435    0.0000 </r>
       <r>   25.1219    0.0000 </r>
       <r>   27.3703    0.0000 </r>
       <r>   29.1813    0.0000 </r>
       <r>   29.7752    0.0000 </r>
       <r>   31.8712    0.0000 </r>
       <r>   36.7816    0.0000 </r>
       <r>   42.5108    0.0000 </r>
       <r>   43.8095    0.0000 </r>
       <r>   46.2291    0.0000 </r>
       <r>   50.1131    0.0000 </r>
       <r>   50.8086    0.0000 </r>
       <r>   51.0475    0.0000 </r>
       <r>   53.8016    0.0000 </r>
       <r>   53.8762    0.0000 </r>
       <r>   54.8563    0.0000 </r>
       <r>   56.0874    0.0000 </r>
       <r>   57.4929    0.0000 </r>
       <r>   57.9314    0.0000 </r>
       <r>   58.5439    0.0000 </r>
       <r>   60.3373    0.0000 </r>
       <r>   60.8475    0.0000 </r>
       <r>   61.3509    0.0000 </r>
       <r>   63.8231    0.0000 </r>
       <r>   65.5493    0.0000 </r>
       <r>   68.9689    0.0000 </r>
       <r>   71.6206    0.0000 </r>
       <r>   75.7357    0.0000 </r>
      </set>
      <set comment="kpoint 36">
       <r>    2.0902    1.0000 </r>
       <r>    7.9331    0.4936 </r>
       <r>   10.9501    0.0000 </r>
       <r>   16.9809    0.0000 </r>
       <r>   18.9061    0.0000 </r>
       <r>   24.7856    0.0000 </r>
       <r>   27.0209    0.0000 </r>
       <r>   27.2164    0.0000 </r>
       <r>   29.7434    0.0000 </r>
       <r>   32.4466    0.0000 </r>
       <r>   36.3566    0.0000 </r>
       <r>   39.5928    0.0000 </r>
       <r>   45.2395    0.0000 </r>
       <r>   46.6865    0.0000 </r>
       <r>   47.0896    0.0000 </r>
       <r>   50.5201    0.0000 </r>
       <r>   51.6740    0.0000 </r>
       <r>   54.0706    0.0000 </r>
       <r>   54.4664    0.0000 </r>
       <r>   55.5202    0.0000 </r>
       <r>   55.7030    0.0000 </r>
       <r>   56.6379    0.0000 </r>
       <r>   59.0648    0.0000 </r>
       <r>   59.2986    0.0000 </r>
       <r>   59.9897    0.0000 </r>
       <r>   61.3155    0.0000 </r>
       <r>   62.5816    0.0000 </r>
       <r>   65.2885    0.0000 </r>
       <r>   66.2855    0.0000 </r>
       <r>   70.4707    0.0000 </r>
       <r>   75.0454    0.0000 </r>
       <r>   75.0524    0.0000 </r>
      </set>
      <set comment="kpoint 37">
       <r>    0.6863    1.0000 </r>
       <r>    9.9236    0.0000 </r>
       <r>   11.4408    0.0000 </r>
       <r>   18.1305    0.0000 </r>
       <r>   20.1269    0.0000 </r>
       <r>   24.3733    0.0000 </r>
       <r>   25.1849    0.0000 </r>
       <r>   26.2485    0.0000 </r>
       <r>   28.7398    0.0000 </r>
       <r>   33.3302    0.0000 </r>
       <r>   35.2287    0.0000 </r>
       <r>   39.8284    0.0000 </r>
       <r>   42.4441    0.0000 </r>
       <r>   44.0471    0.0000 </r>
       <r>   48.0359    0.0000 </r>
       <r>   49.3839    0.0000 </r>
       <r>   52.2544    0.0000 </r>
       <r>   52.8332    0.0000 </r>
       <r>   53.6599    0.0000 </r>
       <r>   54.6584    0.0000 </r>
       <r>   56.8226    0.0000 </r>
       <r>   57.7852    0.0000 </r>
       <r>   59.4877    0.0000 </r>
       <r>   60.4435    0.0000 </r>
       <r>   61.2289    0.0000 </r>
       <r>   62.8123    0.0000 </r>
       <r>   65.6475    0.0000 </r>
       <r>   66.0096    0.0000 </r>
       <r>   70.3512    0.0000 </r>
       <r>   72.7658    0.0000 </r>
       <r>   74.1656    0.0000 </r>
       <r>   76.9488    0.0000 </r>
      </set>
      <set comment="kpoint 38">
       <r>    0.2665    1.0000 </r>
       <r>   13.5566    0.0000 </r>
       <r>   14.5962    0.0000 </r>
       <r>   14.7601    0.0000 </r>
       <r>   14.7602    0.0000 </r>
       <r>   18.2898    0.0000 </r>
       <r>   30.5055    0.0000 </r>
       <r>   31.7180    0.0000 </r>
       <r>   31.7180    0.0000 </r>
       <r>   36.2426    0.0000 </r>
       <r>   37.3901    0.0000 </r>
       <r>   37.6991    0.0000 </r>
       <r>   37.6991    0.0000 </r>
       <r>   42.2732    0.0000 </r>
       <r>   46.2077    0.0000 </r>
       <r>   46.9594    0.0000 </r>
       <r>   46.9594    0.0000 </r>
       <r>   53.0063    0.0000 </r>
       <r>   54.7872    0.0000 </r>
       <r>   56.3086    0.0000 </r>
       <r>   56.8574    0.0000 </r>
       <r>   56.8574    0.0000 </r>
       <r>   59.1031    0.0000 </r>
       <r>   60.7957    0.0000 </r>
       <r>   62.9692    0.0000 </r>
       <r>   62.9692    0.0000 </r>
       <r>   65.5727    0.0000 </r>
       <r>   66.5607    0.0000 </r>
       <r>   73.0985    0.0000 </r>
       <r>   73.0985    0.0000 </r>
       <r>   77.3588    0.0000 </r>
       <r>   78.0349    0.0000 </r>
      </set>
      <set comment="kpoint 39">
       <r>    1.2570    1.0000 </r>
       <r>   11.8845    0.0000 </r>
       <r>   12.2660    0.0000 </r>
       <r>   14.4418    0.0000 </r>
       <r>   15.5764    0.0000 </r>
       <r>   18.8135    0.0000 </r>
       <r>   30.0918    0.0000 </r>
       <r>   32.1467    0.0000 </r>
       <r>   33.4065    0.0000 </r>
       <r>   35.9338    0.0000 </r>
       <r>   39.4446    0.0000 </r>
       <r>   39.7974    0.0000 </r>
       <r>   41.4445    0.0000 </r>
       <r>   43.0944    0.0000 </r>
       <r>   43.3187    0.0000 </r>
       <r>   45.4228    0.0000 </r>
       <r>   47.4898    0.0000 </r>
       <r>   52.6160    0.0000 </r>
       <r>   54.7996    0.0000 </r>
       <r>   56.3276    0.0000 </r>
       <r>   56.8051    0.0000 </r>
       <r>   56.9424    0.0000 </r>
       <r>   59.0872    0.0000 </r>
       <r>   59.9605    0.0000 </r>
       <r>   60.2341    0.0000 </r>
       <r>   60.6681    0.0000 </r>
       <r>   64.9430    0.0000 </r>
       <r>   65.7867    0.0000 </r>
       <r>   71.5446    0.0000 </r>
       <r>   73.1516    0.0000 </r>
       <r>   76.9589    0.0000 </r>
       <r>   77.1985    0.0000 </r>
      </set>
      <set comment="kpoint 40">
       <r>    2.5464    1.0000 </r>
       <r>    9.6874    0.0000 </r>
       <r>   10.6592    0.0000 </r>
       <r>   14.3987    0.0000 </r>
       <r>   15.8927    0.0000 </r>
       <r>   20.7284    0.0000 </r>
       <r>   29.1655    0.0000 </r>
       <r>   31.6928    0.0000 </r>
       <r>   34.1795    0.0000 </r>
       <r>   35.5142    0.0000 </r>
       <r>   41.2296    0.0000 </r>
       <r>   41.5708    0.0000 </r>
       <r>   42.3466    0.0000 </r>
       <r>   42.8027    0.0000 </r>
       <r>   45.2527    0.0000 </r>
       <r>   46.7683    0.0000 </r>
       <r>   48.5597    0.0000 </r>
       <r>   51.5130    0.0000 </r>
       <r>   53.5423    0.0000 </r>
       <r>   55.1684    0.0000 </r>
       <r>   56.6056    0.0000 </r>
       <r>   56.6719    0.0000 </r>
       <r>   58.0891    0.0000 </r>
       <r>   58.2178    0.0000 </r>
       <r>   60.1725    0.0000 </r>
       <r>   61.3302    0.0000 </r>
       <r>   63.7852    0.0000 </r>
       <r>   66.1200    0.0000 </r>
       <r>   68.8339    0.0000 </r>
       <r>   71.1219    0.0000 </r>
       <r>   74.7135    0.0000 </r>
       <r>   75.9149    0.0000 </r>
      </set>
      <set comment="kpoint 41">
       <r>    4.1167    1.0000 </r>
       <r>    7.4117    0.9985 </r>
       <r>    9.6227    0.0000 </r>
       <r>   14.6305    0.0000 </r>
       <r>   16.2597    0.0000 </r>
       <r>   23.1900    0.0000 </r>
       <r>   28.3330    0.0000 </r>
       <r>   30.8625    0.0000 </r>
       <r>   32.6014    0.0000 </r>
       <r>   35.2412    0.0000 </r>
       <r>   39.5859    0.0000 </r>
       <r>   42.1828    0.0000 </r>
       <r>   44.5922    0.0000 </r>
       <r>   46.0179    0.0000 </r>
       <r>   46.1748    0.0000 </r>
       <r>   48.2323    0.0000 </r>
       <r>   49.8553    0.0000 </r>
       <r>   52.3971    0.0000 </r>
       <r>   53.5336    0.0000 </r>
       <r>   54.1051    0.0000 </r>
       <r>   55.5376    0.0000 </r>
       <r>   55.9059    0.0000 </r>
       <r>   57.1285    0.0000 </r>
       <r>   58.4258    0.0000 </r>
       <r>   59.3708    0.0000 </r>
       <r>   62.1860    0.0000 </r>
       <r>   62.9444    0.0000 </r>
       <r>   64.3880    0.0000 </r>
       <r>   67.3358    0.0000 </r>
       <r>   69.7338    0.0000 </r>
       <r>   71.2056    0.0000 </r>
       <r>   76.1356    0.0000 </r>
      </set>
      <set comment="kpoint 42">
       <r>    5.3337    1.0000 </r>
       <r>    5.9537    1.0000 </r>
       <r>    8.9525    0.0000 </r>
       <r>   15.1377    0.0000 </r>
       <r>   16.8707    0.0000 </r>
       <r>   25.8552    0.0000 </r>
       <r>   27.7054    0.0000 </r>
       <r>   29.8772    0.0000 </r>
       <r>   29.9902    0.0000 </r>
       <r>   34.4950    0.0000 </r>
       <r>   38.3848    0.0000 </r>
       <r>   42.1564    0.0000 </r>
       <r>   44.4744    0.0000 </r>
       <r>   47.5203    0.0000 </r>
       <r>   48.3953    0.0000 </r>
       <r>   49.4298    0.0000 </r>
       <r>   51.6694    0.0000 </r>
       <r>   52.8913    0.0000 </r>
       <r>   54.2167    0.0000 </r>
       <r>   54.7197    0.0000 </r>
       <r>   55.8215    0.0000 </r>
       <r>   55.9580    0.0000 </r>
       <r>   56.7650    0.0000 </r>
       <r>   57.3154    0.0000 </r>
       <r>   58.8649    0.0000 </r>
       <r>   61.7601    0.0000 </r>
       <r>   63.2656    0.0000 </r>
       <r>   63.4559    0.0000 </r>
       <r>   64.0350    0.0000 </r>
       <r>   67.7244    0.0000 </r>
       <r>   72.6735    0.0000 </r>
       <r>   76.6944    0.0000 </r>
      </set>
      <set comment="kpoint 43">
       <r>    3.5806    1.0000 </r>
       <r>    7.5522    0.9956 </r>
       <r>    9.0467    0.0000 </r>
       <r>   15.9211    0.0000 </r>
       <r>   17.7569    0.0000 </r>
       <r>   27.2039    0.0000 </r>
[...]
       </set>
       <set comment="band 19">
        <r>  5.0584  0.4903  0.7565  0.0572  0.0000  0.0000  0.0000  0.0000  0.0000 </r>
       </set>
       <set comment="band 20">
        <r>  3.6544  0.0282  1.8108  0.1245  0.0000  0.0000  0.0000  0.0000  0.0000 </r>
       </set>
       <set comment="band 21">
        <r>  0.0768  0.8057  0.0086  0.0050  0.0000  0.0000  0.0000  0.0000  0.0000 </r>
       </set>
       <set comment="band 22">
        <r>  0.0259  0.0048  0.3082  1.8102  0.0000  0.0000  0.0000  0.0000  0.0000 </r>
       </set>
       <set comment="band 23">
        <r>  0.0275  0.0014  0.4589  0.2110  0.0000  0.0000  0.0000  0.0000  0.0000 </r>
       </set>
       <set comment="band 24">
        <r>  0.4806  1.3194  0.5037  0.1258  0.0000  0.0000  0.0000  0.0000  0.0000 </r>
       </set>
       <set comment="band 25">
        <r>  0.0590  0.7904  0.1054  0.0000  0.0000  0.0000  0.0000  0.0000  0.0000 </r>
       </set>
       <set comment="band 26">
        <r>  0.0048  0.0902  0.0002  1.3206  0.0000  0.0000  0.0000  0.0000  0.0000 </r>
       </set>
       <set comment="band 27">
        <r>  0.0920  0.0001  0.2713  0.4796  0.0000  0.0000  0.0000  0.0000  0.0000 </r>
       </set>
       <set comment="band 28">
        <r>  0.0469  0.7335  0.6016  0.3527  0.0000  0.0000  0.0000  0.0000  0.0000 </r>
       </set>
       <set comment="band 29">
        <r>  0.1489  0.1046  0.0091  0.0006  0.0000  0.0000  0.0000  0.0000  0.0000 </r>
       </set>
       <set comment="band 30">
        <r>  0.0001  0.0270  0.0490  0.2629  0.0000  0.0000  0.0000  0.0000  0.0000 </r>
       </set>
       <set comment="band 31">
        <r>  0.1131  0.0295  0.0339  0.0125  0.0000  0.0000  0.0000  0.0000  0.0000 </r>
       </set>
       <set comment="band 32">
        <r>  0.0033  0.0626  0.1547  0.0789  0.0000  0.0000  0.0000  0.0000  0.0000 </r>
       </set>
      </set>
      <set comment="kpoint 81">
       <set comment="band 1">
        <r>  0.1277  0.0789  0.0089  0.0394  0.0000  0.0000  0.0000  0.0000  0.0000 </r>
       </set>
       <set comment="band 2">
        <r>  0.0000  0.0716  0.0000  0.1431  0.0000  0.0000  0.0000  0.0000  0.0000 </r>
       </set>
       <set comment="band 3">
        <r>  0.1882  0.0400  0.0285  0.0200  0.0000  0.0000  0.0000  0.0000  0.0000 </r>
       </set>
       <set comment="band 4">
        <r>  0.1411  0.0179  0.1327  0.0089  0.0000  0.0000  0.0000  0.0000  0.0000 </r>
       </set>
       <set comment="band 5">
        <r>  0.0264  0.0158  0.1777  0.0079  0.0000  0.0000  0.0000  0.0000  0.0000 </r>
       </set>
       <set comment="band 6">
        <r>  0.0000  0.0348  0.0000  0.0697  0.0000  0.0000  0.0000  0.0000  0.0000 </r>
       </set>
       <set comment="band 7">
        <r>  0.0661  0.0368  0.1153  0.0184  0.0000  0.0000  0.0000  0.0000  0.0000 </r>
       </set>
       <set comment="band 8">
        <r>  0.0115  0.0827  0.0065  0.0414  0.0000  0.0000  0.0000  0.0000  0.0000 </r>
       </set>
       <set comment="band 9">
        <r>  0.0000  0.0288  0.0000  0.0577  0.0000  0.0000  0.0000  0.0000  0.0000 </r>
       </set>
       <set comment="band 10">
        <r>  0.0168  0.0023  0.0322  0.0012  0.0000  0.0000  0.0000  0.0000  0.0000 </r>
       </set>
       <set comment="band 11">
        <r>  0.0000  0.0066  0.0000  0.0132  0.0000  0.0000  0.0000  0.0000  0.0000 </r>
       </set>
       <set comment="band 12">
        <r>  0.1100  0.0029  0.0343  0.0014  0.0000  0.0000  0.0000  0.0000  0.0000 </r>
       </set>
       <set comment="band 13">
        <r>  0.0000  0.0500  0.0000  0.1001  0.0000  0.0000  0.0000  0.0000  0.0000 </r>
       </set>
       <set comment="band 14">
        <r>  0.0011  0.0797  0.0306  0.0399  0.0000  0.0000  0.0000  0.0000  0.0000 </r>
       </set>
       <set comment="band 15">
        <r>  0.1846  0.0000  0.0458  0.0000  0.0000  0.0000  0.0000  0.0000  0.0000 </r>
       </set>
       <set comment="band 16">
        <r>  0.0000  0.0236  0.0000  0.0471  0.0000  0.0000  0.0000  0.0000  0.0000 </r>
       </set>
       <set comment="band 17">
        <r>  0.3523  0.3738  0.0366  0.1869  0.0000  0.0000  0.0000  0.0000  0.0000 </r>
       </set>
       <set comment="band 18">
        <r>  0.0000  0.0176  0.0000  0.0352  0.0000  0.0000  0.0000  0.0000  0.0000 </r>
       </set>
       <set comment="band 19">
        <r>  0.0000  0.5254  0.0000  1.0508  0.0000  0.0000  0.0000  0.0000  0.0000 </r>
       </set>
       <set comment="band 20">
        <r>  5.2415  0.0218  0.3624  0.0109  0.0000  0.0000  0.0000  0.0000  0.0000 </r>
       </set>
       <set comment="band 21">
        <r>  1.5562  0.4421  1.9259  0.2211  0.0000  0.0000  0.0000  0.0000  0.0000 </r>
       </set>
       <set comment="band 22">
        <r>  2.3983  0.0290  0.3489  0.0145  0.0000  0.0000  0.0000  0.0000  0.0000 </r>
       </set>
       <set comment="band 23">
        <r>  0.1125  1.6917  0.5607  0.8458  0.0000  0.0000  0.0000  0.0000  0.0000 </r>
       </set>
       <set comment="band 24">
        <r>  0.2116  0.0632  0.9766  0.0317  0.0000  0.0000  0.0000  0.0000  0.0000 </r>
       </set>
       <set comment="band 25">
        <r>  0.0000  1.0686  0.0000  2.1371  0.0000  0.0000  0.0000  0.0000  0.0000 </r>
       </set>
       <set comment="band 26">
        <r>  0.0000  0.0455  0.0000  0.0911  0.0000  0.0000  0.0000  0.0000  0.0000 </r>
       </set>
       <set comment="band 27">
        <r>  0.3074  0.0459  0.0719  0.0229  0.0000  0.0000  0.0000  0.0000  0.0000 </r>
       </set>
       <set comment="band 28">
        <r>  0.0005  0.7160  0.2283  0.3580  0.0000  0.0000  0.0000  0.0000  0.0000 </r>
       </set>
       <set comment="band 29">
        <r>  0.0241  0.0582  0.3814  0.0291  0.0000  0.0000  0.0000  0.0000  0.0000 </r>
       </set>
       <set comment="band 30">
        <r>  0.0000  0.0127  0.0000  0.0255  0.0000  0.0000  0.0000  0.0000  0.0000 </r>
       </set>
       <set comment="band 31">
        <r>  0.0000  0.0566  0.0000  0.1133  0.0000  0.0000  0.0000  0.0000  0.0000 </r>
       </set>
       <set comment="band 32">
        <r>  0.2020  0.1449  0.2002  0.0724  0.0000  0.0000  0.0000  0.0000  0.0000 </r>
       </set>
      </set>
      <set comment="kpoint 82">
       <set comment="band 1">
        <r>  0.0769  0.0308  0.0047  0.1350  0.0000  0.0000  0.0000  0.0000  0.0000 </r>
       </set>
       <set comment="band 2">
        <r>  0.1261  0.0676  0.0166  0.0209  0.0000  0.0000  0.0000  0.0000  0.0000 </r>
       </set>
       <set comment="band 3">
        <r>  0.0000  0.0673  0.1009  0.0336  0.0000  0.0000  0.0000  0.0000  0.0000 </r>
       </set>
       <set comment="band 4">
        <r>  0.2439  0.0267  0.0596  0.0367  0.0000  0.0000  0.0000  0.0000  0.0000 </r>
       </set>
       <set comment="band 5">
        <r>  0.0000  0.0451  0.0677  0.0226  0.0000  0.0000  0.0000  0.0000  0.0000 </r>
       </set>
       <set comment="band 6">
        <r>  0.1179  0.0861  0.1045  0.0210  0.0000  0.0000  0.0000  0.0000  0.0000 </r>
       </set>
       <set comment="band 7">
        <r>  0.0153  0.0590  0.0236  0.0060  0.0000  0.0000  0.0000  0.0000  0.0000 </r>
       </set>
       <set comment="band 8">
        <r>  0.0134  0.0022  0.0339  0.0640  0.0000  0.0000  0.0000  0.0000  0.0000 </r>
       </set>
       <set comment="band 9">
        <r>  0.0000  0.0057  0.0085  0.0028  0.0000  0.0000  0.0000  0.0000  0.0000 </r>
       </set>
       <set comment="band 10">
        <r>  0.0117  0.0007  0.0015  0.0009  0.0000  0.0000  0.0000  0.0000  0.0000 </r>
       </set>
       <set comment="band 11">
        <r>  0.0351  0.0689  0.0113  0.0352  0.0000  0.0000  0.0000  0.0000  0.0000 </r>
       </set>
       <set comment="band 12">
        <r>  0.0000  0.0513  0.0768  0.0255  0.0000  0.0000  0.0000  0.0000  0.0000 </r>
       </set>
       <set comment="band 13">
        <r>  0.0245  0.0007  0.0118  0.0505  0.0000  0.0000  0.0000  0.0000  0.0000 </r>
       </set>
       <set comment="band 14">
        <r>  0.0000  0.0384  0.0576  0.0192  0.0000  0.0000  0.0000  0.0000  0.0000 </r>
       </set>
       <set comment="band 15">
        <r>  0.1021  0.0040  0.0154  0.0158  0.0000  0.0000  0.0000  0.0000  0.0000 </r>
       </set>
       <set comment="band 16">
        <r>  0.0000  0.0076  0.0114  0.0038  0.0000  0.0000  0.0000  0.0000  0.0000 </r>
       </set>
       <set comment="band 17">
        <r>  0.0770  0.1342  0.0060  0.4253  0.0000  0.0000  0.0000  0.0000  0.0000 </r>
       </set>
       <set comment="band 18">
        <r>  0.0000  0.0005  0.0007  0.0002  0.0000  0.0000  0.0000  0.0000  0.0000 </r>
       </set>
       <set comment="band 19">
        <r>  0.5222  0.0394  0.0000  0.0831  0.0000  0.0000  0.0000  0.0000  0.0000 </r>
       </set>
       <set comment="band 20">
        <r>  3.8763  0.4598  0.5331  0.0935  0.0000  0.0000  0.0000  0.0000  0.0000 </r>
       </set>
       <set comment="band 21">
        <r>  0.0000  0.8996  1.3496  0.4498  0.0000  0.0000  0.0000  0.0000  0.0000 </r>
       </set>
       <set comment="band 22">
        <r>  4.4480  0.9182  0.9806  0.1297  0.0000  0.0000  0.0000  0.0000  0.0000 </r>
       </set>
       <set comment="band 23">
        <r>  0.3167  0.2630  0.0370  1.1201  0.0000  0.0000  0.0000  0.0000  0.0000 </r>
       </set>
       <set comment="band 24">
        <r>  0.0000  0.3566  0.5349  0.1783  0.0000  0.0000  0.0000  0.0000  0.0000 </r>
       </set>
       <set comment="band 25">
        <r>  0.1921  0.6795  0.0368  2.2445  0.0000  0.0000  0.0000  0.0000  0.0000 </r>
       </set>
       <set comment="band 26">
        <r>  0.8538  0.8482  0.8563  0.0901  0.0000  0.0000  0.0000  0.0000  0.0000 </r>
       </set>
       <set comment="band 27">
        <r>  0.0000  0.4208  0.6311  0.2104  0.0000  0.0000  0.0000  0.0000  0.0000 </r>
       </set>
       <set comment="band 28">
        <r>  0.0000  0.0077  0.0115  0.0038  0.0000  0.0000  0.0000  0.0000  0.0000 </r>
       </set>
       <set comment="band 29">
        <r>  0.1987  0.0102  0.0252  0.1744  0.0000  0.0000  0.0000  0.0000  0.0000 </r>
       </set>
       <set comment="band 30">
        <r>  0.0061  0.0832  0.0655  0.0013  0.0000  0.0000  0.0000  0.0000  0.0000 </r>
       </set>
       <set comment="band 31">
        <r>  0.0000  0.0047  0.0070  0.0023  0.0000  0.0000  0.0000  0.0000  0.0000 </r>
       </set>
       <set comment="band 32">
        <r>  0.1745  0.0938  0.0000  0.1895  0.0000  0.0000  0.0000  0.0000  0.0000 </r>
       </set>
      </set>
      <set comment="kpoint 83">
       <set comment="band 1">
        <r>  0.0000  0.0769  0.0000  0.1538  0.0000  0.0000  0.0000  0.0000  0.0000 </r>
       </set>
       <set comment="band 2">
        <r>  0.0006  0.1173  0.0024  0.0586  0.0000  0.0000  0.0000  0.0000  0.0000 </r>
       </set>
       <set comment="band 3">
        <r>  0.2613  0.0024  0.0484  0.0012  0.0000  0.0000  0.0000  0.0000  0.0000 </r>
       </set>
       <set comment="band 4">
        <r>  0.2010  0.0000  0.1287  0.0000  0.0000  0.0000  0.0000  0.0000  0.0000 </r>
       </set>
       <set comment="band 5">
        <r>  0.0279  0.0013  0.1397  0.0007  0.0000  0.0000  0.0000  0.0000  0.0000 </r>
       </set>
       <set comment="band 6">
        <r>  0.0492  0.1328  0.0354  0.0664  0.0000  0.0000  0.0000  0.0000  0.0000 </r>
       </set>
       <set comment="band 7">
        <r>  0.0000  0.0285  0.0000  0.0570  0.0000  0.0000  0.0000  0.0000  0.0000 </r>
       </set>
       <set comment="band 8">
        <r>  0.0519  0.0203  0.0841  0.0101  0.0000  0.0000  0.0000  0.0000  0.0000 </r>
       </set>
       <set comment="band 9">
        <r>  0.0000  0.0060  0.0000  0.0121  0.0000  0.0000  0.0000  0.0000  0.0000 </r>
       </set>
       <set comment="band 10">
        <r>  0.0167  0.0155  0.0158  0.0077  0.0000  0.0000  0.0000  0.0000  0.0000 </r>
       </set>
       <set comment="band 11">
        <r>  0.0000  0.0032  0.0000  0.0064  0.0000  0.0000  0.0000  0.0000  0.0000 </r>
       </set>
       <set comment="band 12">
        <r>  0.0454  0.0637  0.0541  0.0318  0.0000  0.0000  0.0000  0.0000  0.0000 </r>
       </set>
       <set comment="band 13">
        <r>  0.0000  0.0492  0.0000  0.0985  0.0000  0.0000  0.0000  0.0000  0.0000 </r>
       </set>
       <set comment="band 14">
        <r>  0.0694  0.0005  0.0212  0.0002  0.0000  0.0000  0.0000  0.0000  0.0000 </r>
       </set>
       <set comment="band 15">
        <r>  0.0773  0.0121  0.0834  0.0061  0.0000  0.0000  0.0000  0.0000  0.0000 </r>
       </set>
       <set comment="band 16">
        <r>  0.0000  0.0042  0.0000  0.0083  0.0000  0.0000  0.0000  0.0000  0.0000 </r>
       </set>
       <set comment="band 17">
        <r>  0.0000  0.2326  0.0000  0.4653  0.0000  0.0000  0.0000  0.0000  0.0000 </r>
       </set>
       <set comment="band 18">
        <r>  0.0973  0.7178  0.0355  0.3589  0.0000  0.0000  0.0000  0.0000  0.0000 </r>
       </set>
       <set comment="band 19">
        <r>  5.2389  0.0859  0.5164  0.0430  0.0000  0.0000  0.0000  0.0000  0.0000 </r>
       </set>
       <set comment="band 20">
        <r>  1.2721  0.0001  1.7445  0.0000  0.0000  0.0000  0.0000  0.0000  0.0000 </r>
       </set>
       <set comment="band 21">
        <r>  2.7378  0.8528  0.0232  0.4264  0.0000  0.0000  0.0000  0.0000  0.0000 </r>
       </set>
       <set comment="band 22">
        <r>  0.2437  0.4165  1.2465  0.2082  0.0000  0.0000  0.0000  0.0000  0.0000 </r>
       </set>
       <set comment="band 23">
        <r>  0.0000  0.0603  0.0000  0.1205  0.0000  0.0000  0.0000  0.0000  0.0000 </r>
       </set>
       <set comment="band 24">
        <r>  0.0000  0.9891  0.0000  1.9782  0.0000  0.0000  0.0000  0.0000  0.0000 </r>
       </set>
       <set comment="band 25">
        <r>  0.0000  0.1236  0.0000  0.2472  0.0000  0.0000  0.0000  0.0000  0.0000 </r>
       </set>
       <set comment="band 26">
        <r>  0.4340  0.3683  0.5022  0.1841  0.0000  0.0000  0.0000  0.0000  0.0000 </r>
       </set>
       <set comment="band 27">
        <r>  0.0000  0.2972  0.0000  0.5944  0.0000  0.0000  0.0000  0.0000  0.0000 </r>
       </set>
       <set comment="band 28">
        <r>  0.0858  0.6655  0.5197  0.3328  0.0000  0.0000  0.0000  0.0000  0.0000 </r>
       </set>
       <set comment="band 29">
        <r>  0.1247  0.3971  0.4265  0.1986  0.0000  0.0000  0.0000  0.0000  0.0000 </r>
       </set>
       <set comment="band 30">
        <r>  0.0000  0.0856  0.0000  0.1711  0.0000  0.0000  0.0000  0.0000  0.0000 </r>
       </set>
       <set comment="band 31">
        <r>  0.0047  0.0594  0.0012  0.0297  0.0000  0.0000  0.0000  0.0000  0.0000 </r>
       </set>
       <set comment="band 32">
        <r>  0.5333  0.0026  0.0213  0.0013  0.0000  0.0000  0.0000  0.0000  0.0000 </r>
       </set>
      </set>
      <set comment="kpoint 84">
       <set comment="band 1">
        <r>  0.0587  0.0201  0.0110  0.1461  0.0000  0.0000  0.0000  0.0000  0.0000 </r>
       </set>
       <set comment="band 2">
        <r>  0.0000  0.0728  0.1092  0.0364  0.0000  0.0000  0.0000  0.0000  0.0000 </r>
       </set>
       <set comment="band 3">
        <r>  0.0091  0.0867  0.0569  0.0000  0.0000  0.0000  0.0000  0.0000  0.0000 </r>
       </set>
       <set comment="band 4">
        <r>  0.4041  0.0101  0.0005  0.0325  0.0000  0.0000  0.0000  0.0000  0.0000 </r>
       </set>
       <set comment="band 5">
        <r>  0.0000  0.0370  0.0555  0.0185  0.0000  0.0000  0.0000  0.0000  0.0000 </r>
       </set>
       <set comment="band 6">
        <r>  0.0008  0.1695  0.1336  0.0026  0.0000  0.0000  0.0000  0.0000  0.0000 </r>
       </set>
       <set comment="band 7">
        <r>  0.0519  0.0023  0.0351  0.0656  0.0000  0.0000  0.0000  0.0000  0.0000 </r>
       </set>
       <set comment="band 8">
        <r>  0.0678  0.0004  0.0222  0.0536  0.0000  0.0000  0.0000  0.0000  0.0000 </r>
       </set>
       <set comment="band 9">
        <r>  0.0000  0.0057  0.0086  0.0029  0.0000  0.0000  0.0000  0.0000  0.0000 </r>
       </set>
       <set comment="band 10">
        <r>  0.0002  0.0068  0.0005  0.0058  0.0000  0.0000  0.0000  0.0000  0.0000 </r>
       </set>
       <set comment="band 11">
        <r>  0.0752  0.0532  0.0013  0.0695  0.0000  0.0000  0.0000  0.0000  0.0000 </r>
       </set>
       <set comment="band 12">
        <r>  0.0000  0.0095  0.0143  0.0048  0.0000  0.0000  0.0000  0.0000  0.0000 </r>
       </set>
       <set comment="band 13">
        <r>  0.0000  0.0672  0.1007  0.0336  0.0000  0.0000  0.0000  0.0000  0.0000 </r>
       </set>
       <set comment="band 14">
        <r>  0.0072  0.0058  0.0005  0.0214  0.0000  0.0000  0.0000  0.0000  0.0000 </r>
       </set>
       <set comment="band 15">
        <r>  0.1527  0.0174  0.0003  0.0466  0.0000  0.0000  0.0000  0.0000  0.0000 </r>
       </set>
       <set comment="band 16">
        <r>  0.0000  0.0048  0.0071  0.0024  0.0000  0.0000  0.0000  0.0000  0.0000 </r>
       </set>
       <set comment="band 17">
        <r>  0.1436  0.1020  0.0454  0.6736  0.0000  0.0000  0.0000  0.0000  0.0000 </r>
       </set>
       <set comment="band 18">
        <r>  0.0000  0.2662  0.3993  0.1331  0.0000  0.0000  0.0000  0.0000  0.0000 </r>
       </set>
       <set comment="band 19">
        <r>  0.4381  1.3067  1.2790  0.1171  0.0000  0.0000  0.0000  0.0000  0.0000 </r>
       </set>
       <set comment="band 20">
        <r>  8.8430  0.0259  0.0886  0.0831  0.0000  0.0000  0.0000  0.0000  0.0000 </r>
       </set>
       <set comment="band 21">
        <r>  0.0000  0.6041  0.9061  0.3020  0.0000  0.0000  0.0000  0.0000  0.0000 </r>
       </set>
       <set comment="band 22">
        <r>  0.4080  0.2941  0.0516  0.1396  0.0000  0.0000  0.0000  0.0000  0.0000 </r>
       </set>
       <set comment="band 23">
        <r>  0.0005  0.5203  0.0974  2.4354  0.0000  0.0000  0.0000  0.0000  0.0000 </r>
       </set>
       <set comment="band 24">
        <r>  0.0000  0.5838  0.8757  0.2919  0.0000  0.0000  0.0000  0.0000  0.0000 </r>
       </set>
       <set comment="band 25">
        <r>  0.0965  0.4441  0.1770  0.0457  0.0000  0.0000  0.0000  0.0000  0.0000 </r>
       </set>
       <set comment="band 26">
        <r>  0.0000  0.0032  0.0048  0.0016  0.0000  0.0000  0.0000  0.0000  0.0000 </r>
       </set>
       <set comment="band 27">
        <r>  0.0034  0.0031  0.0505  0.0964  0.0000  0.0000  0.0000  0.0000  0.0000 </r>
       </set>
       <set comment="band 28">
        <r>  0.0000  0.1608  0.2413  0.0804  0.0000  0.0000  0.0000  0.0000  0.0000 </r>
       </set>
       <set comment="band 29">
        <r>  0.1171  0.3928  0.0423  0.2808  0.0000  0.0000  0.0000  0.0000  0.0000 </r>
       </set>
       <set comment="band 30">
        <r>  0.0579  0.3723  0.8477  0.5355  0.0000  0.0000  0.0000  0.0000  0.0000 </r>
       </set>
       <set comment="band 31">
        <r>  0.0000  0.1293  0.1939  0.0646  0.0000  0.0000  0.0000  0.0000  0.0000 </r>
       </set>
       <set comment="band 32">
        <r>  0.3529  0.0816  0.0012  0.1185  0.0000  0.0000  0.0000  0.0000  0.0000 </r>
       </set>
      </set>
     </set>
    </set>
   </array>
  </projected>
 </calculation>
 <structure name="finalpos" >
  <crystal>
   <varray name="basis" >
    <v>       2.47332900       0.00000000       1.42797700 </v>
    <v>       0.82444300       2.33187700       1.42797700 </v>
    <v>       0.00000000       0.00000000       2.85595500 </v>
   </varray>
   <i name="volume">     16.47171763 </i>
   <varray name="rec_basis" >
    <v>       0.40431338      -0.14294636       0.00000000 </v>
    <v>       0.00000000       0.42883909       0.00000000 </v>
    <v>      -0.20215662      -0.14294631       0.35014557 </v>
   </varray>
  </crystal>
  <varray name="positions" >
   <v>       0.00000000       0.00000000       0.00000000 </v>
  </varray>
 </structure>
</modeling>
