<?xml version="1.0" encoding="ISO-8859-1"?>
<modeling>
 <generator>
  <i name="program" type="string">vasp </i>
  <i name="version" type="string">5.4.4.18Apr17-6-g9f103f2a35  </i>
  <i name="subversion" type="string">(build Sep 10 2019 12:14:21) complex            parallel </i>
  <i name="platform" type="string">LinuxIFC </i>
  <i name="date" type="string">2020 09 09 </i>
  <i name="time" type="string">16:04:32 </i>
 </generator>
 <incar>
  <i type="string" name="PREC">accurate</i>
  <i type="string" name="ALGO"> All</i>
  <i type="int" name="ISPIN">     2</i>
  <i type="int" name="ICHARG">     1</i>
  <i type="int" name="NELM">   200</i>
  <i type="int" name="IBRION">     2</i>
  <i name="EDIFF">      0.00001000</i>
  <i name="EDIFFG">     -0.02000000</i>
  <i type="int" name="NSW">     0</i>
  <i type="int" name="ISIF">     3</i>
  <i name="ENCUT">    680.00000000</i>
  <i name="ENAUG">   1360.00000000</i>
  <v name="MAGMOM">      0.60000000</v>
  <i type="string" name="LREAL"> Auto</i>
  <i type="int" name="ISMEAR">     2</i>
  <i name="SIGMA">      0.20000000</i>
  <i name="KSPACING">      0.22000000</i>
  <i type="logical" name="LWAVE"> F  </i>
  <i type="logical" name="LCHARG"> T  </i>
  <i type="logical" name="LVTOT"> T  </i>
  <i type="int" name="LORBIT">    11</i>
  <i type="logical" name="LELF"> T  </i>
  <i type="logical" name="LASPH"> T  </i>
  <i type="logical" name="LAECHG"> T  </i>
  <v type="int" name="KPOINT_BSE">    -1     0     0     0</v>
  <i type="int" name="NELM">   200</i>
  <i type="string" name="METAGGA"> R2scan</i>
  <i type="logical" name="LASPH"> T  </i>
  <i type="int" name="LMIXTAU">    -1</i>
 </incar>
 <structure name="primitive_cell" >
  <crystal>
   <varray name="basis" >
    <v>       0.00000000       2.01946500       2.01946500 </v>
    <v>       2.01946500       0.00000000       2.01946500 </v>
    <v>       2.01946500       2.01946500       0.00000000 </v>
   </varray>
   <i name="volume">     16.47172138 </i>
   <varray name="rec_basis" >
    <v>      -0.24759033       0.24759033       0.24759033 </v>
    <v>       0.24759033      -0.24759033       0.24759033 </v>
    <v>       0.24759033       0.24759033      -0.24759033 </v>
   </varray>
  </crystal>
  <varray name="positions" >
   <v>       0.00000000       0.00000000       0.00000000 </v>
  </varray>
 </structure>
 <varray name="primitive_index" >
  <v type="int" >        1 </v>
 </varray>
 <kpoints>
  <generation param="Gamma">
   <v type="int" name="divisions">      13       13       13 </v>
   <v name="usershift">      0.00000000       0.00000000       0.00000000 </v>
   <v name="genvec1">      0.07692308       0.00000000       0.00000000 </v>
   <v name="genvec2">      0.00000000       0.07692308       0.00000000 </v>
   <v name="genvec3">      0.00000000       0.00000000       0.07692308 </v>
   <v name="shift">      0.00000000       0.00000000       0.00000000 </v>
  </generation>
  <varray name="kpointlist" >
   <v>       0.00000000       0.00000000       0.00000000 </v>
   <v>       0.07692308       0.00000000       0.00000000 </v>
   <v>       0.15384615       0.00000000       0.00000000 </v>
   <v>       0.23076923       0.00000000       0.00000000 </v>
   <v>       0.30769231       0.00000000       0.00000000 </v>
   <v>       0.38461538       0.00000000       0.00000000 </v>
   <v>       0.46153846       0.00000000       0.00000000 </v>
   <v>       0.07692308       0.07692308       0.00000000 </v>
   <v>       0.15384615       0.07692308       0.00000000 </v>
   <v>       0.23076923       0.07692308       0.00000000 </v>
   <v>       0.30769231       0.07692308       0.00000000 </v>
   <v>       0.38461538       0.07692308       0.00000000 </v>
   <v>       0.46153846       0.07692308       0.00000000 </v>
   <v>      -0.46153846       0.07692308       0.00000000 </v>
   <v>      -0.38461538       0.07692308       0.00000000 </v>
   <v>      -0.30769231       0.07692308       0.00000000 </v>
   <v>      -0.23076923       0.07692308       0.00000000 </v>
   <v>      -0.15384615       0.07692308       0.00000000 </v>
   <v>      -0.07692308       0.07692308       0.00000000 </v>
   <v>       0.15384615       0.15384615       0.00000000 </v>
   <v>       0.23076923       0.15384615       0.00000000 </v>
   <v>       0.30769231       0.15384615       0.00000000 </v>
   <v>       0.38461538       0.15384615       0.00000000 </v>
   <v>       0.46153846       0.15384615       0.00000000 </v>
   <v>      -0.46153846       0.15384615       0.00000000 </v>
   <v>      -0.38461538       0.15384615       0.00000000 </v>
   <v>      -0.30769231       0.15384615       0.00000000 </v>
   <v>      -0.23076923       0.15384615       0.00000000 </v>
   <v>      -0.15384615       0.15384615       0.00000000 </v>
   <v>       0.23076923       0.23076923       0.00000000 </v>
   <v>       0.30769231       0.23076923       0.00000000 </v>
   <v>       0.38461538       0.23076923       0.00000000 </v>
   <v>       0.46153846       0.23076923       0.00000000 </v>
   <v>      -0.46153846       0.23076923       0.00000000 </v>
   <v>      -0.38461538       0.23076923       0.00000000 </v>
   <v>      -0.30769231       0.23076923       0.00000000 </v>
   <v>      -0.23076923       0.23076923       0.00000000 </v>
   <v>       0.30769231       0.30769231       0.00000000 </v>
   <v>       0.38461538       0.30769231       0.00000000 </v>
   <v>       0.46153846       0.30769231       0.00000000 </v>
   <v>      -0.46153846       0.30769231       0.00000000 </v>
   <v>      -0.38461538       0.30769231       0.00000000 </v>
   <v>      -0.30769231       0.30769231       0.00000000 </v>
   <v>       0.38461538       0.38461538       0.00000000 </v>
   <v>       0.46153846       0.38461538       0.00000000 </v>
   <v>      -0.46153846       0.38461538       0.00000000 </v>
   <v>      -0.38461538       0.38461538       0.00000000 </v>
   <v>       0.46153846       0.46153846       0.00000000 </v>
   <v>      -0.46153846       0.46153846       0.00000000 </v>
   <v>       0.23076923       0.15384615       0.07692308 </v>
   <v>       0.30769231       0.15384615       0.07692308 </v>
   <v>       0.38461538       0.15384615       0.07692308 </v>
   <v>       0.46153846       0.15384615       0.07692308 </v>
   <v>      -0.46153846       0.15384615       0.07692308 </v>
   <v>       0.30769231       0.23076923       0.07692308 </v>
   <v>       0.38461538       0.23076923       0.07692308 </v>
   <v>       0.46153846       0.23076923       0.07692308 </v>
   <v>      -0.46153846       0.23076923       0.07692308 </v>
   <v>      -0.38461538       0.23076923       0.07692308 </v>
   <v>      -0.30769231       0.23076923       0.07692308 </v>
   <v>      -0.23076923       0.23076923       0.07692308 </v>
   <v>      -0.15384615       0.23076923       0.07692308 </v>
   <v>       0.38461538       0.30769231       0.07692308 </v>
   <v>       0.46153846       0.30769231       0.07692308 </v>
   <v>      -0.46153846       0.30769231       0.07692308 </v>
   <v>      -0.38461538       0.30769231       0.07692308 </v>
   <v>      -0.30769231       0.30769231       0.07692308 </v>
   <v>      -0.23076923       0.30769231       0.07692308 </v>
   <v>       0.46153846       0.38461538       0.07692308 </v>
   <v>      -0.46153846       0.38461538       0.07692308 </v>
   <v>      -0.38461538       0.38461538       0.07692308 </v>
   <v>      -0.30769231       0.38461538       0.07692308 </v>
   <v>      -0.46153846       0.46153846       0.07692308 </v>
   <v>      -0.38461538       0.46153846       0.07692308 </v>
   <v>       0.46153846       0.30769231       0.15384615 </v>
   <v>      -0.46153846       0.30769231       0.15384615 </v>
   <v>      -0.38461538       0.30769231       0.15384615 </v>
   <v>      -0.46153846       0.38461538       0.15384615 </v>
   <v>      -0.38461538       0.38461538       0.15384615 </v>
   <v>      -0.30769231       0.38461538       0.15384615 </v>
   <v>      -0.23076923       0.38461538       0.15384615 </v>
   <v>      -0.38461538       0.46153846       0.15384615 </v>
   <v>      -0.30769231       0.46153846       0.15384615 </v>
   <v>      -0.30769231       0.46153846       0.23076923 </v>
  </varray>
  <varray name="weights" >
   <v>       0.00045517 </v>
   <v>       0.00364133 </v>
   <v>       0.00364133 </v>
   <v>       0.00364133 </v>
   <v>       0.00364133 </v>
   <v>       0.00364133 </v>
   <v>       0.00364133 </v>
   <v>       0.00273100 </v>
   <v>       0.01092399 </v>
   <v>       0.01092399 </v>
   <v>       0.01092399 </v>
   <v>       0.01092399 </v>
   <v>       0.01092399 </v>
   <v>       0.01092399 </v>
   <v>       0.01092399 </v>
   <v>       0.01092399 </v>
   <v>       0.01092399 </v>
   <v>       0.01092399 </v>
   <v>       0.00546199 </v>
   <v>       0.00273100 </v>
   <v>       0.01092399 </v>
   <v>       0.01092399 </v>
   <v>       0.01092399 </v>
   <v>       0.01092399 </v>
   <v>       0.01092399 </v>
   <v>       0.01092399 </v>
   <v>       0.01092399 </v>
   <v>       0.01092399 </v>
   <v>       0.00546199 </v>
   <v>       0.00273100 </v>
   <v>       0.01092399 </v>
   <v>       0.01092399 </v>
   <v>       0.01092399 </v>
   <v>       0.01092399 </v>
   <v>       0.01092399 </v>
   <v>       0.01092399 </v>
   <v>       0.00546199 </v>
   <v>       0.00273100 </v>
   <v>       0.01092399 </v>
   <v>       0.01092399 </v>
   <v>       0.01092399 </v>
   <v>       0.01092399 </v>
   <v>       0.00546199 </v>
   <v>       0.00273100 </v>
   <v>       0.01092399 </v>
   <v>       0.01092399 </v>
   <v>       0.00546199 </v>
   <v>       0.00273100 </v>
   <v>       0.00546199 </v>
   <v>       0.01092399 </v>
   <v>       0.02184797 </v>
   <v>       0.02184797 </v>
   <v>       0.02184797 </v>
   <v>       0.02184797 </v>
   <v>       0.01092399 </v>
   <v>       0.02184797 </v>
   <v>       0.02184797 </v>
   <v>       0.02184797 </v>
   <v>       0.02184797 </v>
   <v>       0.02184797 </v>
   <v>       0.02184797 </v>
   <v>       0.01092399 </v>
   <v>       0.01092399 </v>
   <v>       0.02184797 </v>
   <v>       0.02184797 </v>
   <v>       0.02184797 </v>
   <v>       0.02184797 </v>
   <v>       0.01092399 </v>
   <v>       0.01092399 </v>
   <v>       0.02184797 </v>
   <v>       0.02184797 </v>
   <v>       0.01092399 </v>
   <v>       0.01092399 </v>
   <v>       0.01092399 </v>
   <v>       0.01092399 </v>
   <v>       0.02184797 </v>
   <v>       0.02184797 </v>
   <v>       0.01092399 </v>
   <v>       0.02184797 </v>
   <v>       0.02184797 </v>
   <v>       0.01092399 </v>
   <v>       0.01092399 </v>
   <v>       0.01092399 </v>
   <v>       0.01092399 </v>
  </varray>
 </kpoints>
 <parameters>
  <separator name="general" >
   <i type="string" name="SYSTEM">unknown system</i>
   <i type="logical" name="LCOMPAT"> F  </i>
  </separator>
  <separator name="electronic" >
   <i type="string" name="PREC">accura</i>
   <i name="ENMAX">    680.00000000</i>
   <i name="ENAUG">   1360.00000000</i>
   <i name="EDIFF">      0.00001000</i>
   <i type="int" name="IALGO">    58</i>
   <i type="int" name="IWAVPR">    10</i>
   <i type="int" name="NBANDS">     5</i>
   <i name="NELECT">      3.00000000</i>
   <i type="int" name="TURBO">     0</i>
   <i type="int" name="IRESTART">     0</i>
   <i type="int" name="NREBOOT">     0</i>
   <i type="int" name="NMIN">     0</i>
   <i name="EREF">      0.00000000</i>
   <separator name="electronic smearing" >
    <i type="int" name="ISMEAR">     2</i>
    <i name="SIGMA">      0.20000000</i>
    <i name="KSPACING">      0.22000000</i>
    <i type="logical" name="KGAMMA"> T  </i>
   </separator>
   <separator name="electronic projectors" >
    <i type="logical" name="LREAL"> T  </i>
    <v name="ROPT">     -0.00025000</v>
    <i type="int" name="LMAXPAW">  -100</i>
    <i type="int" name="LMAXMIX">     2</i>
    <i type="logical" name="NLSPLINE"> F  </i>
   </separator>
   <separator name="electronic startup" >
    <i type="int" name="ISTART">     0</i>
    <i type="int" name="ICHARG">     1</i>
    <i type="int" name="INIWAV">     1</i>
   </separator>
   <separator name="electronic spin" >
    <i type="int" name="ISPIN">     2</i>
    <i type="logical" name="LNONCOLLINEAR"> F  </i>
    <v name="MAGMOM">      0.60000000</v>
    <i name="NUPDOWN">     -1.00000000</i>
    <i type="logical" name="LSORBIT"> F  </i>
    <v name="SAXIS">      0.00000000      0.00000000      1.00000000</v>
    <i type="logical" name="LSPIRAL"> F  </i>
    <v name="QSPIRAL">      0.00000000      0.00000000      0.00000000</v>
    <i type="logical" name="LZEROZ"> F  </i>
   </separator>
   <separator name="electronic exchange-correlation" >
    <i type="logical" name="LASPH"> T  </i>
    <i type="logical" name="LMETAGGA"> F  </i>
   </separator>
   <separator name="electronic convergence" >
    <i type="int" name="NELM">   200</i>
    <i type="int" name="NELMDL">    -5</i>
    <i type="int" name="NELMIN">     2</i>
    <i name="ENINI">    680.00000000</i>
    <separator name="electronic convergence detail" >
     <i type="logical" name="LDIAG"> T  </i>
     <i type="logical" name="LSUBROT"> F  </i>
     <i name="WEIMIN">      0.00000000</i>
     <i name="EBREAK">      0.00000050</i>
     <i name="DEPER">      0.30000000</i>
     <i type="int" name="NRMM">     4</i>
     <i name="TIME">      0.40000000</i>
    </separator>
   </separator>
   <separator name="electronic mixer" >
    <i name="AMIX">      0.40000000</i>
    <i name="BMIX">      1.00000000</i>
    <i name="AMIN">      0.10000000</i>
    <i name="AMIX_MAG">      1.60000000</i>
    <i name="BMIX_MAG">      1.00000000</i>
    <separator name="electronic mixer details" >
     <i type="int" name="IMIX">     4</i>
     <i type="logical" name="MIXFIRST"> F  </i>
     <i type="int" name="MAXMIX">   -45</i>
     <i name="WC">    100.00000000</i>
     <i type="int" name="INIMIX">     1</i>
     <i type="int" name="MIXPRE">     1</i>
     <i type="int" name="MREMOVE">     5</i>
    </separator>
   </separator>
   <separator name="electronic dipolcorrection" >
    <i type="logical" name="LDIPOL"> F  </i>
    <i type="logical" name="LMONO"> F  </i>
    <i type="int" name="IDIPOL">     0</i>
    <i name="EPSILON">      1.00000000</i>
    <v name="DIPOL">   -100.00000000   -100.00000000   -100.00000000</v>
    <i name="EFIELD">      0.00000000</i>
   </separator>
  </separator>
  <separator name="grids" >
   <i type="int" name="NGX">    24</i>
   <i type="int" name="NGY">    24</i>
   <i type="int" name="NGZ">    24</i>
   <i type="int" name="NGXF">    48</i>
   <i type="int" name="NGYF">    48</i>
   <i type="int" name="NGZF">    48</i>
   <i type="logical" name="ADDGRID"> F  </i>
  </separator>
  <separator name="ionic" >
   <i type="int" name="NSW">     0</i>
   <i type="int" name="IBRION">    -1</i>
   <i type="int" name="MDALGO">     0</i>
   <i type="int" name="ISIF">     3</i>
   <i name="PSTRESS">      0.00000000</i>
   <i name="EDIFFG">     -0.02000000</i>
   <i type="int" name="NFREE">     1</i>
   <i name="POTIM">      0.50000000</i>
   <i name="SMASS">     -3.00000000</i>
   <i name="SCALEE">      1.00000000</i>
  </separator>
  <separator name="ionic md" >
   <i name="TEBEG">      0.00010000</i>
   <i name="TEEND">      0.00010000</i>
   <i type="int" name="NBLOCK">     1</i>
   <i type="int" name="KBLOCK">     1</i>
   <i type="int" name="NPACO">   256</i>
   <i name="APACO">     16.00000000</i>
  </separator>
  <separator name="symmetry" >
   <i type="int" name="ISYM">     2</i>
   <i name="SYMPREC">      0.00001000</i>
  </separator>
  <separator name="dos" >
   <i type="int" name="LORBIT">    11</i>
   <v name="RWIGS">     -1.00000000</v>
   <i type="int" name="NEDOS">   301</i>
   <i name="EMIN">     10.00000000</i>
   <i name="EMAX">    -10.00000000</i>
   <i name="EFERMI">      0.00000000</i>
  </separator>
  <separator name="writing" >
   <i type="int" name="NWRITE">     2</i>
   <i type="logical" name="LWAVE"> F  </i>
   <i type="logical" name="LDOWNSAMPLE"> F  </i>
   <i type="logical" name="LCHARG"> T  </i>
   <i type="logical" name="LPARD"> F  </i>
   <i type="logical" name="LVTOT"> T  </i>
   <i type="logical" name="LVHAR"> F  </i>
   <i type="logical" name="LELF"> T  </i>
   <i type="logical" name="LOPTICS"> F  </i>
   <v name="STM">      0.00000000      0.00000000      0.00000000      0.00000000      0.00000000      0.00000000      0.00000000</v>
  </separator>
  <separator name="performance" >
   <i type="int" name="NPAR">     1</i>
   <i type="int" name="NSIM">     4</i>
   <i type="int" name="NBLK">    -1</i>
   <i type="logical" name="LPLANE"> T  </i>
   <i type="logical" name="LSCALAPACK"> F  </i>
   <i type="logical" name="LSCAAWARE"> F  </i>
   <i type="logical" name="LSCALU"> F  </i>
   <i type="logical" name="LASYNC"> F  </i>
   <i type="logical" name="LORBITALREAL"> F  </i>
  </separator>
  <separator name="miscellaneous" >
   <i type="int" name="IDIOT">     3</i>
   <i type="int" name="ISPECIAL">     0</i>
   <i type="logical" name="LMUSIC"> F  </i>
   <v name="POMASS">     26.98100000</v>
   <v name="DARWINR">      0.00000000</v>
   <v name="DARWINV">      1.00000000</v>
   <i type="logical" name="LCORR"> T  </i>
  </separator>
  <i type="logical" name="GGA_COMPAT"> T  </i>
  <i type="logical" name="LBERRY"> F  </i>
  <i type="int" name="ICORELEVEL">     0</i>
  <i type="logical" name="LDAU"> F  </i>
  <i type="int" name="I_CONSTRAINED_M">     0</i>
  <separator name="electronic exchange-correlation" >
   <i type="string" name="GGA">--</i>
   <i type="int" name="VOSKOWN">     0</i>
   <i type="logical" name="LHFCALC"> F  </i>
   <i type="string" name="PRECFOCK"></i>
   <i type="logical" name="LSYMGRAD"> F  </i>
   <i type="logical" name="LHFONE"> F  </i>
   <i type="logical" name="LRHFCALC"> F  </i>
   <i type="logical" name="LTHOMAS"> F  </i>
   <i type="logical" name="LMODELHF"> F  </i>
   <i name="ENCUT4O">     -1.00000000</i>
   <i type="int" name="EXXOEP">     0</i>
   <i type="int" name="FOURORBIT">     0</i>
   <i name="AEXX">      0.00000000</i>
   <i name="HFALPHA">      0.00000000</i>
   <i name="MCALPHA">      0.00000000</i>
   <i name="ALDAX">      1.00000000</i>
   <i name="AGGAX">      1.00000000</i>
   <i name="ALDAC">      1.00000000</i>
   <i name="AGGAC">      1.00000000</i>
   <i type="int" name="NKREDX">     1</i>
   <i type="int" name="NKREDY">     1</i>
   <i type="int" name="NKREDZ">     1</i>
   <i type="logical" name="SHIFTRED"> F  </i>
   <i type="logical" name="ODDONLY"> F  </i>
   <i type="logical" name="EVENONLY"> F  </i>
   <i type="int" name="LMAXFOCK">     0</i>
   <i type="int" name="NMAXFOCKAE">     0</i>
   <i type="logical" name="LFOCKAEDFT"> F  </i>
   <i name="HFSCREEN">      0.00000000</i>
   <i name="HFSCREENC">      0.00000000</i>
   <i type="int" name="NBANDSGWLOW">     0</i>
  </separator>
  <separator name="vdW DFT" >
   <i type="logical" name="LUSE_VDW"> F  </i>
   <i name="Zab_VDW">     -0.84910000</i>
   <i name="PARAM1">      0.12340000</i>
   <i name="PARAM2">      1.00000000</i>
   <i name="PARAM3">      0.00000000</i>
  </separator>
  <separator name="model GW" >
   <i type="int" name="MODEL_GW">     0</i>
   <i name="MODEL_EPS0">      9.88303283</i>
   <i name="MODEL_ALPHA">      1.00000000</i>
  </separator>
  <separator name="linear response parameters" >
   <i type="logical" name="LEPSILON"> F  </i>
   <i type="logical" name="LRPA"> F  </i>
   <i type="logical" name="LNABLA"> F  </i>
   <i type="logical" name="LVEL"> F  </i>
   <i type="int" name="KINTER">     0</i>
   <i name="CSHIFT">      0.10000000</i>
   <i name="OMEGAMAX">     -1.00000000</i>
   <i name="DEG_THRESHOLD">      0.00200000</i>
   <i name="RTIME">     -0.10000000</i>
   <i name="WPLASMAI">      0.00000000</i>
   <v name="DFIELD">      0.00000000      0.00000000      0.00000000</v>
   <v name="WPLASMA">      0.00000000      0.00000000      0.00000000      0.00000000      0.00000000      0.00000000      0.00000000      0.00000000      0.00000000</v>
  </separator>
  <separator name="orbital magnetization" >
   <i type="logical" name="NUCIND"> F  </i>
   <v name="MAGPOS">      0.00000000      0.00000000      0.00000000</v>
   <i type="logical" name="LNICSALL"> T  </i>
   <i type="logical" name="ORBITALMAG"> F  </i>
   <i type="logical" name="LMAGBLOCH"> F  </i>
   <i type="logical" name="LCHIMAG"> F  </i>
   <i type="logical" name="LGAUGE"> T  </i>
   <i type="int" name="MAGATOM">     0</i>
   <v name="MAGDIPOL">      0.00000000      0.00000000      0.00000000</v>
   <v name="AVECCONST">      0.00000000      0.00000000      0.00000000</v>
  </separator>
  <separator name="response functions" >
   <i type="logical" name="LADDER"> F  </i>
   <i type="logical" name="LRPAFORCE"> F  </i>
   <i type="logical" name="LFXC"> F  </i>
   <i type="logical" name="LHARTREE"> T  </i>
   <i type="int" name="IBSE">     0</i>
   <v type="int" name="KPOINT">    -1     0     0     0</v>
   <i type="logical" name="LTCTE"> F  </i>
   <i type="logical" name="LTETE"> F  </i>
   <i type="logical" name="LTRIPLET"> F  </i>
   <i type="logical" name="LFXCEPS"> F  </i>
   <i type="logical" name="LFXHEG"> F  </i>
   <i type="int" name="NATURALO">     2</i>
   <i type="logical" name="L2ORDER"> F  </i>
   <i type="logical" name="LMP2LT"> F  </i>
   <i type="logical" name="LUSEW"> F  </i>
   <i name="ENCUTGW">     -2.00000000</i>
   <i name="ENCUTGWSOFT">     -2.00000000</i>
   <i name="ENCUTLF">     -1.00000000</i>
   <i type="int" name="LMAXMP2">    -1</i>
   <i name="SCISSOR">      0.00000000</i>
   <i type="int" name="NOMEGA">     0</i>
   <i type="int" name="NOMEGAR">     0</i>
   <i type="int" name="NBANDSGW">    -1</i>
   <i type="int" name="NBANDSO">    -1</i>
   <i type="int" name="NBANDSV">    -1</i>
   <i type="int" name="NELM">   200</i>
   <i type="int" name="NELMHF">     1</i>
   <i type="int" name="DIM">     3</i>
   <i type="int" name="ANTIRES">     0</i>
   <i name="OMEGAMAX">    -30.00000000</i>
   <i name="OMEGAMIN">    -30.00000000</i>
   <i name="OMEGATL">   -200.00000000</i>
   <i type="int" name="OMEGAGRID">   140</i>
   <i name="CSHIFT">     -0.10000000</i>
   <i type="logical" name="SELFENERGY"> F  </i>
   <i type="logical" name="LSPECTRAL"> F  </i>
   <i type="logical" name="LSPECTRALGW"> F  </i>
   <i type="logical" name="LSINGLES"> F  </i>
   <i type="logical" name="LFERMIGW"> F  </i>
   <i type="logical" name="ODDONLYGW"> F  </i>
   <i type="logical" name="EVENONLYGW"> F  </i>
   <i type="int" name="NKREDLFX">     1</i>
   <i type="int" name="NKREDLFY">     1</i>
   <i type="int" name="NKREDLFZ">     1</i>
   <i type="int" name="MAXMEM">  2800</i>
   <i type="int" name="TELESCOPE">     0</i>
   <i type="int" name="TAUPAR">     1</i>
   <i type="int" name="OMEGAPAR">    -1</i>
   <i name="LAMBDA">      1.00000000</i>
  </separator>
  <separator name="External order field" >
   <i name="OFIELD_KAPPA">      0.00000000</i>
   <v name="OFIELD_K">      0.00000000      0.00000000      0.00000000</v>
   <i name="OFIELD_Q6_NEAR">      0.00000000</i>
   <i name="OFIELD_Q6_FAR">      0.00000000</i>
   <i name="OFIELD_A">      0.00000000</i>
  </separator>
 </parameters>
 <atominfo>
  <atoms>       1 </atoms>
  <types>       1 </types>
  <array name="atoms" >
   <dimension dim="1">ion</dimension>
   <field type="string">element</field>
   <field type="int">atomtype</field>
   <set>
    <rc><c>Al</c><c>   1</c></rc>
   </set>
  </array>
  <array name="atomtypes" >
   <dimension dim="1">type</dimension>
   <field type="int">atomspertype</field>
   <field type="string">element</field>
   <field>mass</field>
   <field>valence</field>
   <field type="string">pseudopotential</field>
   <set>
    <rc><c>   1</c><c>Al</c><c>     26.98100000</c><c>      3.00000000</c><c>  PAW_PBE Al 04Jan2001                  </c></rc>
   </set>
  </array>
 </atominfo>
 <structure name="initialpos" >
  <crystal>
   <varray name="basis" >
    <v>       0.00000000       2.01946500       2.01946500 </v>
    <v>       2.01946500       0.00000000       2.01946500 </v>
    <v>       2.01946500       2.01946500       0.00000000 </v>
   </varray>
   <i name="volume">     16.47172138 </i>
   <varray name="rec_basis" >
    <v>      -0.24759033       0.24759033       0.24759033 </v>
    <v>       0.24759033      -0.24759033       0.24759033 </v>
    <v>       0.24759033       0.24759033      -0.24759033 </v>
   </varray>
  </crystal>
  <varray name="positions" >
   <v>       0.00000000       0.00000000       0.00000000 </v>
  </varray>
 </structure>
 <calculation>
  <scstep>
   <time name="total">    0.94    0.94</time>
   <energy>
    <i name="alphaZ">     -0.20391371 </i>
    <i name="ewald">    -73.55776684 </i>
    <i name="hartreedc">     -0.10539202 </i>
    <i name="XCdc">    -26.12431280 </i>
    <i name="pawpsdc">    147.24916918 </i>
    <i name="pawaedc">   -115.30705280 </i>
    <i name="eentropy">     -0.00060270 </i>
    <i name="bandstr">     13.60601717 </i>
    <i name="atom">     53.53856935 </i>
    <i name="e_fr_energy">     -0.90528517 </i>
    <i name="e_wo_entrp">     -0.90468247 </i>
    <i name="e_0_energy">     -0.90513449 </i>
   </energy>
  </scstep>
  <scstep>
   <time name="total">    0.92    0.92</time>
   <energy>
    <i name="e_fr_energy">     -3.71261377 </i>
    <i name="e_wo_entrp">     -3.71288312 </i>
    <i name="e_0_energy">     -3.71268111 </i>
   </energy>
  </scstep>
  <scstep>
   <time name="total">    0.96    0.96</time>
   <energy>
    <i name="e_fr_energy">     -3.74205252 </i>
    <i name="e_wo_entrp">     -3.74223039 </i>
    <i name="e_0_energy">     -3.74209698 </i>
   </energy>
  </scstep>
  <scstep>
   <time name="total">    0.94    0.94</time>
   <energy>
    <i name="e_fr_energy">     -3.74215653 </i>
    <i name="e_wo_entrp">     -3.74233388 </i>
    <i name="e_0_energy">     -3.74220087 </i>
   </energy>
  </scstep>
  <scstep>
   <time name="total">    1.00    1.00</time>
   <energy>
    <i name="e_fr_energy">     -3.74215723 </i>
    <i name="e_wo_entrp">     -3.74233458 </i>
    <i name="e_0_energy">     -3.74220157 </i>
   </energy>
  </scstep>
  <scstep>
   <time name="total">    1.19    1.19</time>
   <energy>
    <i name="alphaZ">     -0.20391371 </i>
    <i name="ewald">    -73.55776684 </i>
    <i name="hartreedc">     -0.10635955 </i>
    <i name="XCdc">    -26.12573276 </i>
    <i name="pawpsdc">    141.25884500 </i>
    <i name="pawaedc">   -109.31690501 </i>
    <i name="eentropy">      0.00017702 </i>
    <i name="bandstr">     10.77092308 </i>
    <i name="atom">     53.53856935 </i>
    <i name="e_fr_energy">     -3.74216309 </i>
    <i name="e_wo_entrp">     -3.74234011 </i>
    <i name="e_0_energy">     -3.74220734 </i>
   </energy>
  </scstep>
  <structure>
   <crystal>
    <varray name="basis" >
     <v>       0.00000000       2.01946500       2.01946500 </v>
     <v>       2.01946500       0.00000000       2.01946500 </v>
     <v>       2.01946500       2.01946500       0.00000000 </v>
    </varray>
    <i name="volume">     16.47172138 </i>
    <varray name="rec_basis" >
     <v>      -0.24759033       0.24759033       0.24759033 </v>
     <v>       0.24759033      -0.24759033       0.24759033 </v>
     <v>       0.24759033       0.24759033      -0.24759033 </v>
    </varray>
   </crystal>
   <varray name="positions" >
    <v>       0.00000000       0.00000000       0.00000000 </v>
   </varray>
  </structure>
  <varray name="forces" >
   <v>      -0.00000000       0.00000000      -0.00000000 </v>
  </varray>
  <varray name="stress" >
   <v>       0.68875598      -0.00000000       0.00000000 </v>
   <v>      -0.00000000       0.68875598       0.00000000 </v>
   <v>       0.00000000      -0.00000000       0.68875598 </v>
  </varray>
  <energy>
   <i name="e_fr_energy">     -3.74216309 </i>
   <i name="e_wo_entrp">     -3.74220734 </i>
   <i name="e_0_energy">      0.00017702 </i>
  </energy>
  <time name="totalsc">    7.66    7.69</time>
  <eigenvalues>
   <array>
    <dimension dim="1">band</dimension>
    <dimension dim="2">kpoint</dimension>
    <dimension dim="3">spin</dimension>
    <field>eigene</field>
    <field>occ</field>
    <set>
     <set comment="spin 1">
      <set comment="kpoint 1">
       <r>   -3.1282    1.0000 </r>
       <r>   20.6468    0.0000 </r>
       <r>   20.6468    0.0000 </r>
       <r>   20.6468    0.0000 </r>
       <r>   22.1516    0.0000 </r>
      </set>
      <set comment="kpoint 2">
       <r>   -2.9672    1.0000 </r>
       <r>   18.2890    0.0000 </r>
       <r>   20.1400    0.0000 </r>
       <r>   20.1400    0.0000 </r>
       <r>   22.8359    0.0000 </r>
      </set>
      <set comment="kpoint 3">
       <r>   -2.4852    1.0000 </r>
       <r>   15.1783    0.0000 </r>
       <r>   19.4735    0.0000 </r>
       <r>   19.4735    0.0000 </r>
       <r>   22.6707    0.0000 </r>
      </set>
      <set comment="kpoint 4">
       <r>   -1.6856    1.0000 </r>
       <r>   12.1797    0.0000 </r>
       <r>   19.0142    0.0000 </r>
       <r>   19.0142    0.0000 </r>
       <r>   22.4373    0.0000 </r>
      </set>
      <set comment="kpoint 5">
       <r>   -0.5737    1.0000 </r>
       <r>    9.3906    0.0000 </r>
       <r>   18.8093    0.0000 </r>
       <r>   18.8093    0.0000 </r>
       <r>   21.8036    0.0000 </r>
      </set>
      <set comment="kpoint 6">
       <r>    0.8435    1.0000 </r>
       <r>    6.8468    1.0000 </r>
       <r>   18.8698    0.0000 </r>
       <r>   18.8698    0.0000 </r>
       <r>   20.6707    0.0000 </r>
      </set>
      <set comment="kpoint 7">
       <r>    2.5550    1.0000 </r>
       <r>    4.5702    1.0000 </r>
       <r>   19.1993    0.0000 </r>
       <r>   19.2006    0.0000 </r>
       <r>   19.8014    0.0000 </r>
      </set>
      <set comment="kpoint 8">
       <r>   -2.9135    1.0000 </r>
       <r>   19.0908    0.0000 </r>
       <r>   19.0908    0.0000 </r>
       <r>   19.3774    0.0000 </r>
       <r>   21.6562    0.0000 </r>
      </set>
      <set comment="kpoint 9">
       <r>   -2.5387    1.0000 </r>
       <r>   16.2825    0.0000 </r>
       <r>   18.2585    0.0000 </r>
       <r>   19.4764    0.0000 </r>
       <r>   21.9769    0.0000 </r>
      </set>
      <set comment="kpoint 10">
       <r>   -1.8452    1.0000 </r>
       <r>   13.2673    0.0000 </r>
       <r>   17.6844    0.0000 </r>
       <r>   19.1515    0.0000 </r>
       <r>   21.3745    0.0000 </r>
      </set>
      <set comment="kpoint 11">
       <r>   -0.8377    1.0000 </r>
       <r>   10.4174    0.0000 </r>
       <r>   17.3780    0.0000 </r>
       <r>   18.9086    0.0000 </r>
       <r>   19.8871    0.0000 </r>
      </set>
      <set comment="kpoint 12">
       <r>    0.4773    1.0000 </r>
       <r>    7.7961    1.0151 </r>
       <r>   17.3424    0.0000 </r>
       <r>   18.6045    0.0000 </r>
       <r>   18.9319    0.0000 </r>
      </set>
      <set comment="kpoint 13">
       <r>    2.0907    1.0000 </r>
       <r>    5.4320    1.0000 </r>
       <r>   17.5793    0.0000 </r>
       <r>   17.6333    0.0000 </r>
       <r>   19.1815    0.0000 </r>
      </set>
      <set comment="kpoint 14">
       <r>    3.3154    1.0000 </r>
       <r>    4.0191    1.0000 </r>
       <r>   16.9249    0.0000 </r>
       <r>   18.0896    0.0000 </r>
       <r>   19.7232    0.0000 </r>
      </set>
      <set comment="kpoint 15">
       <r>    1.5206    1.0000 </r>
       <r>    6.1893    1.0000 </r>
       <r>   16.4967    0.0000 </r>
       <r>   18.8720    0.0000 </r>
       <r>   20.5400    0.0000 </r>
      </set>
      <set comment="kpoint 16">
       <r>    0.0053    1.0000 </r>
       <r>    8.6401    0.0000 </r>
       <r>   16.3512    0.0000 </r>
       <r>   19.9087    0.0000 </r>
       <r>   20.5452    0.0000 </r>
      </set>
      <set comment="kpoint 17">
       <r>   -1.2080    1.0000 </r>
       <r>   11.3365    0.0000 </r>
       <r>   16.4906    0.0000 </r>
       <r>   20.5869    0.0000 </r>
       <r>   21.2745    0.0000 </r>
      </set>
      <set comment="kpoint 18">
       <r>   -2.1115    1.0000 </r>
       <r>   14.2289    0.0000 </r>
       <r>   16.9268    0.0000 </r>
       <r>   20.9169    0.0000 </r>
       <r>   22.6362    0.0000 </r>
      </set>
      <set comment="kpoint 19">
       <r>   -2.6992    1.0000 </r>
       <r>   16.9907    0.0000 </r>
       <r>   17.8870    0.0000 </r>
       <r>   21.0643    0.0000 </r>
       <r>   22.4028    0.0000 </r>
      </set>
      <set comment="kpoint 20">
       <r>   -2.2715    1.0000 </r>
       <r>   17.3088    0.0000 </r>
       <r>   17.3088    0.0000 </r>
       <r>   17.4841    0.0000 </r>
       <r>   20.5454    0.0000 </r>
      </set>
      <set comment="kpoint 21">
       <r>   -1.6856    1.0000 </r>
       <r>   14.5561    0.0000 </r>
       <r>   16.6310    0.0000 </r>
       <r>   17.9007    0.0000 </r>
       <r>   19.2661    0.0000 </r>
      </set>
      <set comment="kpoint 22">
       <r>   -0.7849    1.0000 </r>
       <r>   11.7017    0.0000 </r>
       <r>   16.2267    0.0000 </r>
       <r>   17.5296    0.0000 </r>
       <r>   17.9055    0.0000 </r>
      </set>
      <set comment="kpoint 23">
       <r>    0.4246    1.0000 </r>
       <r>    9.0263    0.0000 </r>
       <r>   16.0960    0.0000 </r>
       <r>   16.2049    0.0000 </r>
       <r>   17.8092    0.0000 </r>
      </set>
      <set comment="kpoint 24">
       <r>    1.9345    1.0000 </r>
       <r>    6.5883    1.0000 </r>
       <r>   15.1062    0.0000 </r>
       <r>   16.2395    0.0000 </r>
       <r>   18.0017    0.0000 </r>
      </set>
      <set comment="kpoint 25">
       <r>    3.7190    1.0000 </r>
       <r>    4.4295    1.0000 </r>
       <r>   14.2896    0.0000 </r>
       <r>   16.6575    0.0000 </r>
       <r>   18.4753    0.0000 </r>
      </set>
      <set comment="kpoint 26">
       <r>    2.5035    1.0000 </r>
       <r>    5.8276    1.0000 </r>
       <r>   13.7650    0.0000 </r>
       <r>   17.3503    0.0000 </r>
       <r>   19.2331    0.0000 </r>
      </set>
      <set comment="kpoint 27">
       <r>    0.8954    1.0000 </r>
       <r>    8.1666   -0.0402 </r>
       <r>   13.5435    0.0000 </r>
       <r>   18.3158    0.0000 </r>
       <r>   20.2653    0.0000 </r>
      </set>
      <set comment="kpoint 28">
       <r>   -0.4156    1.0000 </r>
       <r>   10.7130    0.0000 </r>
       <r>   13.6627    0.0000 </r>
       <r>   19.5460    0.0000 </r>
       <r>   21.5480    0.0000 </r>
      </set>
      <set comment="kpoint 29">
       <r>   -1.4201    1.0000 </r>
       <r>   13.0863    0.0000 </r>
       <r>   14.4689    0.0000 </r>
       <r>   21.0082    0.0000 </r>
       <r>   22.3123    0.0000 </r>
      </set>
      <set comment="kpoint 30">
       <r>   -1.2081    1.0000 </r>
       <r>   15.8496    0.0000 </r>
       <r>   15.8548    0.0000 </r>
       <r>   15.8548    0.0000 </r>
       <r>   17.2317    0.0000 </r>
      </set>
      <set comment="kpoint 31">
       <r>   -0.4159    1.0000 </r>
       <r>   13.1874    0.0000 </r>
       <r>   15.3547    0.0000 </r>
       <r>   15.4492    0.0000 </r>
       <r>   16.5789    0.0000 </r>
      </set>
      <set comment="kpoint 32">
       <r>    0.6853    1.0000 </r>
       <r>   10.5126    0.0000 </r>
       <r>   13.9574    0.0000 </r>
       <r>   15.1299    0.0000 </r>
       <r>   16.6961    0.0000 </r>
      </set>
      <set comment="kpoint 33">
       <r>    2.0874    1.0000 </r>
       <r>    8.0239    0.0853 </r>
       <r>   12.7435    0.0000 </r>
       <r>   15.1798    0.0000 </r>
       <r>   16.8570    0.0000 </r>
      </set>
      <set comment="kpoint 34">
       <r>    3.7751    1.0000 </r>
       <r>    5.7818    1.0000 </r>
       <r>   11.8215    0.0000 </r>
       <r>   15.5048    0.0000 </r>
       <r>   17.2602    0.0000 </r>
      </set>
      <set comment="kpoint 35">
       <r>    3.7829    1.0000 </r>
       <r>    5.7580    1.0000 </r>
       <r>   11.2077    0.0000 </r>
       <r>   16.1052    0.0000 </r>
       <r>   17.9433    0.0000 </r>
      </set>
      <set comment="kpoint 36">
       <r>    2.0903    1.0000 </r>
       <r>    7.9332    0.4933 </r>
       <r>   10.9501    0.0000 </r>
       <r>   16.9811    0.0000 </r>
       <r>   18.9060    0.0000 </r>
      </set>
      <set comment="kpoint 37">
       <r>    0.6864    1.0000 </r>
       <r>    9.9237    0.0000 </r>
       <r>   11.4408    0.0000 </r>
       <r>   18.1306    0.0000 </r>
       <r>   20.1268    0.0000 </r>
      </set>
      <set comment="kpoint 38">
       <r>    0.2666    1.0000 </r>
       <r>   13.5566    0.0000 </r>
       <r>   14.5962    0.0000 </r>
       <r>   14.7603    0.0000 </r>
       <r>   14.7603    0.0000 </r>
      </set>
      <set comment="kpoint 39">
       <r>    1.2571    1.0000 </r>
       <r>   11.8845    0.0000 </r>
       <r>   12.2661    0.0000 </r>
       <r>   14.4420    0.0000 </r>
       <r>   15.5764    0.0000 </r>
      </set>
      <set comment="kpoint 40">
       <r>    2.5465    1.0000 </r>
       <r>    9.6875    0.0000 </r>
       <r>   10.6592    0.0000 </r>
       <r>   14.3989    0.0000 </r>
       <r>   15.8925    0.0000 </r>
      </set>
      <set comment="kpoint 41">
       <r>    4.1168    1.0000 </r>
       <r>    7.4118    0.9985 </r>
       <r>    9.6227    0.0000 </r>
       <r>   14.6307    0.0000 </r>
       <r>   16.2596    0.0000 </r>
      </set>
      <set comment="kpoint 42">
       <r>    5.3338    1.0000 </r>
       <r>    5.9537    1.0000 </r>
       <r>    8.9524    0.0000 </r>
       <r>   15.1379    0.0000 </r>
       <r>   16.8706    0.0000 </r>
      </set>
      <set comment="kpoint 43">
       <r>    3.5806    1.0000 </r>
       <r>    7.5524    0.9956 </r>
       <r>    9.0466    0.0000 </r>
       <r>   15.9213    0.0000 </r>
       <r>   17.7567    0.0000 </r>
      </set>
      <set comment="kpoint 44">
       <r>    2.1337    1.0000 </r>
       <r>   10.2092    0.0000 </r>
       <r>   13.7530    0.0000 </r>
       <r>   14.0307    0.0000 </r>
       <r>   14.0307    0.0000 </r>
      </set>
      <set comment="kpoint 45">
       <r>    3.3018    1.0000 </r>
       <r>    8.7765    0.0000 </r>
       <r>   11.6266    0.0000 </r>
       <r>   13.8948    0.0000 </r>
       <r>   14.9721    0.0000 </r>
      </set>
      <set comment="kpoint 46">
       <r>    4.7163    1.0000 </r>
       <r>    7.6776    1.0310 </r>
       <r>    9.3615    0.0000 </r>
       <r>   14.0337    0.0000 </r>
       <r>   15.4841    0.0000 </r>
      </set>
      <set comment="kpoint 47">
       <r>    5.9755    1.0000 </r>
       <r>    7.0236    1.0000 </r>
       <r>    7.5818    0.9983 </r>
       <r>   14.4477    0.0000 </r>
       <r>   16.0571    0.0000 </r>
      </set>
      <set comment="kpoint 48">
       <r>    4.3138    1.0000 </r>
       <r>    7.2864    0.9999 </r>
       <r>   13.3297    0.0000 </r>
       <r>   13.6662    0.0000 </r>
       <r>   13.6662    0.0000 </r>
      </set>
      <set comment="kpoint 49">
       <r>    5.1887    1.0000 </r>
       <r>    6.5203    1.0000 </r>
       <r>   11.4269    0.0000 </r>
       <r>   13.7125    0.0000 </r>
       <r>   14.7699    0.0000 </r>
      </set>
      <set comment="kpoint 50">
       <r>   -2.0582    1.0000 </r>
       <r>   15.0541    0.0000 </r>
       <r>   16.1782    0.0000 </r>
       <r>   20.0469    0.0000 </r>
       <r>   21.1981    0.0000 </r>
      </set>
      <set comment="kpoint 51">
       <r>   -1.2610    1.0000 </r>
       <r>   12.4784    0.0000 </r>
       <r>   15.3052    0.0000 </r>
       <r>   19.5718    0.0000 </r>
       <r>   20.1976    0.0000 </r>
      </set>
      <set comment="kpoint 52">
       <r>   -0.1524    1.0000 </r>
       <r>    9.7568    0.0000 </r>
       <r>   15.0258    0.0000 </r>
       <r>   18.1271    0.0000 </r>
       <r>   20.1170    0.0000 </r>
      </set>
      <set comment="kpoint 53">
       <r>    1.2602    1.0000 </r>
       <r>    7.2378    1.0000 </r>
       <r>   15.0601    0.0000 </r>
       <r>   16.9492    0.0000 </r>
       <r>   20.2197    0.0000 </r>
      </set>
      <set comment="kpoint 54">
       <r>    2.9651    1.0000 </r>
       <r>    4.9746    1.0000 </r>
       <r>   15.3686    0.0000 </r>
       <r>   16.0685    0.0000 </r>
       <r>   20.5697    0.0000 </r>
      </set>
      <set comment="kpoint 55">
       <r>   -0.9963    1.0000 </r>
       <r>   13.4843    0.0000 </r>
       <r>   14.7056    0.0000 </r>
       <r>   17.4421    0.0000 </r>
       <r>   18.5938    0.0000 </r>
      </set>
      <set comment="kpoint 56">
       <r>    0.0049    1.0000 </r>
       <r>   11.0987    0.0000 </r>
       <r>   13.9735    0.0000 </r>
       <r>   15.8781    0.0000 </r>
       <r>   18.9792    0.0000 </r>
      </set>
      <set comment="kpoint 57">
       <r>    1.3113    1.0000 </r>
       <r>    8.5600    0.0002 </r>
       <r>   13.8354    0.0000 </r>
       <r>   14.6170    0.0000 </r>
       <r>   19.1134    0.0000 </r>
      </set>
      <set comment="kpoint 58">
       <r>    2.9123    1.0000 </r>
       <r>    6.2298    1.0000 </r>
       <r>   13.4626    0.0000 </r>
       <r>   14.2005    0.0000 </r>
       <r>   19.4203    0.0000 </r>
      </set>
      <set comment="kpoint 59">
       <r>    4.1245    1.0000 </r>
       <r>    4.8308    1.0000 </r>
       <r>   12.7838    0.0000 </r>
       <r>   14.6816    0.0000 </r>
       <r>   19.9782    0.0000 </r>
      </set>
      <set comment="kpoint 60">
       <r>    2.3481    1.0000 </r>
       <r>    6.9632    1.0000 </r>
       <r>   12.3766    0.0000 </r>
       <r>   15.4875    0.0000 </r>
       <r>   20.7933    0.0000 </r>
      </set>
      <set comment="kpoint 61">
       <r>    0.8429    1.0000 </r>
       <r>    9.3255    0.0000 </r>
       <r>   12.3136    0.0000 </r>
       <r>   16.5817    0.0000 </r>
       <r>   21.7953    0.0000 </r>
      </set>
      <set comment="kpoint 62">
       <r>   -0.3630    1.0000 </r>
       <r>   11.5064    0.0000 </r>
       <r>   12.9684    0.0000 </r>
       <r>   17.9504    0.0000 </r>
       <r>   21.6498    0.0000 </r>
      </set>
      <set comment="kpoint 63">
       <r>    0.4761    1.0000 </r>
       <r>   12.3000    0.0000 </r>
       <r>   13.4211    0.0000 </r>
       <r>   13.9462    0.0000 </r>
       <r>   17.4457    0.0000 </r>
      </set>
      <set comment="kpoint 64">
       <r>    1.6728    1.0000 </r>
       <r>   10.1019    0.0000 </r>
       <r>   12.2835    0.0000 </r>
       <r>   13.1288    0.0000 </r>
       <r>   18.0388    0.0000 </r>
      </set>
      <set comment="kpoint 65">
       <r>    3.1634    1.0000 </r>
       <r>    7.7551    1.0495 </r>
       <r>   11.2120    0.0000 </r>
       <r>   13.1675    0.0000 </r>
       <r>   18.3750    0.0000 </r>
      </set>
      <set comment="kpoint 66">
       <r>    4.9104    1.0000 </r>
       <r>    5.6399    1.0000 </r>
       <r>   10.4064    0.0000 </r>
       <r>   13.5766    0.0000 </r>
       <r>   18.8804    0.0000 </r>
      </set>
      <set comment="kpoint 67">
       <r>    3.7321    1.0000 </r>
       <r>    6.9351    1.0000 </r>
       <r>    9.9501    0.0000 </r>
       <r>   14.2917    0.0000 </r>
       <r>   19.6347    0.0000 </r>
      </set>
      <set comment="kpoint 68">
       <r>    2.1414    1.0000 </r>
       <r>    8.7375    0.0000 </r>
       <r>   10.2489    0.0000 </r>
       <r>   15.2972    0.0000 </r>
       <r>   20.6416    0.0000 </r>
      </set>
      <set comment="kpoint 69">
       <r>    2.3403    1.0000 </r>
       <r>   10.3935    0.0000 </r>
       <r>   11.5081    0.0000 </r>
       <r>   12.8746    0.0000 </r>
       <r>   16.6703    0.0000 </r>
      </set>
      <set comment="kpoint 70">
       <r>    3.7102    1.0000 </r>
       <r>    9.1047    0.0000 </r>
       <r>    9.5980    0.0000 </r>
       <r>   12.4923    0.0000 </r>
       <r>   17.4611    0.0000 </r>
      </set>
      <set comment="kpoint 71">
       <r>    5.3165    1.0000 </r>
       <r>    7.3179    0.9998 </r>
       <r>    8.3708    0.0043 </r>
       <r>   12.7678    0.0000 </r>
       <r>   17.9953    0.0000 </r>
      </set>
      <set comment="kpoint 72">
       <r>    5.3953    1.0000 </r>
       <r>    6.7634    1.0000 </r>
       <r>    8.2317   -0.0110 </r>
       <r>   13.3803    0.0000 </r>
       <r>   18.6950    0.0000 </r>
      </set>
      <set comment="kpoint 73">
       <r>    4.5152    1.0000 </r>
       <r>    7.4875    0.9959 </r>
       <r>   11.1116    0.0000 </r>
       <r>   12.4820    0.0000 </r>
       <r>   16.2809    0.0000 </r>
      </set>
      <set comment="kpoint 74">
       <r>    5.5819    1.0000 </r>
       <r>    6.9270    1.0000 </r>
       <r>    9.3393    0.0000 </r>
       <r>   12.2937    0.0000 </r>
       <r>   17.2671    0.0000 </r>
      </set>
      <set comment="kpoint 75">
       <r>    1.1029    1.0000 </r>
       <r>   10.3200    0.0000 </r>
       <r>   11.7879    0.0000 </r>
       <r>   14.3965    0.0000 </r>
       <r>   20.5812    0.0000 </r>
      </set>
      <set comment="kpoint 76">
       <r>    2.5007    1.0000 </r>
       <r>    8.3286    0.0049 </r>
       <r>   11.3055    0.0000 </r>
       <r>   13.1973    0.0000 </r>
       <r>   21.2635    0.0000 </r>
      </set>
      <set comment="kpoint 77">
       <r>    4.1827    1.0000 </r>
       <r>    6.1602    1.0000 </r>
       <r>   11.5045    0.0000 </r>
       <r>   12.3395    0.0000 </r>
       <r>   21.6827    0.0000 </r>
      </set>
      <set comment="kpoint 78">
       <r>    2.9582    1.0000 </r>
       <r>    9.5287    0.0000 </r>
       <r>   10.6871    0.0000 </r>
       <r>   11.3955    0.0000 </r>
       <r>   19.8261    0.0000 </r>
      </set>
      <set comment="kpoint 79">
       <r>    4.5230    1.0000 </r>
       <r>    7.7236    1.0495 </r>
       <r>    9.9104    0.0000 </r>
       <r>   10.8887    0.0000 </r>
       <r>   20.7259    0.0000 </r>
      </set>
      <set comment="kpoint 80">
       <r>    5.7156    1.0000 </r>
       <r>    6.3509    1.0000 </r>
       <r>    9.3171    0.0000 </r>
       <r>   11.2784    0.0000 </r>
       <r>   21.3839    0.0000 </r>
      </set>
      <set comment="kpoint 81">
       <r>    3.9815    1.0000 </r>
       <r>    7.9473    0.4191 </r>
       <r>    9.4206    0.0000 </r>
       <r>   12.0781    0.0000 </r>
       <r>   22.1919    0.0000 </r>
      </set>
      <set comment="kpoint 82">
       <r>    5.1181    1.0000 </r>
       <r>    8.0748   -0.0248 </r>
       <r>    9.1331    0.0000 </r>
       <r>   10.7131    0.0000 </r>
       <r>   19.4428    0.0000 </r>
      </set>
      <set comment="kpoint 83">
       <r>    6.3693    1.0000 </r>
       <r>    7.3967    0.9988 </r>
       <r>    7.8963    0.6844 </r>
       <r>   10.6165    0.0000 </r>
       <r>   20.5413    0.0000 </r>
      </set>
      <set comment="kpoint 84">
       <r>    6.1157    1.0000 </r>
       <r>    7.5525    0.9956 </r>
       <r>    8.7007    0.0000 </r>
       <r>    9.5301    0.0000 </r>
       <r>   22.9741    0.0000 </r>
      </set>
     </set>
     <set comment="spin 2">
      <set comment="kpoint 1">
       <r>   -3.1282    1.0000 </r>
       <r>   20.6468    0.0000 </r>
       <r>   20.6469    0.0000 </r>
       <r>   20.6529    0.0000 </r>
       <r>   22.1516    0.0000 </r>
      </set>
      <set comment="kpoint 2">
       <r>   -2.9672    1.0000 </r>
       <r>   18.2890    0.0000 </r>
       <r>   20.1400    0.0000 </r>
       <r>   20.1401    0.0000 </r>
       <r>   22.8060    0.0000 </r>
      </set>
      <set comment="kpoint 3">
       <r>   -2.4852    1.0000 </r>
       <r>   15.1783    0.0000 </r>
       <r>   19.4735    0.0000 </r>
       <r>   19.4735    0.0000 </r>
       <r>   22.6650    0.0000 </r>
      </set>
      <set comment="kpoint 4">
       <r>   -1.6856    1.0000 </r>
       <r>   12.1797    0.0000 </r>
       <r>   19.0142    0.0000 </r>
       <r>   19.0142    0.0000 </r>
       <r>   22.4303    0.0000 </r>
      </set>
      <set comment="kpoint 5">
       <r>   -0.5737    1.0000 </r>
       <r>    9.3906    0.0000 </r>
       <r>   18.8093    0.0000 </r>
       <r>   18.8093    0.0000 </r>
       <r>   21.8020    0.0000 </r>
      </set>
      <set comment="kpoint 6">
       <r>    0.8435    1.0000 </r>
       <r>    6.8468    1.0000 </r>
       <r>   18.8697    0.0000 </r>
       <r>   18.8698    0.0000 </r>
       <r>   20.6706    0.0000 </r>
      </set>
      <set comment="kpoint 7">
       <r>    2.5550    1.0000 </r>
       <r>    4.5702    1.0000 </r>
       <r>   19.1993    0.0000 </r>
       <r>   19.2006    0.0000 </r>
       <r>   19.8014    0.0000 </r>
      </set>
      <set comment="kpoint 8">
       <r>   -2.9135    1.0000 </r>
       <r>   19.0908    0.0000 </r>
       <r>   19.0908    0.0000 </r>
       <r>   19.3774    0.0000 </r>
       <r>   21.6562    0.0000 </r>
      </set>
      <set comment="kpoint 9">
       <r>   -2.5387    1.0000 </r>
       <r>   16.2825    0.0000 </r>
       <r>   18.2585    0.0000 </r>
       <r>   19.4764    0.0000 </r>
       <r>   21.9770    0.0000 </r>
      </set>
      <set comment="kpoint 10">
       <r>   -1.8452    1.0000 </r>
       <r>   13.2673    0.0000 </r>
       <r>   17.6844    0.0000 </r>
       <r>   19.1515    0.0000 </r>
       <r>   21.3746    0.0000 </r>
      </set>
      <set comment="kpoint 11">
       <r>   -0.8377    1.0000 </r>
       <r>   10.4174    0.0000 </r>
       <r>   17.3780    0.0000 </r>
       <r>   18.9086    0.0000 </r>
       <r>   19.8871    0.0000 </r>
      </set>
      <set comment="kpoint 12">
       <r>    0.4773    1.0000 </r>
       <r>    7.7961    1.0151 </r>
       <r>   17.3424    0.0000 </r>
       <r>   18.6045    0.0000 </r>
       <r>   18.9319    0.0000 </r>
      </set>
      <set comment="kpoint 13">
       <r>    2.0907    1.0000 </r>
       <r>    5.4320    1.0000 </r>
       <r>   17.5793    0.0000 </r>
       <r>   17.6333    0.0000 </r>
       <r>   19.1815    0.0000 </r>
      </set>
      <set comment="kpoint 14">
       <r>    3.3154    1.0000 </r>
       <r>    4.0191    1.0000 </r>
       <r>   16.9249    0.0000 </r>
       <r>   18.0896    0.0000 </r>
       <r>   19.7230    0.0000 </r>
      </set>
      <set comment="kpoint 15">
       <r>    1.5206    1.0000 </r>
       <r>    6.1893    1.0000 </r>
       <r>   16.4967    0.0000 </r>
       <r>   18.8717    0.0000 </r>
       <r>   20.5431    0.0000 </r>
      </set>
      <set comment="kpoint 16">
       <r>    0.0053    1.0000 </r>
       <r>    8.6401    0.0000 </r>
       <r>   16.3512    0.0000 </r>
       <r>   19.9087    0.0000 </r>
       <r>   20.5455    0.0000 </r>
      </set>
      <set comment="kpoint 17">
       <r>   -1.2080    1.0000 </r>
       <r>   11.3365    0.0000 </r>
       <r>   16.4906    0.0000 </r>
       <r>   20.5869    0.0000 </r>
       <r>   21.2746    0.0000 </r>
      </set>
      <set comment="kpoint 18">
       <r>   -2.1115    1.0000 </r>
       <r>   14.2289    0.0000 </r>
       <r>   16.9268    0.0000 </r>
       <r>   20.9169    0.0000 </r>
       <r>   22.6363    0.0000 </r>
      </set>
      <set comment="kpoint 19">
       <r>   -2.6992    1.0000 </r>
       <r>   16.9907    0.0000 </r>
       <r>   17.8870    0.0000 </r>
       <r>   21.0643    0.0000 </r>
       <r>   22.4024    0.0000 </r>
      </set>
      <set comment="kpoint 20">
       <r>   -2.2715    1.0000 </r>
       <r>   17.3088    0.0000 </r>
       <r>   17.3088    0.0000 </r>
       <r>   17.4841    0.0000 </r>
       <r>   20.5449    0.0000 </r>
      </set>
      <set comment="kpoint 21">
       <r>   -1.6856    1.0000 </r>
       <r>   14.5561    0.0000 </r>
       <r>   16.6310    0.0000 </r>
       <r>   17.9007    0.0000 </r>
       <r>   19.2661    0.0000 </r>
      </set>
      <set comment="kpoint 22">
       <r>   -0.7849    1.0000 </r>
       <r>   11.7017    0.0000 </r>
       <r>   16.2267    0.0000 </r>
       <r>   17.5296    0.0000 </r>
       <r>   17.9055    0.0000 </r>
      </set>
      <set comment="kpoint 23">
       <r>    0.4246    1.0000 </r>
       <r>    9.0263    0.0000 </r>
       <r>   16.0960    0.0000 </r>
       <r>   16.2049    0.0000 </r>
       <r>   17.8092    0.0000 </r>
      </set>
      <set comment="kpoint 24">
       <r>    1.9345    1.0000 </r>
       <r>    6.5883    1.0000 </r>
       <r>   15.1062    0.0000 </r>
       <r>   16.2395    0.0000 </r>
       <r>   18.0017    0.0000 </r>
      </set>
      <set comment="kpoint 25">
       <r>    3.7190    1.0000 </r>
       <r>    4.4295    1.0000 </r>
       <r>   14.2896    0.0000 </r>
       <r>   16.6575    0.0000 </r>
       <r>   18.4753    0.0000 </r>
      </set>
      <set comment="kpoint 26">
       <r>    2.5035    1.0000 </r>
       <r>    5.8276    1.0000 </r>
       <r>   13.7650    0.0000 </r>
       <r>   17.3503    0.0000 </r>
       <r>   19.2331    0.0000 </r>
      </set>
      <set comment="kpoint 27">
       <r>    0.8954    1.0000 </r>
       <r>    8.1666   -0.0402 </r>
       <r>   13.5435    0.0000 </r>
       <r>   18.3158    0.0000 </r>
       <r>   20.2652    0.0000 </r>
      </set>
      <set comment="kpoint 28">
       <r>   -0.4156    1.0000 </r>
       <r>   10.7130    0.0000 </r>
       <r>   13.6627    0.0000 </r>
       <r>   19.5460    0.0000 </r>
       <r>   21.5484    0.0000 </r>
      </set>
      <set comment="kpoint 29">
       <r>   -1.4201    1.0000 </r>
       <r>   13.0863    0.0000 </r>
       <r>   14.4689    0.0000 </r>
       <r>   21.0082    0.0000 </r>
       <r>   22.3123    0.0000 </r>
      </set>
      <set comment="kpoint 30">
       <r>   -1.2081    1.0000 </r>
       <r>   15.8496    0.0000 </r>
       <r>   15.8548    0.0000 </r>
       <r>   15.8548    0.0000 </r>
       <r>   17.2317    0.0000 </r>
      </set>
      <set comment="kpoint 31">
       <r>   -0.4159    1.0000 </r>
       <r>   13.1874    0.0000 </r>
       <r>   15.3547    0.0000 </r>
       <r>   15.4492    0.0000 </r>
       <r>   16.5789    0.0000 </r>
      </set>
      <set comment="kpoint 32">
       <r>    0.6853    1.0000 </r>
       <r>   10.5126    0.0000 </r>
       <r>   13.9574    0.0000 </r>
       <r>   15.1299    0.0000 </r>
       <r>   16.6961    0.0000 </r>
      </set>
      <set comment="kpoint 33">
       <r>    2.0874    1.0000 </r>
       <r>    8.0239    0.0853 </r>
       <r>   12.7435    0.0000 </r>
       <r>   15.1798    0.0000 </r>
       <r>   16.8570    0.0000 </r>
      </set>
      <set comment="kpoint 34">
       <r>    3.7751    1.0000 </r>
       <r>    5.7818    1.0000 </r>
       <r>   11.8215    0.0000 </r>
       <r>   15.5048    0.0000 </r>
       <r>   17.2602    0.0000 </r>
      </set>
      <set comment="kpoint 35">
       <r>    3.7829    1.0000 </r>
       <r>    5.7580    1.0000 </r>
       <r>   11.2077    0.0000 </r>
       <r>   16.1052    0.0000 </r>
       <r>   17.9434    0.0000 </r>
      </set>
      <set comment="kpoint 36">
       <r>    2.0903    1.0000 </r>
       <r>    7.9332    0.4933 </r>
       <r>   10.9501    0.0000 </r>
       <r>   16.9811    0.0000 </r>
       <r>   18.9059    0.0000 </r>
      </set>
      <set comment="kpoint 37">
       <r>    0.6864    1.0000 </r>
       <r>    9.9237    0.0000 </r>
       <r>   11.4408    0.0000 </r>
       <r>   18.1306    0.0000 </r>
       <r>   20.1268    0.0000 </r>
      </set>
      <set comment="kpoint 38">
       <r>    0.2666    1.0000 </r>
       <r>   13.5566    0.0000 </r>
       <r>   14.5962    0.0000 </r>
       <r>   14.7603    0.0000 </r>
       <r>   14.7603    0.0000 </r>
      </set>
      <set comment="kpoint 39">
       <r>    1.2571    1.0000 </r>
       <r>   11.8845    0.0000 </r>
       <r>   12.2661    0.0000 </r>
       <r>   14.4420    0.0000 </r>
       <r>   15.5764    0.0000 </r>
      </set>
      <set comment="kpoint 40">
       <r>    2.5465    1.0000 </r>
       <r>    9.6875    0.0000 </r>
       <r>   10.6592    0.0000 </r>
       <r>   14.3989    0.0000 </r>
       <r>   15.8925    0.0000 </r>
      </set>
      <set comment="kpoint 41">
       <r>    4.1168    1.0000 </r>
       <r>    7.4118    0.9985 </r>
       <r>    9.6227    0.0000 </r>
       <r>   14.6307    0.0000 </r>
       <r>   16.2596    0.0000 </r>
      </set>
      <set comment="kpoint 42">
       <r>    5.3338    1.0000 </r>
       <r>    5.9537    1.0000 </r>
       <r>    8.9524    0.0000 </r>
       <r>   15.1379    0.0000 </r>
       <r>   16.8706    0.0000 </r>
      </set>
      <set comment="kpoint 43">
       <r>    3.5806    1.0000 </r>
       <r>    7.5524    0.9956 </r>
       <r>    9.0466    0.0000 </r>
       <r>   15.9213    0.0000 </r>
       <r>   17.7567    0.0000 </r>
      </set>
      <set comment="kpoint 44">
       <r>    2.1337    1.0000 </r>
       <r>   10.2092    0.0000 </r>
       <r>   13.7530    0.0000 </r>
       <r>   14.0307    0.0000 </r>
       <r>   14.0307    0.0000 </r>
      </set>
      <set comment="kpoint 45">
       <r>    3.3018    1.0000 </r>
       <r>    8.7765    0.0000 </r>
       <r>   11.6266    0.0000 </r>
       <r>   13.8948    0.0000 </r>
       <r>   14.9721    0.0000 </r>
      </set>
      <set comment="kpoint 46">
       <r>    4.7163    1.0000 </r>
       <r>    7.6776    1.0310 </r>
       <r>    9.3615    0.0000 </r>
       <r>   14.0337    0.0000 </r>
       <r>   15.4841    0.0000 </r>
      </set>
      <set comment="kpoint 47">
       <r>    5.9755    1.0000 </r>
       <r>    7.0236    1.0000 </r>
       <r>    7.5818    0.9983 </r>
       <r>   14.4477    0.0000 </r>
       <r>   16.0571    0.0000 </r>
      </set>
      <set comment="kpoint 48">
       <r>    4.3138    1.0000 </r>
       <r>    7.2864    0.9999 </r>
       <r>   13.3297    0.0000 </r>
       <r>   13.6662    0.0000 </r>
       <r>   13.6662    0.0000 </r>
      </set>
      <set comment="kpoint 49">
       <r>    5.1887    1.0000 </r>
       <r>    6.5203    1.0000 </r>
       <r>   11.4269    0.0000 </r>
       <r>   13.7125    0.0000 </r>
       <r>   14.7699    0.0000 </r>
      </set>
      <set comment="kpoint 50">
       <r>   -2.0582    1.0000 </r>
       <r>   15.0541    0.0000 </r>
       <r>   16.1782    0.0000 </r>
       <r>   20.0469    0.0000 </r>
       <r>   21.2083    0.0000 </r>
      </set>
      <set comment="kpoint 51">
       <r>   -1.2610    1.0000 </r>
       <r>   12.4784    0.0000 </r>
       <r>   15.3052    0.0000 </r>
       <r>   19.5718    0.0000 </r>
       <r>   20.1976    0.0000 </r>
      </set>
      <set comment="kpoint 52">
       <r>   -0.1524    1.0000 </r>
       <r>    9.7568    0.0000 </r>
       <r>   15.0258    0.0000 </r>
       <r>   18.1271    0.0000 </r>
       <r>   20.1170    0.0000 </r>
      </set>
      <set comment="kpoint 53">
       <r>    1.2602    1.0000 </r>
       <r>    7.2378    1.0000 </r>
       <r>   15.0601    0.0000 </r>
       <r>   16.9492    0.0000 </r>
       <r>   20.2197    0.0000 </r>
      </set>
      <set comment="kpoint 54">
       <r>    2.9651    1.0000 </r>
       <r>    4.9746    1.0000 </r>
       <r>   15.3686    0.0000 </r>
       <r>   16.0685    0.0000 </r>
       <r>   20.5615    0.0000 </r>
      </set>
      <set comment="kpoint 55">
       <r>   -0.9963    1.0000 </r>
       <r>   13.4843    0.0000 </r>
       <r>   14.7056    0.0000 </r>
       <r>   17.4421    0.0000 </r>
       <r>   18.5938    0.0000 </r>
      </set>
      <set comment="kpoint 56">
       <r>    0.0049    1.0000 </r>
       <r>   11.0987    0.0000 </r>
       <r>   13.9735    0.0000 </r>
       <r>   15.8781    0.0000 </r>
       <r>   18.9791    0.0000 </r>
      </set>
      <set comment="kpoint 57">
       <r>    1.3113    1.0000 </r>
       <r>    8.5600    0.0002 </r>
       <r>   13.8354    0.0000 </r>
       <r>   14.6170    0.0000 </r>
       <r>   19.1134    0.0000 </r>
      </set>
      <set comment="kpoint 58">
       <r>    2.9123    1.0000 </r>
       <r>    6.2298    1.0000 </r>
       <r>   13.4626    0.0000 </r>
       <r>   14.2005    0.0000 </r>
       <r>   19.4203    0.0000 </r>
      </set>
      <set comment="kpoint 59">
       <r>    4.1245    1.0000 </r>
       <r>    4.8308    1.0000 </r>
       <r>   12.7838    0.0000 </r>
       <r>   14.6816    0.0000 </r>
       <r>   19.9783    0.0000 </r>
      </set>
      <set comment="kpoint 60">
       <r>    2.3481    1.0000 </r>
       <r>    6.9632    1.0000 </r>
       <r>   12.3766    0.0000 </r>
       <r>   15.4875    0.0000 </r>
       <r>   20.7929    0.0000 </r>
      </set>
      <set comment="kpoint 61">
       <r>    0.8429    1.0000 </r>
       <r>    9.3255    0.0000 </r>
       <r>   12.3136    0.0000 </r>
       <r>   16.5817    0.0000 </r>
       <r>   21.8245    0.0000 </r>
      </set>
      <set comment="kpoint 62">
       <r>   -0.3630    1.0000 </r>
       <r>   11.5064    0.0000 </r>
       <r>   12.9684    0.0000 </r>
       <r>   17.9504    0.0000 </r>
       <r>   21.6496    0.0000 </r>
      </set>
      <set comment="kpoint 63">
       <r>    0.4761    1.0000 </r>
       <r>   12.3000    0.0000 </r>
       <r>   13.4211    0.0000 </r>
       <r>   13.9462    0.0000 </r>
       <r>   17.4457    0.0000 </r>
      </set>
      <set comment="kpoint 64">
       <r>    1.6728    1.0000 </r>
       <r>   10.1019    0.0000 </r>
       <r>   12.2835    0.0000 </r>
       <r>   13.1288    0.0000 </r>
       <r>   18.0386    0.0000 </r>
      </set>
      <set comment="kpoint 65">
       <r>    3.1634    1.0000 </r>
       <r>    7.7551    1.0495 </r>
       <r>   11.2120    0.0000 </r>
       <r>   13.1675    0.0000 </r>
       <r>   18.3751    0.0000 </r>
      </set>
      <set comment="kpoint 66">
       <r>    4.9104    1.0000 </r>
       <r>    5.6399    1.0000 </r>
       <r>   10.4064    0.0000 </r>
       <r>   13.5766    0.0000 </r>
       <r>   18.8804    0.0000 </r>
      </set>
      <set comment="kpoint 67">
       <r>    3.7321    1.0000 </r>
       <r>    6.9351    1.0000 </r>
       <r>    9.9501    0.0000 </r>
       <r>   14.2917    0.0000 </r>
       <r>   19.6347    0.0000 </r>
      </set>
      <set comment="kpoint 68">
       <r>    2.1414    1.0000 </r>
       <r>    8.7375    0.0000 </r>
       <r>   10.2489    0.0000 </r>
       <r>   15.2972    0.0000 </r>
       <r>   20.6416    0.0000 </r>
      </set>
      <set comment="kpoint 69">
       <r>    2.3403    1.0000 </r>
       <r>   10.3935    0.0000 </r>
       <r>   11.5081    0.0000 </r>
       <r>   12.8746    0.0000 </r>
       <r>   16.6703    0.0000 </r>
      </set>
      <set comment="kpoint 70">
       <r>    3.7102    1.0000 </r>
       <r>    9.1047    0.0000 </r>
       <r>    9.5980    0.0000 </r>
       <r>   12.4923    0.0000 </r>
       <r>   17.4611    0.0000 </r>
      </set>
      <set comment="kpoint 71">
       <r>    5.3165    1.0000 </r>
       <r>    7.3179    0.9998 </r>
       <r>    8.3708    0.0043 </r>
       <r>   12.7678    0.0000 </r>
       <r>   17.9953    0.0000 </r>
      </set>
      <set comment="kpoint 72">
       <r>    5.3953    1.0000 </r>
       <r>    6.7634    1.0000 </r>
       <r>    8.2317   -0.0110 </r>
       <r>   13.3803    0.0000 </r>
       <r>   18.6950    0.0000 </r>
      </set>
      <set comment="kpoint 73">
       <r>    4.5152    1.0000 </r>
       <r>    7.4875    0.9959 </r>
       <r>   11.1116    0.0000 </r>
       <r>   12.4820    0.0000 </r>
       <r>   16.2809    0.0000 </r>
      </set>
      <set comment="kpoint 74">
       <r>    5.5819    1.0000 </r>
       <r>    6.9270    1.0000 </r>
       <r>    9.3393    0.0000 </r>
       <r>   12.2937    0.0000 </r>
       <r>   17.2671    0.0000 </r>
      </set>
      <set comment="kpoint 75">
       <r>    1.1029    1.0000 </r>
       <r>   10.3200    0.0000 </r>
       <r>   11.7879    0.0000 </r>
       <r>   14.3965    0.0000 </r>
       <r>   20.5815    0.0000 </r>
      </set>
      <set comment="kpoint 76">
       <r>    2.5007    1.0000 </r>
       <r>    8.3286    0.0049 </r>
       <r>   11.3055    0.0000 </r>
       <r>   13.1973    0.0000 </r>
       <r>   21.2635    0.0000 </r>
      </set>
      <set comment="kpoint 77">
       <r>    4.1827    1.0000 </r>
       <r>    6.1602    1.0000 </r>
       <r>   11.5045    0.0000 </r>
       <r>   12.3395    0.0000 </r>
       <r>   21.6836    0.0000 </r>
      </set>
      <set comment="kpoint 78">
       <r>    2.9582    1.0000 </r>
       <r>    9.5287    0.0000 </r>
       <r>   10.6871    0.0000 </r>
       <r>   11.3955    0.0000 </r>
       <r>   19.8261    0.0000 </r>
      </set>
      <set comment="kpoint 79">
       <r>    4.5230    1.0000 </r>
       <r>    7.7236    1.0495 </r>
       <r>    9.9104    0.0000 </r>
       <r>   10.8887    0.0000 </r>
       <r>   20.7258    0.0000 </r>
      </set>
      <set comment="kpoint 80">
       <r>    5.7156    1.0000 </r>
       <r>    6.3509    1.0000 </r>
       <r>    9.3171    0.0000 </r>
       <r>   11.2784    0.0000 </r>
       <r>   21.3838    0.0000 </r>
      </set>
      <set comment="kpoint 81">
       <r>    3.9815    1.0000 </r>
       <r>    7.9473    0.4191 </r>
       <r>    9.4206    0.0000 </r>
       <r>   12.0781    0.0000 </r>
       <r>   22.1921    0.0000 </r>
      </set>
      <set comment="kpoint 82">
       <r>    5.1181    1.0000 </r>
       <r>    8.0748   -0.0248 </r>
       <r>    9.1331    0.0000 </r>
       <r>   10.7131    0.0000 </r>
       <r>   19.4428    0.0000 </r>
      </set>
      <set comment="kpoint 83">
       <r>    6.3693    1.0000 </r>
       <r>    7.3967    0.9988 </r>
       <r>    7.8963    0.6844 </r>
       <r>   10.6165    0.0000 </r>
       <r>   20.5413    0.0000 </r>
      </set>
      <set comment="kpoint 84">
       <r>    6.1157    1.0000 </r>
       <r>    7.5525    0.9956 </r>
       <r>    8.7007    0.0000 </r>
       <r>    9.5301    0.0000 </r>
       <r>   22.9765    0.0000 </r>
      </set>
     </set>
    </set>
   </array>
  </eigenvalues>
  <separator name="orbital magnetization" >
   <v name="MAGDIPOLOUT">      0.00000000      0.00000000      0.00000000</v>
  </separator>
  <dos>
   <i name="efermi">      7.93196393 </i>
   <total>
    <array>
     <dimension dim="1">gridpoints</dimension>
     <dimension dim="2">spin</dimension>
     <field>energy</field>
     <field>total</field>
     <field>integrated</field>
     <set>
      <set comment="spin 1">
       <r>    -5.1282     0.0000     0.0000 </r>
       <r>    -5.0278     0.0000     0.0000 </r>
       <r>    -4.9275     0.0000     0.0000 </r>
       <r>    -4.8271     0.0000     0.0000 </r>
       <r>    -4.7268     0.0000     0.0000 </r>
       <r>    -4.6264     0.0000     0.0000 </r>
       <r>    -4.5261     0.0000     0.0000 </r>
       <r>    -4.4257     0.0000     0.0000 </r>
       <r>    -4.3254     0.0000     0.0000 </r>
       <r>    -4.2250     0.0000     0.0000 </r>
       <r>    -4.1247     0.0000     0.0000 </r>
       <r>    -4.0243     0.0000     0.0000 </r>
       <r>    -3.9240     0.0000     0.0000 </r>
       <r>    -3.8237     0.0000     0.0000 </r>
       <r>    -3.7233     0.0000     0.0000 </r>
       <r>    -3.6230     0.0000     0.0000 </r>
       <r>    -3.5226     0.0000     0.0000 </r>
       <r>    -3.4223     0.0001     0.0000 </r>
       <r>    -3.3219    -0.0001    -0.0000 </r>
       <r>    -3.2216    -0.0009    -0.0001 </r>
       <r>    -3.1212     0.0010     0.0000 </r>
       <r>    -3.0209     0.0139     0.0014 </r>
       <r>    -2.9205     0.0283     0.0042 </r>
       <r>    -2.8202     0.0233     0.0066 </r>
       <r>    -2.7198     0.0196     0.0085 </r>
       <r>    -2.6195     0.0439     0.0130 </r>
       <r>    -2.5191     0.0732     0.0203 </r>
       <r>    -2.4188     0.0571     0.0260 </r>
       <r>    -2.3184     0.0136     0.0274 </r>
       <r>    -2.2181     0.0176     0.0292 </r>
       <r>    -2.1177     0.0760     0.0368 </r>
       <r>    -2.0174     0.1008     0.0469 </r>
       <r>    -1.9170     0.0641     0.0533 </r>
       <r>    -1.8167     0.0563     0.0590 </r>
       <r>    -1.7163     0.0832     0.0673 </r>
       <r>    -1.6160     0.0740     0.0748 </r>
       <r>    -1.5156     0.0248     0.0773 </r>
       <r>    -1.4153     0.0140     0.0787 </r>
       <r>    -1.3149     0.0897     0.0877 </r>
       <r>    -1.2146     0.1690     0.1046 </r>
       <r>    -1.1142     0.1275     0.1174 </r>
       <r>    -1.0139     0.0535     0.1228 </r>
       <r>    -0.9135     0.0643     0.1292 </r>
       <r>    -0.8132     0.1066     0.1399 </r>
       <r>    -0.7128     0.0880     0.1488 </r>
       <r>    -0.6125     0.0252     0.1513 </r>
       <r>    -0.5121     0.0385     0.1552 </r>
       <r>    -0.4118     0.1283     0.1680 </r>
       <r>    -0.3114     0.1426     0.1823 </r>
       <r>    -0.2111     0.0919     0.1916 </r>
       <r>    -0.1107     0.1232     0.2039 </r>
       <r>    -0.0104     0.1907     0.2231 </r>
       <r>     0.0900     0.1570     0.2388 </r>
       <r>     0.1903     0.0413     0.2430 </r>
       <r>     0.2907    -0.0027     0.2427 </r>
       <r>     0.3910     0.0728     0.2500 </r>
       <r>     0.4914     0.1527     0.2653 </r>
       <r>     0.5917     0.1219     0.2776 </r>
       <r>     0.6921     0.0832     0.2859 </r>
       <r>     0.7924     0.1389     0.2998 </r>
       <r>     0.8928     0.1848     0.3184 </r>
       <r>     0.9931     0.1122     0.3296 </r>
       <r>     1.0934     0.0413     0.3338 </r>
       <r>     1.1938     0.1254     0.3464 </r>
       <r>     1.2941     0.2575     0.3722 </r>
       <r>     1.3945     0.2094     0.3932 </r>
       <r>     1.4948     0.0761     0.4009 </r>
       <r>     1.5952     0.0738     0.4083 </r>
       <r>     1.6955     0.1177     0.4201 </r>
       <r>     1.7959     0.0760     0.4277 </r>
       <r>     1.8962     0.0279     0.4305 </r>
       <r>     1.9966     0.0910     0.4396 </r>
       <r>     2.0969     0.2052     0.4602 </r>
       <r>     2.1973     0.2008     0.4804 </r>
       <r>     2.2976     0.1369     0.4941 </r>
       <r>     2.3980     0.1837     0.5125 </r>
       <r>     2.4983     0.2637     0.5390 </r>
       <r>     2.5987     0.2170     0.5608 </r>
       <r>     2.6990     0.0520     0.5660 </r>
       <r>     2.7994    -0.0019     0.5658 </r>
       <r>     2.8997     0.1496     0.5808 </r>
       <r>     3.0001     0.2598     0.6069 </r>
       <r>     3.1004     0.1825     0.6252 </r>
       <r>     3.2008     0.1290     0.6381 </r>
       <r>     3.3011     0.1462     0.6528 </r>
       <r>     3.4015     0.0962     0.6625 </r>
       <r>     3.5018     0.0050     0.6630 </r>
       <r>     3.6022     0.0467     0.6677 </r>
       <r>     3.7025     0.2669     0.6944 </r>
       <r>     3.8029     0.3580     0.7304 </r>
       <r>     3.9032     0.1798     0.7484 </r>
       <r>     4.0036     0.1030     0.7588 </r>
       <r>     4.1039     0.2370     0.7825 </r>
       <r>     4.2043     0.2783     0.8105 </r>
       <r>     4.3046     0.1333     0.8238 </r>
       <r>     4.4050     0.0729     0.8312 </r>
       <r>     4.5053     0.1745     0.8487 </r>
       <r>     4.6057     0.1884     0.8676 </r>
       <r>     4.7060     0.1023     0.8778 </r>
       <r>     4.8064     0.1345     0.8913 </r>
       <r>     4.9067     0.2503     0.9165 </r>
       <r>     5.0071     0.2480     0.9413 </r>
       <r>     5.1074     0.1316     0.9546 </r>
       <r>     5.2078     0.0866     0.9632 </r>
       <r>     5.3081     0.1748     0.9808 </r>
       <r>     5.4085     0.2297     1.0038 </r>
       <r>     5.5088     0.1574     1.0196 </r>
       <r>     5.6092     0.1598     1.0357 </r>
       <r>     5.7095     0.2812     1.0639 </r>
       <r>     5.8099     0.2966     1.0937 </r>
       <r>     5.9102     0.1703     1.1107 </r>
       <r>     6.0105     0.0871     1.1195 </r>
       <r>     6.1109     0.1611     1.1357 </r>
       <r>     6.2112     0.2967     1.1654 </r>
       <r>     6.3116     0.3075     1.1963 </r>
       <r>     6.4119     0.2046     1.2168 </r>
       <r>     6.5123     0.1069     1.2276 </r>
       <r>     6.6126     0.0654     1.2341 </r>
       <r>     6.7130     0.0486     1.2390 </r>
       <r>     6.8133     0.0899     1.2480 </r>
       <r>     6.9137     0.2362     1.2717 </r>
       <r>     7.0140     0.2846     1.3003 </r>
       <r>     7.1144     0.1352     1.3138 </r>
       <r>     7.2147     0.0943     1.3233 </r>
       <r>     7.3151     0.2197     1.3453 </r>
       <r>     7.4154     0.2657     1.3720 </r>
       <r>     7.5158     0.2101     1.3931 </r>
       <r>     7.6161     0.1936     1.4125 </r>
       <r>     7.7165     0.2702     1.4396 </r>
       <r>     7.8168     0.3118     1.4709 </r>
       <r>     7.9172     0.2569     1.4967 </r>
       <r>     8.0175     0.2043     1.5172 </r>
       <r>     8.1179     0.1597     1.5332 </r>
       <r>     8.2182     0.1529     1.5486 </r>
       <r>     8.3186     0.2144     1.5701 </r>
       <r>     8.4189     0.2175     1.5919 </r>
       <r>     8.5193     0.1501     1.6070 </r>
       <r>     8.6196     0.1669     1.6237 </r>
       <r>     8.7200     0.2126     1.6451 </r>
       <r>     8.8203     0.1573     1.6608 </r>
       <r>     8.9207     0.0893     1.6698 </r>
       <r>     9.0210     0.1473     1.6846 </r>
       <r>     9.1214     0.2132     1.7060 </r>
       <r>     9.2217     0.2103     1.7271 </r>
       <r>     9.3221     0.2970     1.7569 </r>
       <r>     9.4224     0.3533     1.7923 </r>
       <r>     9.5228     0.2849     1.8209 </r>
       <r>     9.6231     0.2695     1.8480 </r>
       <r>     9.7235     0.2486     1.8729 </r>
       <r>     9.8238     0.2025     1.8932 </r>
       <r>     9.9242     0.2340     1.9167 </r>
       <r>    10.0245     0.2407     1.9409 </r>
       <r>    10.1249     0.1610     1.9570 </r>
       <r>    10.2252     0.1179     1.9689 </r>
       <r>    10.3256     0.1864     1.9876 </r>
       <r>    10.4259     0.2707     2.0147 </r>
       <r>    10.5263     0.2327     2.0381 </r>
       <r>    10.6266     0.2040     2.0585 </r>
       <r>    10.7270     0.2390     2.0825 </r>
       <r>    10.8273     0.1987     2.1025 </r>
       <r>    10.9276     0.1459     2.1171 </r>
       <r>    11.0280     0.1452     2.1317 </r>
       <r>    11.1283     0.2212     2.1539 </r>
       <r>    11.2287     0.3605     2.1900 </r>
       <r>    11.3290     0.4219     2.2324 </r>
       <r>    11.4294     0.3752     2.2700 </r>
       <r>    11.5297     0.3119     2.3013 </r>
       <r>    11.6301     0.2180     2.3232 </r>
       <r>    11.7304     0.1533     2.3386 </r>
       <r>    11.8308     0.1643     2.3551 </r>
       <r>    11.9311     0.1315     2.3683 </r>
       <r>    12.0315     0.0454     2.3728 </r>
       <r>    12.1318     0.0311     2.3760 </r>
       <r>    12.2322     0.2304     2.3991 </r>
       <r>    12.3325     0.5453     2.4538 </r>
       <r>    12.4329     0.5953     2.5135 </r>
       <r>    12.5332     0.3543     2.5491 </r>
       <r>    12.6336     0.1289     2.5620 </r>
       <r>    12.7339     0.1664     2.5787 </r>
       <r>    12.8343     0.2833     2.6072 </r>
       <r>    12.9346     0.1896     2.6262 </r>
       <r>    13.0350     0.1171     2.6379 </r>
       <r>    13.1353     0.2861     2.6667 </r>
       <r>    13.2357     0.3983     2.7066 </r>
       <r>    13.3360     0.2792     2.7346 </r>
       <r>    13.4364     0.2485     2.7596 </r>
       <r>    13.5367     0.3357     2.7933 </r>
       <r>    13.6371     0.3074     2.8241 </r>
       <r>    13.7374     0.2213     2.8463 </r>
       <r>    13.8378     0.2422     2.8706 </r>
       <r>    13.9381     0.3378     2.9045 </r>
       <r>    14.0385     0.3143     2.9361 </r>
       <r>    14.1388     0.2006     2.9562 </r>
       <r>    14.2392     0.2359     2.9799 </r>
       <r>    14.3395     0.3230     3.0123 </r>
       <r>    14.4399     0.2894     3.0413 </r>
       <r>    14.5402     0.2611     3.0675 </r>
       <r>    14.6406     0.3421     3.1019 </r>
       <r>    14.7409     0.3293     3.1349 </r>
       <r>    14.8413     0.1320     3.1481 </r>
       <r>    14.9416     0.0859     3.1568 </r>
       <r>    15.0420     0.3165     3.1885 </r>
       <r>    15.1423     0.4436     3.2330 </r>
       <r>    15.2427     0.3441     3.2676 </r>
       <r>    15.3430     0.3293     3.3006 </r>
       <r>    15.4434     0.4121     3.3420 </r>
       <r>    15.5437     0.3613     3.3782 </r>
       <r>    15.6441     0.1507     3.3933 </r>
       <r>    15.7444     0.0212     3.3955 </r>
       <r>    15.8447     0.1152     3.4070 </r>
       <r>    15.9451     0.2248     3.4296 </r>
       <r>    16.0454     0.2521     3.4549 </r>
       <r>    16.1458     0.3435     3.4893 </r>
       <r>    16.2461     0.4290     3.5324 </r>
       <r>    16.3465     0.3286     3.5654 </r>
       <r>    16.4468     0.1761     3.5830 </r>
       <r>    16.5472     0.2419     3.6073 </r>
       <r>    16.6475     0.3570     3.6431 </r>
       <r>    16.7479     0.2661     3.6698 </r>
       <r>    16.8482     0.2157     3.6915 </r>
       <r>    16.9486     0.3354     3.7251 </r>
       <r>    17.0489     0.2710     3.7523 </r>
       <r>    17.1493     0.0684     3.7592 </r>
       <r>    17.2496     0.0994     3.7692 </r>
       <r>    17.3500     0.3044     3.7997 </r>
       <r>    17.4503     0.4155     3.8414 </r>
       <r>    17.5507     0.3521     3.8768 </r>
       <r>    17.6510     0.2145     3.8983 </r>
       <r>    17.7514     0.1288     3.9112 </r>
       <r>    17.8517     0.1872     3.9300 </r>
       <r>    17.9521     0.3917     3.9693 </r>
       <r>    18.0524     0.5077     4.0202 </r>
       <r>    18.1528     0.3775     4.0581 </r>
       <r>    18.2531     0.2123     4.0794 </r>
       <r>    18.3535     0.1909     4.0986 </r>
       <r>    18.4538     0.1885     4.1175 </r>
       <r>    18.5542     0.1509     4.1326 </r>
       <r>    18.6545     0.1240     4.1451 </r>
       <r>    18.7549     0.1308     4.1582 </r>
       <r>    18.8552     0.2905     4.1874 </r>
       <r>    18.9556     0.4532     4.2328 </r>
       <r>    19.0559     0.3998     4.2730 </r>
       <r>    19.1563     0.3220     4.3053 </r>
       <r>    19.2566     0.2693     4.3323 </r>
       <r>    19.3570     0.2057     4.3529 </r>
       <r>    19.4573     0.2721     4.3802 </r>
       <r>    19.5577     0.3637     4.4167 </r>
       <r>    19.6580     0.3073     4.4476 </r>
       <r>    19.7584     0.1890     4.4665 </r>
       <r>    19.8587     0.1693     4.4835 </r>
       <r>    19.9591     0.2228     4.5059 </r>
       <r>    20.0594     0.2846     4.5344 </r>
       <r>    20.1598     0.3828     4.5729 </r>
       <r>    20.2601     0.3616     4.6091 </r>
       <r>    20.3605     0.1365     4.6228 </r>
       <r>    20.4608     0.0779     4.6307 </r>
       <r>    20.5612     0.3336     4.6641 </r>
       <r>    20.6615     0.4687     4.7112 </r>
       <r>    20.7618     0.3389     4.7452 </r>
       <r>    20.8622     0.1911     4.7644 </r>
       <r>    20.9625     0.1018     4.7746 </r>
       <r>    21.0629     0.0568     4.7803 </r>
       <r>    21.1632     0.0907     4.7894 </r>
       <r>    21.2636     0.2185     4.8113 </r>
       <r>    21.3639     0.2878     4.8402 </r>
       <r>    21.4643     0.1950     4.8598 </r>
       <r>    21.5646     0.1149     4.8713 </r>
       <r>    21.6650     0.1827     4.8896 </r>
       <r>    21.7653     0.2437     4.9141 </r>
       <r>    21.8657     0.1770     4.9318 </r>
       <r>    21.9660     0.0810     4.9400 </r>
       <r>    22.0664     0.0424     4.9442 </r>
       <r>    22.1667     0.0495     4.9492 </r>
[...]
       </set>
      </set>
      <set comment="kpoint 58">
       <set comment="band 1">
        <r>  0.1494  0.0232  0.0785  0.0086  0.0000  0.0000  0.0000  0.0000  0.0000 </r>
       </set>
       <set comment="band 2">
        <r>  0.1189  0.0450  0.0069  0.0833  0.0000  0.0000  0.0000  0.0000  0.0000 </r>
       </set>
       <set comment="band 3">
        <r>  0.0354  0.0422  0.1111  0.0012  0.0000  0.0000  0.0000  0.0000  0.0000 </r>
       </set>
       <set comment="band 4">
        <r>  0.1099  0.0399  0.0460  0.1333  0.0000  0.0000  0.0000  0.0000  0.0000 </r>
       </set>
       <set comment="band 5">
        <r>  0.0616  0.0964  0.0223  0.0282  0.0000  0.0000  0.0000  0.0000  0.0000 </r>
       </set>
      </set>
      <set comment="kpoint 59">
       <set comment="band 1">
        <r>  0.0908  0.0521  0.0172  0.0806  0.0000  0.0000  0.0000  0.0000  0.0000 </r>
       </set>
       <set comment="band 2">
        <r>  0.1781  0.0151  0.0798  0.0025  0.0000  0.0000  0.0000  0.0000  0.0000 </r>
       </set>
       <set comment="band 3">
        <r>  0.0727  0.0372  0.1194  0.0044  0.0000  0.0000  0.0000  0.0000  0.0000 </r>
       </set>
       <set comment="band 4">
        <r>  0.0777  0.0400  0.0129  0.1569  0.0000  0.0000  0.0000  0.0000  0.0000 </r>
       </set>
       <set comment="band 5">
        <r>  0.0579  0.1264  0.0152  0.0161  0.0000  0.0000  0.0000  0.0000  0.0000 </r>
       </set>
      </set>
      <set comment="kpoint 60">
       <set comment="band 1">
        <r>  0.1630  0.0338  0.0038  0.0618  0.0000  0.0000  0.0000  0.0000  0.0000 </r>
       </set>
       <set comment="band 2">
        <r>  0.0997  0.0288  0.1076  0.0119  0.0000  0.0000  0.0000  0.0000  0.0000 </r>
       </set>
       <set comment="band 3">
        <r>  0.0896  0.0490  0.0980  0.0138  0.0000  0.0000  0.0000  0.0000  0.0000 </r>
       </set>
       <set comment="band 4">
        <r>  0.0632  0.0313  0.0047  0.1727  0.0000  0.0000  0.0000  0.0000  0.0000 </r>
       </set>
       <set comment="band 5">
        <r>  0.0471  0.1593  0.0094  0.0096  0.0000  0.0000  0.0000  0.0000  0.0000 </r>
       </set>
      </set>
      <set comment="kpoint 61">
       <set comment="band 1">
        <r>  0.1929  0.0244  0.0010  0.0488  0.0000  0.0000  0.0000  0.0000  0.0000 </r>
       </set>
       <set comment="band 2">
        <r>  0.0518  0.0250  0.1363  0.0114  0.0000  0.0000  0.0000  0.0000  0.0000 </r>
       </set>
       <set comment="band 3">
        <r>  0.1070  0.0728  0.0596  0.0280  0.0000  0.0000  0.0000  0.0000  0.0000 </r>
       </set>
       <set comment="band 4">
        <r>  0.0508  0.0235  0.0011  0.1846  0.0000  0.0000  0.0000  0.0000  0.0000 </r>
       </set>
       <set comment="band 5">
        <r>  0.0281  0.2058  0.0053  0.0099  0.0000  0.0000  0.0000  0.0000  0.0000 </r>
       </set>
      </set>
      <set comment="kpoint 62">
       <set comment="band 1">
        <r>  0.2162  0.0162  0.0000  0.0370  0.0000  0.0000  0.0000  0.0000  0.0000 </r>
       </set>
       <set comment="band 2">
        <r>  0.0000  0.0000  0.1833  0.0000  0.0000  0.0000  0.0000  0.0000  0.0000 </r>
       </set>
       <set comment="band 3">
        <r>  0.1259  0.1197  0.0000  0.0520  0.0000  0.0000  0.0000  0.0000  0.0000 </r>
       </set>
       <set comment="band 4">
        <r>  0.0387  0.0175  0.0000  0.1929  0.0000  0.0000  0.0000  0.0000  0.0000 </r>
       </set>
       <set comment="band 5">
        <r>  0.0000  0.0000  0.0881  0.0000  0.0000  0.0000  0.0000  0.0000  0.0000 </r>
       </set>
      </set>
      <set comment="kpoint 63">
       <set comment="band 1">
        <r>  0.1988  0.0039  0.0654  0.0000  0.0000  0.0000  0.0000  0.0000  0.0000 </r>
       </set>
       <set comment="band 2">
        <r>  0.0000  0.0000  0.0000  0.1733  0.0000  0.0000  0.0000  0.0000  0.0000 </r>
       </set>
       <set comment="band 3">
        <r>  0.0086  0.1607  0.0138  0.0000  0.0000  0.0000  0.0000  0.0000  0.0000 </r>
       </set>
       <set comment="band 4">
        <r>  0.1468  0.0542  0.1640  0.0000  0.0000  0.0000  0.0000  0.0000  0.0000 </r>
       </set>
       <set comment="band 5">
        <r>  0.0000  0.0000  0.0000  0.1438  0.0000  0.0000  0.0000  0.0000  0.0000 </r>
       </set>
      </set>
      <set comment="kpoint 64">
       <set comment="band 1">
        <r>  0.1748  0.0083  0.0812  0.0009  0.0000  0.0000  0.0000  0.0000  0.0000 </r>
       </set>
       <set comment="band 2">
        <r>  0.0384  0.0461  0.0016  0.1269  0.0000  0.0000  0.0000  0.0000  0.0000 </r>
       </set>
       <set comment="band 3">
        <r>  0.0399  0.0286  0.1135  0.0056  0.0000  0.0000  0.0000  0.0000  0.0000 </r>
       </set>
       <set comment="band 4">
        <r>  0.1421  0.1034  0.0500  0.0591  0.0000  0.0000  0.0000  0.0000  0.0000 </r>
       </set>
       <set comment="band 5">
        <r>  0.0408  0.0255  0.0100  0.0964  0.0000  0.0000  0.0000  0.0000  0.0000 </r>
       </set>
      </set>
      <set comment="kpoint 65">
       <set comment="band 1">
        <r>  0.1431  0.0141  0.0986  0.0036  0.0000  0.0000  0.0000  0.0000  0.0000 </r>
       </set>
       <set comment="band 2">
        <r>  0.0817  0.0532  0.0016  0.1026  0.0000  0.0000  0.0000  0.0000  0.0000 </r>
       </set>
       <set comment="band 3">
        <r>  0.0904  0.0177  0.1258  0.0000  0.0000  0.0000  0.0000  0.0000  0.0000 </r>
       </set>
       <set comment="band 4">
        <r>  0.1048  0.0813  0.0146  0.1065  0.0000  0.0000  0.0000  0.0000  0.0000 </r>
       </set>
       <set comment="band 5">
        <r>  0.0678  0.0637  0.0098  0.0553  0.0000  0.0000  0.0000  0.0000  0.0000 </r>
       </set>
      </set>
      <set comment="kpoint 66">
       <set comment="band 1">
        <r>  0.0722  0.0288  0.1189  0.0160  0.0000  0.0000  0.0000  0.0000  0.0000 </r>
       </set>
       <set comment="band 2">
        <r>  0.1528  0.0382  0.0008  0.0773  0.0000  0.0000  0.0000  0.0000  0.0000 </r>
       </set>
       <set comment="band 3">
        <r>  0.1181  0.0249  0.1059  0.0029  0.0000  0.0000  0.0000  0.0000  0.0000 </r>
       </set>
       <set comment="band 4">
        <r>  0.0893  0.0613  0.0051  0.1352  0.0000  0.0000  0.0000  0.0000  0.0000 </r>
       </set>
       <set comment="band 5">
        <r>  0.0736  0.0943  0.0053  0.0320  0.0000  0.0000  0.0000  0.0000  0.0000 </r>
       </set>
      </set>
      <set comment="kpoint 67">
       <set comment="band 1">
        <r>  0.1339  0.0444  0.0011  0.0763  0.0000  0.0000  0.0000  0.0000  0.0000 </r>
       </set>
       <set comment="band 2">
        <r>  0.0729  0.0139  0.1510  0.0043  0.0000  0.0000  0.0000  0.0000  0.0000 </r>
       </set>
       <set comment="band 3">
        <r>  0.1495  0.0415  0.0659  0.0109  0.0000  0.0000  0.0000  0.0000  0.0000 </r>
       </set>
       <set comment="band 4">
        <r>  0.0770  0.0458  0.0011  0.1569  0.0000  0.0000  0.0000  0.0000  0.0000 </r>
       </set>
       <set comment="band 5">
        <r>  0.0688  0.1218  0.0016  0.0174  0.0000  0.0000  0.0000  0.0000  0.0000 </r>
       </set>
      </set>
      <set comment="kpoint 68">
       <set comment="band 1">
        <r>  0.1676  0.0339  0.0000  0.0620  0.0000  0.0000  0.0000  0.0000  0.0000 </r>
       </set>
       <set comment="band 2">
        <r>  0.0000  0.0000  0.2075  0.0000  0.0000  0.0000  0.0000  0.0000  0.0000 </r>
       </set>
       <set comment="band 3">
        <r>  0.1914  0.0758  0.0000  0.0272  0.0000  0.0000  0.0000  0.0000  0.0000 </r>
       </set>
       <set comment="band 4">
        <r>  0.0645  0.0334  0.0000  0.1733  0.0000  0.0000  0.0000  0.0000  0.0000 </r>
       </set>
       <set comment="band 5">
        <r>  0.0565  0.1495  0.0000  0.0088  0.0000  0.0000  0.0000  0.0000  0.0000 </r>
       </set>
      </set>
      <set comment="kpoint 69">
       <set comment="band 1">
        <r>  0.1589  0.0035  0.1010  0.0000  0.0000  0.0000  0.0000  0.0000  0.0000 </r>
       </set>
       <set comment="band 2">
        <r>  0.0842  0.0098  0.1269  0.0000  0.0000  0.0000  0.0000  0.0000  0.0000 </r>
       </set>
       <set comment="band 3">
        <r>  0.0000  0.0000  0.0000  0.1773  0.0000  0.0000  0.0000  0.0000  0.0000 </r>
       </set>
       <set comment="band 4">
        <r>  0.1242  0.2152  0.0149  0.0000  0.0000  0.0000  0.0000  0.0000  0.0000 </r>
       </set>
       <set comment="band 5">
        <r>  0.0000  0.0000  0.0000  0.1561  0.0000  0.0000  0.0000  0.0000  0.0000 </r>
       </set>
      </set>
      <set comment="kpoint 70">
       <set comment="band 1">
        <r>  0.1257  0.0072  0.1237  0.0008  0.0000  0.0000  0.0000  0.0000  0.0000 </r>
       </set>
       <set comment="band 2">
        <r>  0.0502  0.0345  0.0862  0.0239  0.0000  0.0000  0.0000  0.0000  0.0000 </r>
       </set>
       <set comment="band 3">
        <r>  0.1163  0.0214  0.0252  0.1074  0.0000  0.0000  0.0000  0.0000  0.0000 </r>
       </set>
       <set comment="band 4">
        <r>  0.1169  0.1288  0.0059  0.0645  0.0000  0.0000  0.0000  0.0000  0.0000 </r>
       </set>
       <set comment="band 5">
        <r>  0.0447  0.0257  0.0024  0.1035  0.0000  0.0000  0.0000  0.0000  0.0000 </r>
       </set>
      </set>
      <set comment="kpoint 71">
       <set comment="band 1">
        <r>  0.0705  0.0105  0.1598  0.0033  0.0000  0.0000  0.0000  0.0000  0.0000 </r>
       </set>
       <set comment="band 2">
        <r>  0.0481  0.0623  0.0038  0.1046  0.0000  0.0000  0.0000  0.0000  0.0000 </r>
       </set>
       <set comment="band 3">
        <r>  0.2113  0.0085  0.0699  0.0005  0.0000  0.0000  0.0000  0.0000  0.0000 </r>
       </set>
       <set comment="band 4">
        <r>  0.1011  0.0878  0.0013  0.1074  0.0000  0.0000  0.0000  0.0000  0.0000 </r>
       </set>
       <set comment="band 5">
        <r>  0.0728  0.0636  0.0011  0.0587  0.0000  0.0000  0.0000  0.0000  0.0000 </r>
       </set>
      </set>
      <set comment="kpoint 72">
       <set comment="band 1">
        <r>  0.0931  0.0560  0.0000  0.0922  0.0000  0.0000  0.0000  0.0000  0.0000 </r>
       </set>
       <set comment="band 2">
        <r>  0.0000  0.0000  0.2268  0.0000  0.0000  0.0000  0.0000  0.0000  0.0000 </r>
       </set>
       <set comment="band 3">
        <r>  0.2562  0.0347  0.0000  0.0053  0.0000  0.0000  0.0000  0.0000  0.0000 </r>
       </set>
       <set comment="band 4">
        <r>  0.0893  0.0636  0.0000  0.1356  0.0000  0.0000  0.0000  0.0000  0.0000 </r>
       </set>
       <set comment="band 5">
        <r>  0.0769  0.0943  0.0000  0.0332  0.0000  0.0000  0.0000  0.0000  0.0000 </r>
       </set>
      </set>
      <set comment="kpoint 73">
       <set comment="band 1">
        <r>  0.0862  0.0024  0.1641  0.0000  0.0000  0.0000  0.0000  0.0000  0.0000 </r>
       </set>
       <set comment="band 2">
        <r>  0.1647  0.0073  0.0770  0.0000  0.0000  0.0000  0.0000  0.0000  0.0000 </r>
       </set>
       <set comment="band 3">
        <r>  0.0000  0.0000  0.0000  0.1793  0.0000  0.0000  0.0000  0.0000  0.0000 </r>
       </set>
       <set comment="band 4">
        <r>  0.1238  0.2235  0.0014  0.0000  0.0000  0.0000  0.0000  0.0000  0.0000 </r>
       </set>
       <set comment="band 5">
        <r>  0.0000  0.0000  0.0000  0.1623  0.0000  0.0000  0.0000  0.0000  0.0000 </r>
       </set>
      </set>
      <set comment="kpoint 74">
       <set comment="band 1">
        <r>  0.0000  0.0000  0.2393  0.0000  0.0000  0.0000  0.0000  0.0000  0.0000 </r>
       </set>
       <set comment="band 2">
        <r>  0.2275  0.0229  0.0000  0.0035  0.0000  0.0000  0.0000  0.0000  0.0000 </r>
       </set>
       <set comment="band 3">
        <r>  0.0700  0.0393  0.0000  0.1295  0.0000  0.0000  0.0000  0.0000  0.0000 </r>
       </set>
       <set comment="band 4">
        <r>  0.1164  0.1315  0.0000  0.0649  0.0000  0.0000  0.0000  0.0000  0.0000 </r>
       </set>
       <set comment="band 5">
        <r>  0.0460  0.0259  0.0000  0.1058  0.0000  0.0000  0.0000  0.0000  0.0000 </r>
       </set>
      </set>
      <set comment="kpoint 75">
       <set comment="band 1">
        <r>  0.1872  0.0153  0.0641  0.0000  0.0000  0.0000  0.0000  0.0000  0.0000 </r>
       </set>
       <set comment="band 2">
        <r>  0.0000  0.0000  0.0000  0.1925  0.0000  0.0000  0.0000  0.0000  0.0000 </r>
       </set>
       <set comment="band 3">
        <r>  0.1334  0.1346  0.0159  0.0000  0.0000  0.0000  0.0000  0.0000  0.0000 </r>
       </set>
       <set comment="band 4">
        <r>  0.0932  0.0046  0.1776  0.0000  0.0000  0.0000  0.0000  0.0000  0.0000 </r>
       </set>
       <set comment="band 5">
        <r>  0.0000  0.0000  0.0000  0.1178  0.0000  0.0000  0.0000  0.0000  0.0000 </r>
       </set>
      </set>
      <set comment="kpoint 76">
       <set comment="band 1">
        <r>  0.1593  0.0229  0.0791  0.0009  0.0000  0.0000  0.0000  0.0000  0.0000 </r>
       </set>
       <set comment="band 2">
        <r>  0.0572  0.0273  0.0037  0.1420  0.0000  0.0000  0.0000  0.0000  0.0000 </r>
       </set>
       <set comment="band 3">
        <r>  0.0997  0.0840  0.0038  0.0604  0.0000  0.0000  0.0000  0.0000  0.0000 </r>
       </set>
       <set comment="band 4">
        <r>  0.1208  0.0088  0.1624  0.0031  0.0000  0.0000  0.0000  0.0000  0.0000 </r>
       </set>
       <set comment="band 5">
        <r>  0.0201  0.0650  0.0112  0.0765  0.0000  0.0000  0.0000  0.0000  0.0000 </r>
       </set>
      </set>
      <set comment="kpoint 77">
       <set comment="band 1">
        <r>  0.1178  0.0326  0.0962  0.0048  0.0000  0.0000  0.0000  0.0000  0.0000 </r>
       </set>
       <set comment="band 2">
        <r>  0.1144  0.0287  0.0018  0.1099  0.0000  0.0000  0.0000  0.0000  0.0000 </r>
       </set>
       <set comment="band 3">
        <r>  0.0402  0.0693  0.0029  0.0807  0.0000  0.0000  0.0000  0.0000  0.0000 </r>
       </set>
       <set comment="band 4">
        <r>  0.1760  0.0070  0.1354  0.0263  0.0000  0.0000  0.0000  0.0000  0.0000 </r>
       </set>
       <set comment="band 5">
        <r>  0.0161  0.1568  0.0179  0.0486  0.0000  0.0000  0.0000  0.0000  0.0000 </r>
       </set>
      </set>
      <set comment="kpoint 78">
       <set comment="band 1">
        <r>  0.1476  0.0140  0.0991  0.0000  0.0000  0.0000  0.0000  0.0000  0.0000 </r>
       </set>
       <set comment="band 2">
        <r>  0.0000  0.0000  0.0000  0.1988  0.0000  0.0000  0.0000  0.0000  0.0000 </r>
       </set>
       <set comment="band 3">
        <r>  0.0040  0.1122  0.0363  0.0000  0.0000  0.0000  0.0000  0.0000  0.0000 </r>
       </set>
       <set comment="band 4">
        <r>  0.2840  0.0331  0.1083  0.0000  0.0000  0.0000  0.0000  0.0000  0.0000 </r>
       </set>
       <set comment="band 5">
        <r>  0.0000  0.0000  0.0000  0.1299  0.0000  0.0000  0.0000  0.0000  0.0000 </r>
       </set>
      </set>
      <set comment="kpoint 79">
       <set comment="band 1">
        <r>  0.1097  0.0201  0.1207  0.0010  0.0000  0.0000  0.0000  0.0000  0.0000 </r>
       </set>
       <set comment="band 2">
        <r>  0.0551  0.0303  0.0000  0.1446  0.0000  0.0000  0.0000  0.0000  0.0000 </r>
       </set>
       <set comment="band 3">
        <r>  0.0481  0.0511  0.0859  0.0082  0.0000  0.0000  0.0000  0.0000  0.0000 </r>
       </set>
       <set comment="band 4">
        <r>  0.2435  0.0433  0.0287  0.0578  0.0000  0.0000  0.0000  0.0000  0.0000 </r>
       </set>
       <set comment="band 5">
        <r>  0.0263  0.0565  0.0026  0.0848  0.0000  0.0000  0.0000  0.0000  0.0000 </r>
       </set>
      </set>
      <set comment="kpoint 80">
       <set comment="band 1">
        <r>  0.0625  0.0451  0.0072  0.1148  0.0000  0.0000  0.0000  0.0000  0.0000 </r>
       </set>
       <set comment="band 2">
        <r>  0.0991  0.0086  0.1480  0.0013  0.0000  0.0000  0.0000  0.0000  0.0000 </r>
       </set>
       <set comment="band 3">
        <r>  0.1300  0.0507  0.0661  0.0001  0.0000  0.0000  0.0000  0.0000  0.0000 </r>
       </set>
       <set comment="band 4">
        <r>  0.1716  0.0334  0.0037  0.1093  0.0000  0.0000  0.0000  0.0000  0.0000 </r>
       </set>
       <set comment="band 5">
        <r>  0.0352  0.1115  0.0013  0.0523  0.0000  0.0000  0.0000  0.0000  0.0000 </r>
       </set>
      </set>
      <set comment="kpoint 81">
       <set comment="band 1">
        <r>  0.1277  0.0312  0.0000  0.0960  0.0000  0.0000  0.0000  0.0000  0.0000 </r>
       </set>
       <set comment="band 2">
        <r>  0.0000  0.0000  0.2147  0.0000  0.0000  0.0000  0.0000  0.0000  0.0000 </r>
       </set>
       <set comment="band 3">
        <r>  0.1883  0.0856  0.0000  0.0029  0.0000  0.0000  0.0000  0.0000  0.0000 </r>
       </set>
       <set comment="band 4">
        <r>  0.1408  0.0202  0.0000  0.1395  0.0000  0.0000  0.0000  0.0000  0.0000 </r>
       </set>
       <set comment="band 5">
        <r>  0.0270  0.1650  0.0000  0.0352  0.0000  0.0000  0.0000  0.0000  0.0000 </r>
       </set>
      </set>
      <set comment="kpoint 82">
       <set comment="band 1">
        <r>  0.0769  0.0095  0.1611  0.0000  0.0000  0.0000  0.0000  0.0000  0.0000 </r>
       </set>
       <set comment="band 2">
        <r>  0.1262  0.0331  0.0720  0.0000  0.0000  0.0000  0.0000  0.0000  0.0000 </r>
       </set>
       <set comment="band 3">
        <r>  0.0000  0.0000  0.0000  0.2019  0.0000  0.0000  0.0000  0.0000  0.0000 </r>
       </set>
       <set comment="band 4">
        <r>  0.2438  0.1193  0.0039  0.0000  0.0000  0.0000  0.0000  0.0000  0.0000 </r>
       </set>
       <set comment="band 5">
        <r>  0.0000  0.0000  0.0000  0.1353  0.0000  0.0000  0.0000  0.0000  0.0000 </r>
       </set>
      </set>
      <set comment="kpoint 83">
       <set comment="band 1">
        <r>  0.0000  0.0000  0.2308  0.0000  0.0000  0.0000  0.0000  0.0000  0.0000 </r>
       </set>
       <set comment="band 2">
        <r>  0.0006  0.0687  0.0000  0.1095  0.0000  0.0000  0.0000  0.0000  0.0000 </r>
       </set>
       <set comment="band 3">
        <r>  0.2614  0.0127  0.0000  0.0393  0.0000  0.0000  0.0000  0.0000  0.0000 </r>
       </set>
       <set comment="band 4">
        <r>  0.2010  0.0642  0.0000  0.0645  0.0000  0.0000  0.0000  0.0000  0.0000 </r>
       </set>
       <set comment="band 5">
        <r>  0.0279  0.0543  0.0000  0.0876  0.0000  0.0000  0.0000  0.0000  0.0000 </r>
       </set>
      </set>
      <set comment="kpoint 84">
       <set comment="band 1">
        <r>  0.0587  0.0221  0.1551  0.0000  0.0000  0.0000  0.0000  0.0000  0.0000 </r>
       </set>
       <set comment="band 2">
        <r>  0.0000  0.0000  0.0000  0.2184  0.0000  0.0000  0.0000  0.0000  0.0000 </r>
       </set>
       <set comment="band 3">
        <r>  0.0091  0.1139  0.0298  0.0000  0.0000  0.0000  0.0000  0.0000  0.0000 </r>
       </set>
       <set comment="band 4">
        <r>  0.4040  0.0010  0.0421  0.0000  0.0000  0.0000  0.0000  0.0000  0.0000 </r>
       </set>
       <set comment="band 5">
        <r>  0.0000  0.0016  0.0002  0.1109  0.0000  0.0000  0.0000  0.0000  0.0000 </r>
       </set>
      </set>
     </set>
    </set>
   </array>
  </projected>
 </calculation>
 <structure name="finalpos" >
  <crystal>
   <varray name="basis" >
    <v>       0.00000000       2.01946500       2.01946500 </v>
    <v>       2.01946500       0.00000000       2.01946500 </v>
    <v>       2.01946500       2.01946500       0.00000000 </v>
   </varray>
   <i name="volume">     16.47172138 </i>
   <varray name="rec_basis" >
    <v>      -0.24759033       0.24759033       0.24759033 </v>
    <v>       0.24759033      -0.24759033       0.24759033 </v>
    <v>       0.24759033       0.24759033      -0.24759033 </v>
   </varray>
  </crystal>
  <varray name="positions" >
   <v>       0.00000000       0.00000000       0.00000000 </v>
  </varray>
 </structure>
</modeling>
