
Running Job 1 of 1 test.qin
qchem test.qin_39680.0 /tmp/qchem39680/ 1
srun -n 1 /global/common/cori/software/qchem/5.1beta/exe/qcprog.exe test.qin_39680.0 /tmp/qchem39680/

Process 0 of 1 is on nid00524 - thread support 0
initial socket setup ...start
initial socket setup ...done 
now start server 0 ... 
Check license passed

                  Welcome to Q-Chem
     A Quantum Leap Into The Future Of Chemistry


 Q-Chem 5.1, Q-Chem, Inc., Pleasanton, CA (2018)

 Yihan Shao,  Zhengting Gan,  E. Epifanovsky,  A. T. B. Gilbert,  M. Wormit,  
 J. Kussmann,  A. W. Lange,  A. Behn,  Jia Deng,  Xintian Feng,  D. Ghosh,  
 M. Goldey,  P. R. Horn,  L. D. Jacobson,  I. Kaliman,  T. Kus,  A. Landau,  
 Jie Liu,  E. I. Proynov,  R. M. Richard,  R. P. Steele,  E. J. Sundstrom,  
 H. L. Woodcock III,  P. M. Zimmerman,  D. Zuev,  B. Albrecht,  E. Alguire,  
 S. A. Baeppler,  D. Barton,  Z. Benda,  Y. A. Bernard,  E. J. Berquist,  
 K. B. Bravaya,  H. Burton,  D. Casanova,  Chun-Min Chang,  Yunqing Chen,  
 A. Chien,  K. D. Closser,  M. P. Coons,  S. Coriani,  S. Dasgupta,  
 A. L. Dempwolff,  M. Diedenhofen,  Hainam Do,  R. G. Edgar,  Po-Tung Fang,  
 S. Faraji,  S. Fatehi,  Qingguo Feng,  K. D. Fenk,  J. Fosso-Tande,  
 Qinghui Ge,  A. Ghysels,  G. Gidofalvi,  J. Gomes,  J. Gonthier,  A. Gunina,  
 M. W. D. Hanson-Heine,  P. H. P. Harbach,  A. W. Hauser,  J. E. Herr,  
 E. G. Hohenstein,  Z. C. Holden,  Kerwin Hui,  T.-C. Jagau,  Hyunjun Ji,  
 B. Kaduk,  K. Khistyaev,  Jaehoon Kim,  P. Klunzinger,  K. Koh,  
 D. Kosenkov,  L. Koulias,  T. Kowalczyk,  C. M. Krauter,  A. Kunitsa,  
 Ka Un Lao,  A. Laurent,  K. V. Lawler,  Joonho Lee,  D. Lefrancois,  
 S. Lehtola,  D. S. Levine,  Yi-Pei Li,  You-Sheng Lin,  Fenglai Liu,  
 E. Livshits,  A. Luenser,  P. Manohar,  E. Mansoor,  S. F. Manzer,  
 Shan-Ping Mao,  Yuezhi Mao,  N. Mardirossian,  A. V. Marenich,  
 T. Markovich,  L. A. Martinez-Martinez,  S. A. Maurer,  N. J. Mayhall,  
 S. C. McKenzie,  J.-M. Mewes,  A. F. Morrison,  J. W. Mullinax,  K. Nanda,  
 T. S. Nguyen-Beck,  R. Olivares-Amaya,  J. A. Parkhill,  T. M. Perrine,  
 F. Plasser,  P. Pokhilko,  S. Prager,  A. Prociuk,  E. Ramos,  D. R. Rehn,  
 F. Rob,  M. Schneider,  N. Sergueev,  S. M. Sharada,  S. Sharma,  
 D. W. Small,  T. Stauch,  T. Stein,  Yu-Chuan Su,  A. J. W. Thom,  
 A. Tkatchenko,  T. Tsuchimochi,  N. M. Tubman,  L. Vogt,  M. L. Vidal,  
 O. Vydrov,  M. A. Watson,  J. Wenzel,  M. de Wergifosse,  T. A. Wesolowski,  
 A. White,  J. Witte,  A. Yamada,  Jun Yang,  K. Yao,  S. Yeganeh,  
 S. R. Yost,  Zhi-Qiang You,  A. Zech,  Igor Ying Zhang,  Xing Zhang,  
 Yan Zhao,  Ying Zhu,  B. R. Brooks,  G. K. L. Chan,  C. J. Cramer,  
 M. S. Gordon,  W. J. Hehre,  A. Klamt,  M. W. Schmidt,  C. D. Sherrill,  
 D. G. Truhlar,  A. Aspuru-Guzik,  R. Baer,  A. T. Bell,  N. A. Besley,  
 Jeng-Da Chai,  R. A. DiStasio Jr.,  A. Dreuw,  B. D. Dunietz,  
 T. R. Furlani,  Chao-Ping Hsu,  Yousung Jung,  Jing Kong,  D. S. Lambrecht,  
 WanZhen Liang,  C. Ochsenfeld,  V. A. Rassolov,  L. V. Slipchenko,  
 J. E. Subotnik,  T. Van Voorhis,  J. M. Herbert,  A. I. Krylov,  
 P. M. W. Gill,  M. Head-Gordon

 Contributors to earlier versions of Q-Chem not listed above: 
 R. D. Adamson,  B. Austin,  J. Baker,  G. J. O. Beran,  K. Brandhorst,  
 S. T. Brown,  E. F. C. Byrd,  A. K. Chakraborty,  C.-L. Cheng,  
 Siu Hung Chien,  D. M. Chipman,  D. L. Crittenden,  H. Dachsel,  
 R. J. Doerksen,  A. D. Dutoi,  L. Fusti-Molnar,  W. A. Goddard III,  
 A. Golubeva-Zadorozhnaya,  S. R. Gwaltney,  G. Hawkins,  A. Heyden,  
 S. Hirata,  G. Kedziora,  F. J. Keil,  C. Kelley,  Jihan Kim,  R. A. King,  
 R. Z. Khaliullin,  P. P. Korambath,  W. Kurlancheek,  A. M. Lee,  M. S. Lee,  
 S. V. Levchenko,  Ching Yeh Lin,  D. Liotard,  R. C. Lochan,  I. Lotan,  
 P. E. Maslen,  N. Nair,  D. P. O'Neill,  D. Neuhauser,  E. Neuscamman,  
 C. M. Oana,  R. Olson,  B. Peters,  R. Peverati,  P. A. Pieniazek,  
 Y. M. Rhee,  J. Ritchie,  M. A. Rohrdanz,  E. Rosta,  N. J. Russ,  
 H. F. Schaefer III,  N. E. Schultz,  N. Shenvi,  A. C. Simmonett,  A. Sodt,  
 D. Stuck,  K. S. Thanthiriwatte,  V. Vanovschi,  Tao Wang,  A. Warshel,  
 C. F. Williams,  Q. Wu,  X. Xu,  W. Zhang

 Please cite Q-Chem as follows:
 Y. Shao et al., Mol. Phys. 113, 184-215 (2015)
 DOI: 10.1080/00268976.2014.952696

 Q-Chem 5.1.0 for Intel X86 EM64T Linux

 Parts of Q-Chem use Armadillo 8.300.2 (Tropical Shenanigans).
 http://arma.sourceforge.net/

 Q-Chem begins on Tue Apr 17 17:24:07 2018  

Host: cori12
0

     Scratch files written to /tmp/qchem39680//
 Mar1918  _RNUM -1
 Parallel job on  1  processors
Processing $rem in /global/common/cori/software/qchem/5.1beta/config/preferences.
 MEM_TOTAL  2000 

Checking the input file for inconsistencies... 	...done.
[HyperChem begin]
[HyperChem end]
[HyperChem begin]
[HyperChem end]
[HyperChem begin]
[HyperChem end]
[HyperChem begin]
[HyperChem end]
[HyperChem begin]
[HyperChem end]
[HyperChem begin]
[HyperChem end]
[HyperChem begin]
[HyperChem end]
[HyperChem begin]
[HyperChem end]

--------------------------------------------------------------
User input:
--------------------------------------------------------------
$molecule
0 2
O      0.8354331412      0.1495270055     -0.0030648403
C      1.1064883264     -1.1633544579     -0.0065717458
C     -0.5371321278      0.2831181045      0.0018746439
O      2.2008833092     -1.6456049372     -0.0111057479
O     -0.0445081631     -1.8505548626     -0.0039108382
C     -1.0704973275     -0.9291315884      0.0012298569
Li      3.9660260179     -2.4289106216     -0.0174828315
H     -0.9417064066      1.2786737645      0.0051632219
H     -2.0769867697     -1.3057624068      0.0038682810
$end

$rem
BASIS = 6-311++G**
SYM_IGNORE = true
GUI = 1
METHOD = wb97xd
JOB_TYPE = freq
gen_scfman = True
$end
--------------------------------------------------------------
 ----------------------------------------------------------------
             Standard Nuclear Orientation (Angstroms)
    I     Atom           X                Y                Z
 ----------------------------------------------------------------
    1      O       0.8354331412     0.1495270055    -0.0030648403
    2      C       1.1064883264    -1.1633544579    -0.0065717458
    3      C      -0.5371321278     0.2831181045     0.0018746439
    4      O       2.2008833092    -1.6456049372    -0.0111057479
    5      O      -0.0445081631    -1.8505548626    -0.0039108382
    6      C      -1.0704973275    -0.9291315884     0.0012298569
    7      Li      3.9660260179    -2.4289106216    -0.0174828315
    8      H      -0.9417064066     1.2786737645     0.0051632219
    9      H      -2.0769867697    -1.3057624068     0.0038682810
 ----------------------------------------------------------------
 Nuclear Repulsion Energy =   251.2421390059 hartrees
 There are       24 alpha and       23 beta electrons
[HyperChem begin]
[HyperChem end]
[HyperChem begin]
;Nuclear Cartesian coordinates in Angstroms
[coordinates]
      0.835433141200      0.149527005500     -0.003064840300
      1.106488326400     -1.163354457900     -0.006571745800
     -0.537132127800      0.283118104500      0.001874643900
      2.200883309200     -1.645604937200     -0.011105747900
     -0.044508163100     -1.850554862600     -0.003910838200
     -1.070497327500     -0.929131588400      0.001229856900
      3.966026017900     -2.428910621600     -0.017482831500
     -0.941706406600      1.278673764500      0.005163221900
     -2.076986769700     -1.305762406800      0.003868281000
[HyperChem end]
[HyperChem begin]
[HyperChem end]
 Requested basis set is 6-311++G(d,p)
[HyperChem begin]
[basis]
;
1:
;
Shells = 6
Shell1 =[ S   6   1.00 ]
   1    8.588500E+03    1.895150E-03
   2    1.297230E+03    1.438590E-02
   3    2.992960E+02    7.073200E-02
   4    8.737710E+01    2.400010E-01
   5    2.567890E+01    5.947970E-01
   6    3.740040E+00    2.808020E-01
Shell2 =[ SP  3   1.00 ]
   1    4.211750E+01    1.138890E-01    3.651140E-02
   2    9.628370E+00    9.208110E-01    2.371530E-01
   3    2.853320E+00   -3.274470E-03    8.197020E-01
Shell3 =[ SP  1   1.00 ]
   1    9.056610E-01    1.000000E+00    1.000000E+00
Shell4 =[ SP  1   1.00 ]
   1    2.556110E-01    1.000000E+00    1.000000E+00
Shell5 =[ SP  1   1.00 ]
   1    8.450000E-02    1.000000E+00    1.000000E+00
Shell6 =[ D   1   1.00 ]
   1    1.292000E+00    1.000000E+00
;
2:
;
Shells = 6
Shell1 =[ S   6   1.00 ]
   1    4.563240E+03    1.966650E-03
   2    6.820240E+02    1.523060E-02
   3    1.549730E+02    7.612690E-02
   4    4.445530E+01    2.608010E-01
   5    1.302900E+01    6.164620E-01
   6    1.827730E+00    2.210060E-01
Shell2 =[ SP  3   1.00 ]
   1    2.096420E+01    1.146600E-01    4.024870E-02
   2    4.803310E+00    9.199990E-01    2.375940E-01
   3    1.459330E+00   -3.030680E-03    8.158540E-01
Shell3 =[ SP  1   1.00 ]
   1    4.834560E-01    1.000000E+00    1.000000E+00
Shell4 =[ SP  1   1.00 ]
   1    1.455850E-01    1.000000E+00    1.000000E+00
Shell5 =[ SP  1   1.00 ]
   1    4.380000E-02    1.000000E+00    1.000000E+00
Shell6 =[ D   1   1.00 ]
   1    6.260000E-01    1.000000E+00
;
3:
;
Shells = 6
Shell1 =[ S   6   1.00 ]
   1    4.563240E+03    1.966650E-03
   2    6.820240E+02    1.523060E-02
   3    1.549730E+02    7.612690E-02
   4    4.445530E+01    2.608010E-01
   5    1.302900E+01    6.164620E-01
   6    1.827730E+00    2.210060E-01
Shell2 =[ SP  3   1.00 ]
   1    2.096420E+01    1.146600E-01    4.024870E-02
   2    4.803310E+00    9.199990E-01    2.375940E-01
   3    1.459330E+00   -3.030680E-03    8.158540E-01
Shell3 =[ SP  1   1.00 ]
   1    4.834560E-01    1.000000E+00    1.000000E+00
Shell4 =[ SP  1   1.00 ]
   1    1.455850E-01    1.000000E+00    1.000000E+00
Shell5 =[ SP  1   1.00 ]
   1    4.380000E-02    1.000000E+00    1.000000E+00
Shell6 =[ D   1   1.00 ]
   1    6.260000E-01    1.000000E+00
;
4:
;
Shells = 6
Shell1 =[ S   6   1.00 ]
   1    8.588500E+03    1.895150E-03
   2    1.297230E+03    1.438590E-02
   3    2.992960E+02    7.073200E-02
   4    8.737710E+01    2.400010E-01
   5    2.567890E+01    5.947970E-01
   6    3.740040E+00    2.808020E-01
Shell2 =[ SP  3   1.00 ]
   1    4.211750E+01    1.138890E-01    3.651140E-02
   2    9.628370E+00    9.208110E-01    2.371530E-01
   3    2.853320E+00   -3.274470E-03    8.197020E-01
Shell3 =[ SP  1   1.00 ]
   1    9.056610E-01    1.000000E+00    1.000000E+00
Shell4 =[ SP  1   1.00 ]
   1    2.556110E-01    1.000000E+00    1.000000E+00
Shell5 =[ SP  1   1.00 ]
   1    8.450000E-02    1.000000E+00    1.000000E+00
Shell6 =[ D   1   1.00 ]
   1    1.292000E+00    1.000000E+00
;
5:
;
Shells = 6
Shell1 =[ S   6   1.00 ]
   1    8.588500E+03    1.895150E-03
   2    1.297230E+03    1.438590E-02
   3    2.992960E+02    7.073200E-02
   4    8.737710E+01    2.400010E-01
   5    2.567890E+01    5.947970E-01
   6    3.740040E+00    2.808020E-01
Shell2 =[ SP  3   1.00 ]
   1    4.211750E+01    1.138890E-01    3.651140E-02
   2    9.628370E+00    9.208110E-01    2.371530E-01
   3    2.853320E+00   -3.274470E-03    8.197020E-01
Shell3 =[ SP  1   1.00 ]
   1    9.056610E-01    1.000000E+00    1.000000E+00
Shell4 =[ SP  1   1.00 ]
   1    2.556110E-01    1.000000E+00    1.000000E+00
Shell5 =[ SP  1   1.00 ]
   1    8.450000E-02    1.000000E+00    1.000000E+00
Shell6 =[ D   1   1.00 ]
   1    1.292000E+00    1.000000E+00
;
6:
;
Shells = 6
Shell1 =[ S   6   1.00 ]
   1    4.563240E+03    1.966650E-03
   2    6.820240E+02    1.523060E-02
   3    1.549730E+02    7.612690E-02
   4    4.445530E+01    2.608010E-01
   5    1.302900E+01    6.164620E-01
   6    1.827730E+00    2.210060E-01
Shell2 =[ SP  3   1.00 ]
   1    2.096420E+01    1.146600E-01    4.024870E-02
   2    4.803310E+00    9.199990E-01    2.375940E-01
   3    1.459330E+00   -3.030680E-03    8.158540E-01
Shell3 =[ SP  1   1.00 ]
   1    4.834560E-01    1.000000E+00    1.000000E+00
Shell4 =[ SP  1   1.00 ]
   1    1.455850E-01    1.000000E+00    1.000000E+00
Shell5 =[ SP  1   1.00 ]
   1    4.380000E-02    1.000000E+00    1.000000E+00
Shell6 =[ D   1   1.00 ]
   1    6.260000E-01    1.000000E+00
;
7:
;
Shells = 6
Shell1 =[ S   6   1.00 ]
   1    9.004600E+02    2.287040E-03
   2    1.344330E+02    1.763500E-02
   3    3.043650E+01    8.734340E-02
   4    8.626390E+00    2.809770E-01
   5    2.483320E+00    6.587410E-01
   6    3.031790E-01    1.187120E-01
Shell2 =[ SP  3   1.00 ]
   1    4.868900E+00    9.332930E-02    3.276610E-02
   2    8.569240E-01    9.430450E-01    1.597920E-01
   3    2.432270E-01   -2.798270E-03    8.856670E-01
Shell3 =[ SP  1   1.00 ]
   1    6.350700E-02    1.000000E+00    1.000000E+00
Shell4 =[ SP  1   1.00 ]
   1    2.436830E-02    1.000000E+00    1.000000E+00
Shell5 =[ SP  1   1.00 ]
   1    7.400000E-03    1.000000E+00    1.000000E+00
Shell6 =[ D   1   1.00 ]
   1    2.000000E-01    1.000000E+00
;
8:
;
Shells = 5
Shell1 =[ S   3   1.00 ]
   1    3.386500E+01    2.549380E-02
   2    5.094790E+00    1.903730E-01
   3    1.158790E+00    8.521610E-01
Shell2 =[ S   1   1.00 ]
   1    3.258400E-01    1.000000E+00
Shell3 =[ S   1   1.00 ]
   1    1.027410E-01    1.000000E+00
Shell4 =[ S   1   1.00 ]
   1    3.600000E-02    1.000000E+00
Shell5 =[ P   1   1.00 ]
   1    7.500000E-01    1.000000E+00
;
9:
;
Shells = 5
Shell1 =[ S   3   1.00 ]
   1    3.386500E+01    2.549380E-02
   2    5.094790E+00    1.903730E-01
   3    1.158790E+00    8.521610E-01
Shell2 =[ S   1   1.00 ]
   1    3.258400E-01    1.000000E+00
Shell3 =[ S   1   1.00 ]
   1    1.027410E-01    1.000000E+00
Shell4 =[ S   1   1.00 ]
   1    3.600000E-02    1.000000E+00
Shell5 =[ P   1   1.00 ]
   1    7.500000E-01    1.000000E+00
[HyperChem end]
 There are 52 shells and 168 basis functions

 Total QAlloc Memory Limit   2000 MB
 Mega-Array Size       188 MB
 MEM_STATIC part       192 MB

                       Distance Matrix (Angstroms)
             O (  1)   C (  2)   C (  3)   O (  4)   O (  5)   C (  6)
   C (  2)  1.340575
   C (  3)  1.379060  2.189485
   O (  4)  2.255442  1.195946  3.349160
   O (  5)  2.185092  1.340539  2.189811  2.254737
   C (  6)  2.189999  2.189563  1.324397  3.348943  1.379022
   Li(  7)  4.055756  3.127092  5.256796  1.931149  4.052044  5.255117
   H (  8)  2.105532  3.187278  1.074627  4.292731  3.255322  2.211562
   H (  9)  3.255780  3.186676  2.212622  4.291374  2.104241  1.074653
             Li(  7)   H (  8)
   H (  8)  6.150816
   H (  9)  6.146537  2.822795
 
 A cutoff of  1.0D-11 yielded   1317 shell pairs
 There are     14119 function pairs (     15338 Cartesian)
 
 -------------------------------------------------------
 OpenMP Integral Computing Module                       
 Release: version 1.0, May 2013, Q-Chem Inc. Pittsburgh 
 -------------------------------------------------------
 Integral Job Info:
 Integral job number is                      11
 Integral operator is                         1
 short-range coefficients              22203600
 long-range coefficients              100000000
 Omega coefficients                         200
 if combine SR and LR in K                    1
 Integral screening is                        0
 Integral computing path is                   2
 max size of driver memory is            800000
 size of driver memory is                593474
 size of scratch memory is              2428936
 max col of scratch BK array               1296
 max len of scratch array in speh3          155
 max len of scratch index in speh4           18
 max int batch size is                      520
 min int batch size is                       52
 fixed nKL is                                52
 max L of basis functions is                  2
 order of int derivative is                   0
 number of shells is                         52
 number of basis is                         175
 number of cartesian basis is               175
 number of contracted shell pairs          1317
 number of primitive shell pairs           3882
 maxK2 (contraction) of shell pair           36
 max number of K2 of shell pair               1
 max number of CS2 of shell pair            240
 max number of PS2 of shell pair            870
 mem total for path MDJ                  537338
 -------------------------------------------------------
 Smallest overlap matrix eigenvalue = 3.08E-05
 Guess from superposition of atomic densities
 Warning:  Energy on first SCF cycle will be non-variational
 SAD guess density has 47.000000 electrons

 -----------------------------------------------------------------------
  General SCF calculation program by
  Eric Jon Sundstrom, Paul Horn, Yuezhi Mao, Dmitri Zuev, Alec White,
  David Stuck, Shaama M.S., Shane Yost, Joonho Lee, David Small,
  Daniel Levine, Susi Lehtola, Hugh Burton, Evgeny Epifanovsky
 -----------------------------------------------------------------------
 Exchange:     0.2220 Hartree-Fock + 1.0000 wB97X-D + LR-HF
 Correlation:  1.0000 wB97X-D
 Using SG-2 standard quadrature grid
 Dispersion:   Grimme D
 using 12 threads for integral computing
 -------------------------------------------------------
 OpenMP Integral computing Module                
 Release: version 1.0, May 2013, Q-Chem Inc. Pittsburgh 
 -------------------------------------------------------
 using 12 threads for integral computing
 -------------------------------------------------------
 OpenMP Integral computing Module                
 Release: version 1.0, May 2013, Q-Chem Inc. Pittsburgh 
 -------------------------------------------------------
 -------------------------------------------------------
 OpenMP BLAS3 based DFT computing Module                
 Release: version 1.0, May 2013, Q-Chem Inc. Pittsburgh 
 -------------------------------------------------------
 A unrestricted SCF calculation will be
 performed using DIIS
 SCF converges when DIIS error is below 1.0e-08
 ---------------------------------------
  Cycle       Energy         DIIS error
 ---------------------------------------
    1    -350.2671225143      2.56e-02  
    2    -348.5004492951      3.71e-03  
    3    -348.4194351253      4.98e-03  
    4    -348.6489526080      5.09e-04  
    5    -348.6512764621      2.69e-04  
    6    -348.6521809248      4.75e-05  
    7    -348.6523401571      2.28e-05  
    8    -348.6523901334      1.21e-05  
    9    -348.6524085774      2.64e-06  
   10    -348.6524095814      5.83e-07  
   11    -348.6524096166      1.93e-07  
   12    -348.6524096227      1.14e-07  
   13    -348.6524096244      7.88e-08  
   14    -348.6524096252      3.80e-08  
   15    -348.6524096254      1.06e-08  
   16    -348.6524096254      2.56e-09  Convergence criterion met
 ---------------------------------------
 SCF time:   CPU 110.01s  wall 9.00s 
 SCF   energy in the final basis set =     -348.6524096254
<S^2> =          0.750189058
 
 --------------------------------------------------------------
 
                    Orbital Energies (a.u.)
 --------------------------------------------------------------
 
 Alpha MOs
 -- Occupied --
-19.388 -19.388 -19.303 -10.534 -10.412 -10.411  -2.075  -1.362
 -1.238  -1.222  -0.944  -0.828  -0.793  -0.702  -0.676  -0.638
 -0.629  -0.567  -0.545  -0.539  -0.522  -0.463  -0.386  -0.140
 -- Virtual --
  0.008   0.017   0.017   0.025   0.030   0.034   0.037   0.042
  0.056   0.059   0.062   0.086   0.088   0.105   0.109   0.132
  0.134   0.138   0.147   0.149   0.159   0.167   0.170   0.173
  0.176   0.190   0.200   0.229   0.244   0.254   0.292   0.303
  0.307   0.309   0.313   0.344   0.350   0.361   0.365   0.369
  0.391   0.419   0.419   0.452   0.453   0.499   0.517   0.549
  0.556   0.564   0.565   0.569   0.586   0.599   0.609   0.630
  0.667   0.716   0.723   0.744   0.769   0.814   0.831   0.846
  0.875   0.904   0.933   0.966   1.043   1.059   1.080   1.088
  1.165   1.175   1.205   1.209   1.217   1.235   1.298   1.312
  1.351   1.395   1.452   1.482   1.529   1.622   1.711   1.746
  1.760   1.761   1.781   1.784   1.820   1.896   1.924   1.991
  2.085   2.150   2.179   2.443   2.565   2.580   2.685   2.733
  2.746   2.762   2.794   2.833   2.891   2.989   2.991   3.074
  3.081   3.151   3.195   3.223   3.247   3.416   3.420   3.444
  3.571   3.651   3.663   3.912   4.013   4.019   4.091   4.229
  4.246   5.000   5.004   5.099   5.213   5.355   5.508   5.552
  5.957   6.015  23.760  23.914  24.355  49.893  50.005  50.130
 
 Beta MOs
 -- Occupied --
-19.388 -19.388 -19.303 -10.534 -10.412 -10.411  -2.072  -1.362
 -1.238  -1.222  -0.944  -0.828  -0.792  -0.702  -0.676  -0.638
 -0.628  -0.567  -0.545  -0.539  -0.522  -0.463  -0.386
 -- Virtual --
  0.012   0.025   0.034   0.039   0.040   0.042   0.051   0.061
  0.071   0.092   0.100   0.112   0.133   0.134   0.139   0.141
  0.148   0.163   0.172   0.189   0.207   0.217   0.223   0.244
  0.246   0.260   0.271   0.275   0.276   0.286   0.293   0.309
  0.316   0.322   0.336   0.361   0.378   0.386   0.391   0.423
  0.424   0.442   0.446   0.463   0.471   0.514   0.546   0.571
  0.575   0.584   0.608   0.623   0.647   0.668   0.671   0.712
  0.718   0.736   0.775   0.780   0.805   0.814   0.849   0.855
  0.880   0.940   0.967   0.968   0.993   1.053   1.080   1.089
  1.115   1.166   1.187   1.212   1.212   1.217   1.242   1.299
  1.327   1.353   1.405   1.453   1.513   1.537   1.631   1.712
  1.749   1.760   1.762   1.781   1.788   1.826   1.898   1.925
  1.993   2.086   2.150   2.179   2.443   2.566   2.581   2.685
  2.734   2.746   2.762   2.795   2.834   2.891   2.989   2.991
  3.074   3.081   3.151   3.196   3.223   3.247   3.416   3.421
  3.444   3.572   3.654   3.663   3.919   4.016   4.019   4.091
  4.230   4.248   5.001   5.004   5.100   5.215   5.355   5.508
  5.552   5.959   6.015  23.760  23.915  24.355  49.894  50.005
 50.131
 --------------------------------------------------------------
 
          Ground-State Mulliken Net Atomic Charges

     Atom                 Charge (a.u.)    Spin (a.u.)
  --------------------------------------------------------
      1 O                    -0.041263      -0.010094
      2 C                     0.251725      -0.015710
      3 C                    -0.111209       0.004681
      4 O                    -0.277312      -0.070424
      5 O                    -0.040984      -0.010003
      6 C                    -0.112458       0.004798
      7 Li                   -0.166644       1.094866
      8 H                     0.248996       0.000950
      9 H                     0.249148       0.000936
  --------------------------------------------------------
  Sum of atomic charges =     0.000000
  Sum of spin   charges =     1.000000

 -----------------------------------------------------------------
                    Cartesian Multipole Moments
 -----------------------------------------------------------------
    Charge (ESU x 10^10)
                 0.0000
    Dipole Moment (Debye)
         X      -9.9853      Y       4.4084      Z       0.0385
       Tot      10.9152
    Quadrupole Moments (Debye-Ang)
        XX     -82.3993     XY      24.4682     YY     -56.1516
        XZ       0.1653     YZ      -0.0983     ZZ     -43.5046
    Octopole Moments (Debye-Ang^2)
       XXX    -409.8470    XXY     176.1836    XYY    -137.1188
       YYY     216.5662    XXZ       1.2618    XYZ      -0.5197
       YYZ       0.6484    XZZ     -58.5633    YZZ      55.3087
       ZZZ       0.9292
    Hexadecapole Moments (Debye-Ang^3)
      XXXX   -2789.0330   XXXY    1092.6905   XXYY    -781.2699
      XYYY     665.4876   YYYY    -981.5820   XXXZ       7.9693
      XXYZ      -3.3813   XYYZ       2.6490   YYYZ      -3.1072
      XXZZ    -305.4643   XYZZ     150.1972   YYZZ    -158.9824
      XZZZ       3.4582   YZZZ      -2.1832   ZZZZ    -106.5772
 -----------------------------------------------------------------
[HyperChem begin]
;Total dipole moment in Debye
[dipole-moment]
     10.915184178012
;Dipole moment components in Debye
[dipole-moment-components]
     -9.985289488752      4.408373772298      0.038472710640
[HyperChem end]
[HyperChem begin]
[HyperChem end]
[HyperChem begin]
[HyperChem end]
[HyperChem begin]
[HyperChem end]
 Calculating MO derivatives via CPSCF
 D1JvT checksum  = 429408 24013.021742449
 D1KAT checksum  = 859896 2137.253535163
 D1JvT checksum  = 429408 14124.153737991
 D1KAT checksum  = 859896 872.900243563
 Inaccurate integrated density:
   Number of electrons =    47
   Numerical integral  =    46.978311993905
   Relative error      =    -0.0461446938 %
   1         3          27      0.457204    0.127420
   2         3          27      0.150431    0.044394
   3         3          27      0.044253    0.019305
   4         3          27      0.010488    0.004699
   5         4          26      0.001655    0.000613
   6        16          14      0.000256    0.000104
   7        27           3      0.000035    0.000016
   8        27           3      0.000006    0.000002
   9        30           0      0.000000    0.000000    Roots Converged
 Time for AOints: 28.5 s (CPU) 3.1 s (wall)
 ------------------------------------------------------------------------------
                     AOints        : Timing summary (seconds)
 ------------------------------------------------------------------------------
     job step          cpu (% of tot)      sys (% of tot)     wall (% of tot)
 ------------------------------------------------------------------------------
  cpscf_lag         0.2184E+03 (33.4)   0.1520E-03 (27.3)   0.1005E+03 (42.9)
  iterzp            0.4068E+03 (62.2)   0.3420E-03 (61.5)   0.1306E+03 (55.7)
  make_fx           0.0000E+00 ( 0.0)   0.0000E+00 ( 0.0)   0.0000E+00 ( 0.0)
  AOints            0.2851E+02 ( 4.4)   0.5800E-04 (10.4)   0.3068E+01 ( 1.3)
 ------------------------------------------------------------------------------
   Grand Totals     0.6544E+03          0.5560E-03          0.2343E+03
 ------------------------------------------------------------------------------
 Calculating analytic Hessian of the SCF energy
 Polarizability Matrix (a.u.)
            1           2           3
    1-230.0734393 -24.3014918  -0.1835214
    2 -24.3014918-274.7360979   0.0764909
    3  -0.1835214   0.0764909-295.6466182
 Inaccurate integrated density:
   Number of electrons =    47
   Numerical integral  =    46.978311993905
   Relative error      =    -0.0461446938 %
atom: 0 element: 8
atom: 1 element: 6
atom: 2 element: 6
atom: 3 element: 8
atom: 4 element: 8
atom: 5 element: 6
atom: 6 element: 3
atom: 7 element: 1
atom: 8 element: 1
 
 Direct stationary perturbation theory relativistic correction:
 
 rels  =       0.118646246090
 relv  =      -0.526829421738
 rel2e =       0.000000000000
 E_rel =      -0.408183175648
 
 Hessian of the SCF Energy
            1           2           3           4           5           6
    1   0.4866013  -0.0080818  -0.0014292  -0.1274857   0.0085020   0.0002008
    2  -0.0080818   0.4712185   0.0007951  -0.0089307  -0.2338447  -0.0002444
    3  -0.0014292   0.0007951   0.0712712   0.0001561  -0.0003235  -0.0784340
    4  -0.1274857  -0.0089307   0.0001561   1.0914671  -0.2602067  -0.0034791
    5   0.0085020  -0.2338447  -0.0003235  -0.2602067   0.6162363   0.0015932
    6   0.0002008  -0.0002444  -0.0784340  -0.0034791   0.0015932   0.2190966
    7  -0.2528236   0.0144614   0.0007192  -0.0156524   0.0933958   0.0002612
    8  -0.0250031  -0.0975604  -0.0000027   0.0357673  -0.0361403  -0.0002082
    9   0.0006375  -0.0001407  -0.0501729   0.0001522  -0.0003946   0.0067469
   10  -0.0157939   0.0535056   0.0002149  -0.6506836   0.2474868   0.0024273
   11   0.0704282  -0.0465292  -0.0003588   0.2473909  -0.1981028  -0.0010711
   12   0.0002468  -0.0003013   0.0172983   0.0024202  -0.0010696  -0.0761492
   13   0.0072179  -0.0789466  -0.0001250  -0.1849247  -0.0615645   0.0002312
   14  -0.0019876  -0.0679567  -0.0001566  -0.0439808  -0.1760606  -0.0000126
   15   0.0000139   0.0000942   0.0146789   0.0002840   0.0000540  -0.0788209
   16  -0.0908703   0.0015312   0.0003623  -0.0913703  -0.0330842   0.0002782
   17  -0.0360887  -0.0311657   0.0000270   0.0244447   0.0391565  -0.0000177
   18   0.0002907  -0.0000993   0.0173740   0.0003827   0.0001732   0.0067494
   19   0.0031622  -0.0053807  -0.0000210  -0.0149558   0.0061816   0.0000585
   20  -0.0008270   0.0021755   0.0000068   0.0061982  -0.0036538  -0.0000261
   21  -0.0000101   0.0000189   0.0000881   0.0000554  -0.0000246  -0.0000406
   22  -0.0136291   0.0332514   0.0001040  -0.0070421  -0.0063247   0.0000127
   23  -0.0029241   0.0062455   0.0000251  -0.0014428   0.0000326   0.0000039
   24   0.0000343  -0.0001020  -0.0021461   0.0000258   0.0000238   0.0004245
   25   0.0036214  -0.0014098   0.0000186   0.0006477   0.0056139   0.0000092
   26  -0.0040181  -0.0025827  -0.0000125   0.0007599  -0.0076231  -0.0000169
   27   0.0000154  -0.0000205   0.0100425   0.0000027  -0.0000319   0.0004272
            7           8           9          10          11          12
    1  -0.2528236  -0.0250031   0.0006375  -0.0157939   0.0704282   0.0002468
    2   0.0144614  -0.0975604  -0.0001407   0.0535056  -0.0465292  -0.0003013
    3   0.0007192  -0.0000027  -0.0501729   0.0002149  -0.0003588   0.0172983
    4  -0.0156524   0.0357673   0.0001522  -0.6506836   0.2473909   0.0024202
    5   0.0933958  -0.0361403  -0.0003946   0.2474868  -0.1981028  -0.0010696
    6   0.0002612  -0.0002082   0.0067469   0.0024273  -0.0010711  -0.0761492
    7   0.5591377  -0.0033540  -0.0015176  -0.0055770  -0.0092855   0.0000076
    8  -0.0033540   1.0268061   0.0017730   0.0018068  -0.0044792  -0.0000194
    9  -0.0015176   0.0017730   0.1127063   0.0000296   0.0000199   0.0023649
   10  -0.0055770   0.0018068   0.0000296   0.7870555  -0.3065462  -0.0031230
   11  -0.0092855  -0.0044792   0.0000199  -0.3065462   0.2264421   0.0013961
   12   0.0000076  -0.0000194   0.0023649  -0.0031230   0.0013961   0.0354597
   13  -0.0412389   0.0467531   0.0002898  -0.0945007  -0.0181136   0.0003436
   14   0.0091119  -0.0808332  -0.0002236  -0.0013123   0.0319103   0.0000300
   15   0.0002191  -0.0003535   0.0174007   0.0003712   0.0000865   0.0173274
   16  -0.1501062  -0.1581435  -0.0000217  -0.0012524   0.0057539   0.0000235
   17  -0.1970078  -0.4754200  -0.0001588  -0.0053316  -0.0087932  -0.0000010
   18  -0.0000975  -0.0002835  -0.0615631   0.0000024  -0.0000384   0.0023763
   19  -0.0004611  -0.0003196   0.0000010  -0.0169180   0.0080189   0.0000634
   20   0.0002060   0.0000201  -0.0000007   0.0080463  -0.0024112  -0.0000272
   21   0.0000018   0.0000009   0.0000436   0.0000606  -0.0000260  -0.0003260
   22  -0.0937051   0.1004146   0.0004213  -0.0010128   0.0030273   0.0000118
   23   0.1116452  -0.3388745  -0.0009502  -0.0004030   0.0008380   0.0000012
   24   0.0004425  -0.0009079  -0.0286732   0.0000050  -0.0000109   0.0008255
   25   0.0004265   0.0020784   0.0000078  -0.0013170  -0.0006741   0.0000060
   26  -0.0191731   0.0064816   0.0000758   0.0027477   0.0011252  -0.0000088
   27  -0.0000364   0.0000013   0.0011467   0.0000120   0.0000027   0.0008229
           13          14          15          16          17          18
    1   0.0072179  -0.0019876   0.0000139  -0.0908703  -0.0360887   0.0002907
    2  -0.0789466  -0.0679567   0.0000942   0.0015312  -0.0311657  -0.0000993
    3  -0.0001250  -0.0001566   0.0146789   0.0003623   0.0000270   0.0173740
    4  -0.1849247  -0.0439808   0.0002840  -0.0913703   0.0244447   0.0003827
    5  -0.0615645  -0.1760606   0.0000540  -0.0330842   0.0391565   0.0001732
    6   0.0002312  -0.0000126  -0.0788209   0.0002782  -0.0000177   0.0067494
    7  -0.0412389   0.0091119   0.0002191  -0.1501062  -0.1970078  -0.0000975
    8   0.0467531  -0.0808332  -0.0003535  -0.1581435  -0.4754200  -0.0002835
    9   0.0002898  -0.0002236   0.0174007  -0.0000217  -0.0001588  -0.0615631
   10  -0.0945007  -0.0013123   0.0003712  -0.0012524  -0.0053316   0.0000024
   11  -0.0181136   0.0319103   0.0000865   0.0057539  -0.0087932  -0.0000384
   12   0.0003436   0.0000300   0.0173274   0.0000235  -0.0000010   0.0023763
   13   0.4853539  -0.0095704  -0.0014324  -0.1625888   0.0972157   0.0005928
   14  -0.0095704   0.4705651   0.0007769   0.0577178  -0.1858486  -0.0004461
   15  -0.0014324   0.0007769   0.0716261   0.0005061  -0.0005763  -0.0502390
   16  -0.1625888   0.0577178   0.0005061   0.8155878   0.2333202  -0.0019171
   17   0.0972157  -0.1858486  -0.0005763   0.2333202   0.7679484   0.0004806
   18   0.0005928  -0.0004461  -0.0502390  -0.0019171   0.0004806   0.1122281
   19   0.0057024   0.0015280  -0.0000164  -0.0001411   0.0004961   0.0000018
   20  -0.0030670  -0.0003840   0.0000097  -0.0000308  -0.0002960  -0.0000006
   21  -0.0000210  -0.0000053   0.0000932   0.0000004  -0.0000020   0.0000421
   22   0.0029813  -0.0046445   0.0000131   0.0122343  -0.0083683  -0.0000532
   23  -0.0020212  -0.0019200  -0.0000178   0.0129259  -0.0053957  -0.0000540
   24   0.0000155  -0.0000072   0.0100705  -0.0000121   0.0000135   0.0011373
   25  -0.0180024  -0.0068620   0.0000415  -0.3314929  -0.1086801   0.0007975
   26   0.0293146   0.0105277  -0.0000737  -0.1199904  -0.1001856   0.0002682
   27   0.0001055   0.0000445  -0.0021369   0.0007803   0.0002347  -0.0281051
           19          20          21          22          23          24
    1   0.0031622  -0.0008270  -0.0000101  -0.0136291  -0.0029241   0.0000343
    2  -0.0053807   0.0021755   0.0000189   0.0332514   0.0062455  -0.0001020
    3  -0.0000210   0.0000068   0.0000881   0.0001040   0.0000251  -0.0021461
    4  -0.0149558   0.0061982   0.0000554  -0.0070421  -0.0014428   0.0000258
    5   0.0061816  -0.0036538  -0.0000246  -0.0063247   0.0000326   0.0000238
    6   0.0000585  -0.0000261  -0.0000406   0.0000127   0.0000039   0.0004245
    7  -0.0004611   0.0002060   0.0000018  -0.0937051   0.1116452   0.0004425
    8  -0.0003196   0.0000201   0.0000009   0.1004146  -0.3388745  -0.0009079
    9   0.0000010  -0.0000007   0.0000436   0.0004213  -0.0009502  -0.0286732
   10  -0.0169180   0.0080463   0.0000606  -0.0010128  -0.0004030   0.0000050
   11   0.0080189  -0.0024112  -0.0000260   0.0030273   0.0008380  -0.0000109
   12   0.0000634  -0.0000272  -0.0003260   0.0000118   0.0000012   0.0008255
   13   0.0057024  -0.0030670  -0.0000210   0.0029813  -0.0020212   0.0000155
   14   0.0015280  -0.0003840  -0.0000053  -0.0046445  -0.0019200  -0.0000072
   15  -0.0000164   0.0000097   0.0000932   0.0000131  -0.0000178   0.0100705
   16  -0.0001411  -0.0000308   0.0000004   0.0122343   0.0129259  -0.0000121
   17   0.0004961  -0.0002960  -0.0000020  -0.0083683  -0.0053957   0.0000135
   18   0.0000018  -0.0000006   0.0000421  -0.0000532  -0.0000540   0.0011373
   19   0.0233166  -0.0103883  -0.0000859   0.0002071   0.0000535  -0.0000006
   20  -0.0103883   0.0045036   0.0000376  -0.0000821  -0.0000365   0.0000002
   21  -0.0000859   0.0000376   0.0001439  -0.0000008  -0.0000002  -0.0000221
   22   0.0002071  -0.0000821  -0.0000008   0.1002170  -0.1175470  -0.0005016
   23   0.0000535  -0.0000365  -0.0000002  -0.1175470   0.3393768   0.0009866
   24  -0.0000006   0.0000002  -0.0000221  -0.0005016   0.0009866   0.0209986
   25   0.0000877  -0.0000553  -0.0000004  -0.0002505  -0.0002865  -0.0000087
   26  -0.0001895   0.0000825   0.0000007   0.0002733  -0.0002661   0.0000038
   27  -0.0000007   0.0000004  -0.0000222  -0.0000072   0.0000054  -0.0026151
           25          26          27
    1   0.0036214  -0.0040181   0.0000154
    2  -0.0014098  -0.0025827  -0.0000205
    3   0.0000186  -0.0000125   0.0100425
    4   0.0006477   0.0007599   0.0000027
    5   0.0056139  -0.0076231  -0.0000319
    6   0.0000092  -0.0000169   0.0004272
    7   0.0004265  -0.0191731  -0.0000364
    8   0.0020784   0.0064816   0.0000013
    9   0.0000078   0.0000758   0.0011467
   10  -0.0013170   0.0027477   0.0000120
   11  -0.0006741   0.0011252   0.0000027
   12   0.0000060  -0.0000088   0.0008229
   13  -0.0180024   0.0293146   0.0001055
   14  -0.0068620   0.0105277   0.0000445
   15   0.0000415  -0.0000737  -0.0021369
   16  -0.3314929  -0.1199904   0.0007803
   17  -0.1086801  -0.1001856   0.0002347
   18   0.0007975   0.0002682  -0.0281051
   19   0.0000877  -0.0001895  -0.0000007
   20  -0.0000553   0.0000825   0.0000004
   21  -0.0000004   0.0000007  -0.0000222
   22  -0.0002505   0.0002733  -0.0000072
   23  -0.0002865  -0.0002661   0.0000054
   24  -0.0000087   0.0000038  -0.0026151
   25   0.3462793   0.1102756  -0.0008715
   26   0.1102756   0.0924405  -0.0002366
   27  -0.0008715  -0.0002366   0.0204399
 Gradient time:  CPU 879.44 s  wall 386.55 s
[HyperChem begin]
[HyperChem end]
 **********************************************************************
 **                                                                  **
 **                       VIBRATIONAL ANALYSIS                       **
 **                       --------------------                       **
 **                                                                  **
 **        VIBRATIONAL FREQUENCIES (CM**-1) AND NORMAL MODES         **
 **     FORCE CONSTANTS (mDYN/ANGSTROM) AND REDUCED MASSES (AMU)     **
 **                  INFRARED INTENSITIES (KM/MOL)                   **
 **                                                                  **
 **********************************************************************
 

 Symmetry:           ???                    ???                    ???

 Mode:                 1                      2                      3
 Frequency:       -28.70                  35.22                 260.83
 Force Cnst:      0.0037                 0.0056                 0.2801
 Red. Mass:       7.7205                 7.6959                 6.9877
 IR Active:          YES                    YES                    YES
 IR Intens:       32.454                 50.439                 12.008
 Raman Active:       YES                    YES                    YES
               X      Y      Z        X      Y      Z        X      Y      Z
 O          0.102 -0.105 -0.001   -0.001  0.001 -0.054   -0.001  0.001 -0.314
 C         -0.062 -0.139 -0.001   -0.000  0.001 -0.184   -0.001  0.000 -0.143
 C          0.118  0.065  0.001   -0.000 -0.001  0.175    0.001 -0.000  0.221
 O         -0.128 -0.289 -0.002   -0.000  0.002 -0.382    0.001 -0.001  0.340
 O         -0.147  0.004 -0.000    0.001  0.000 -0.056   -0.001  0.001 -0.314
 C         -0.031  0.131  0.001    0.001 -0.001  0.174    0.001 -0.000  0.220
 Li         0.328  0.739  0.005    0.000 -0.006  0.750    0.000 -0.000 -0.008
 H          0.242  0.115  0.002   -0.000 -0.001  0.309    0.002 -0.001  0.530
 H         -0.079  0.259  0.003    0.002 -0.002  0.310    0.002 -0.001  0.537
 TransDip  -0.073 -0.167 -0.001   -0.000  0.001 -0.227    0.000 -0.000  0.111

 Symmetry:           ???                    ???                    ???

 Mode:                 4                      5                      6
 Frequency:       326.46                 528.43                 582.68
 Force Cnst:      0.4511                 1.4549                 0.7797
 Red. Mass:       7.1846                 8.8431                 3.8980
 IR Active:          YES                    YES                    YES
 IR Intens:       21.410                  4.450                  0.003
 Raman Active:       YES                    YES                    YES
               X      Y      Z        X      Y      Z        X      Y      Z
 O         -0.091  0.039  0.000    0.041 -0.288 -0.001   -0.001  0.000 -0.184
 C         -0.038  0.017  0.000   -0.108 -0.243 -0.000   -0.000 -0.000 -0.000
 C         -0.093  0.040  0.000    0.193  0.028 -0.001    0.001 -0.001  0.294
 O         -0.028  0.012 -0.000    0.199  0.454  0.000    0.000  0.000  0.000
 O         -0.090  0.041  0.000   -0.241 -0.167  0.001    0.001 -0.000  0.183
 C         -0.092  0.041  0.000   -0.108  0.161  0.001   -0.001  0.001 -0.291
 Li         0.885 -0.392 -0.003    0.006  0.012 -0.000   -0.000  0.000  0.000
 H         -0.095  0.040  0.000    0.444  0.132 -0.001    0.002 -0.001  0.607
 H         -0.093  0.042  0.000   -0.206  0.425  0.002   -0.002  0.001 -0.626
 TransDip   0.135 -0.061 -0.001    0.028  0.062  0.000   -0.000  0.000 -0.002

 Symmetry:           ???                    ???                    ???

 Mode:                 7                      8                      9
 Frequency:       746.98                 780.40                 801.84
 Force Cnst:      0.4840                 4.1544                 1.6963
 Red. Mass:       1.4721                11.5777                 4.4778
 IR Active:          YES                    YES                    YES
 IR Intens:       79.465                 25.886                  0.294
 Raman Active:       YES                    YES                    YES
               X      Y      Z        X      Y      Z        X      Y      Z
 O         -0.000 -0.000 -0.020   -0.237 -0.256  0.000   -0.001  0.000 -0.152
 C          0.001 -0.000  0.157    0.308 -0.138 -0.002    0.002 -0.001  0.462
 C         -0.000  0.000 -0.080   -0.286  0.115  0.001    0.000 -0.000  0.091
 O         -0.000  0.000 -0.039    0.444 -0.194 -0.002   -0.000  0.000 -0.116
 O         -0.000  0.000 -0.018    0.027  0.346  0.001   -0.001  0.000 -0.153
 C         -0.000  0.000 -0.091   -0.279  0.136  0.001    0.000 -0.000  0.108
 Li        -0.000  0.000 -0.000   -0.096  0.044  0.000   -0.000  0.000 -0.000
 H          0.003 -0.001  0.669    0.129  0.293 -0.000   -0.002  0.001 -0.555
 H          0.002 -0.001  0.715   -0.126 -0.297 -0.001   -0.002  0.001 -0.631
 TransDip   0.001 -0.000  0.286   -0.149  0.066  0.000   -0.000  0.000  0.017

 Symmetry:           ???                    ???                    ???

 Mode:                10                     11                     12
 Frequency:       865.80                 928.90                 970.53
 Force Cnst:      0.5933                 4.2537                 2.6615
 Red. Mass:       1.3433                 8.3671                 4.7957
 IR Active:          YES                    YES                    YES
 IR Intens:        0.083                  8.178                 14.137
 Raman Active:       YES                    YES                    YES
               X      Y      Z        X      Y      Z        X      Y      Z
 O          0.000 -0.000  0.001   -0.310 -0.045  0.001    0.077  0.283  0.000
 C         -0.000  0.000 -0.003   -0.077 -0.177 -0.000    0.138 -0.056 -0.001
 C         -0.000  0.000 -0.128   -0.117  0.408  0.001   -0.102  0.034  0.000
 O         -0.000  0.000  0.001   -0.015 -0.038 -0.000    0.200 -0.089 -0.001
 O          0.000 -0.000  0.002    0.174 -0.265 -0.001   -0.159 -0.246  0.000
 C          0.000 -0.000  0.119    0.378  0.191 -0.001   -0.096  0.047  0.000
 Li         0.000 -0.000  0.000   -0.001 -0.001 -0.000   -0.042  0.018  0.000
 H          0.003 -0.001  0.729   -0.210  0.398  0.002   -0.577 -0.149  0.002
 H         -0.002  0.001 -0.661    0.431  0.123 -0.001   -0.292  0.542  0.002
 TransDip   0.000 -0.000  0.009    0.038  0.083  0.000    0.111 -0.048 -0.000

 Symmetry:           ???                    ???                    ???

 Mode:                13                     14                     15
 Frequency:      1094.24                1125.59                1149.04
 Force Cnst:      3.5178                 1.4527                 1.8239
 Red. Mass:       4.9865                 1.9461                 2.3447
 IR Active:          YES                    YES                    YES
 IR Intens:        2.585                 21.314                 54.129
 Raman Active:       YES                    YES                    YES
               X      Y      Z        X      Y      Z        X      Y      Z
 O         -0.222  0.141  0.001   -0.115 -0.040  0.000   -0.030 -0.095 -0.000
 C         -0.034 -0.078 -0.000    0.024  0.018 -0.000    0.114  0.266  0.000
 C          0.265 -0.128 -0.001    0.084 -0.113 -0.001   -0.066  0.009  0.000
 O         -0.016 -0.037 -0.000    0.019 -0.011 -0.000   -0.018 -0.027  0.000
 O          0.251 -0.060 -0.001   -0.064  0.099  0.000   -0.027 -0.106 -0.000
 C         -0.262  0.110  0.001    0.158  0.001 -0.000    0.014 -0.042 -0.000
 Li        -0.000 -0.001  0.000   -0.004  0.002  0.000    0.000 -0.001  0.000
 H          0.555 -0.017 -0.002   -0.500 -0.372  0.001    0.657  0.303 -0.002
 H         -0.401  0.468  0.002   -0.094  0.727  0.001   -0.218  0.561  0.002
 TransDip   0.022  0.046 -0.000    0.142 -0.040 -0.001    0.069  0.225  0.000

 Symmetry:           ???                    ???                    ???

 Mode:                16                     17                     18
 Frequency:      1210.46                1389.65                1695.35
 Force Cnst:      2.3362                 2.7564                 9.5213
 Red. Mass:       2.7061                 2.4226                 5.6224
 IR Active:          YES                    YES                    YES
 IR Intens:      204.042                 17.958                  0.071
 Raman Active:       YES                    YES                    YES
               X      Y      Z        X      Y      Z        X      Y      Z
 O          0.148 -0.128 -0.001   -0.053 -0.089  0.000    0.029  0.032 -0.000
 C         -0.039  0.007  0.000    0.086  0.196  0.000    0.022 -0.011 -0.000
 C         -0.142  0.026  0.000    0.160  0.023 -0.001   -0.237 -0.389  0.000
 O         -0.067  0.031  0.000   -0.011 -0.024 -0.000   -0.024  0.011  0.000
 O          0.195 -0.015 -0.001   -0.028 -0.098 -0.000   -0.003 -0.042 -0.000
 C         -0.113  0.085  0.001   -0.089  0.139  0.001    0.127  0.435  0.000
 Li         0.011 -0.005 -0.000   -0.000 -0.000  0.000    0.001 -0.000 -0.000
 H         -0.652 -0.171  0.002   -0.606 -0.298  0.002    0.508 -0.196 -0.002
 H         -0.306  0.572  0.002    0.189 -0.622 -0.002    0.485 -0.224 -0.002
 TransDip  -0.422  0.178  0.002    0.053  0.125  0.000   -0.008  0.003  0.000

 Symmetry:           ???                    ???                    ???

 Mode:                19                     20                     21
 Frequency:      1916.48                3317.62                3343.09
 Force Cnst:     27.8533                 7.0791                 7.3648
 Red. Mass:      12.8711                 1.0916                 1.1184
 IR Active:          YES                    YES                    YES
 IR Intens:     1266.099                 15.562                  3.948
 Raman Active:       YES                    YES                    YES
               X      Y      Z        X      Y      Z        X      Y      Z
 O         -0.044  0.022  0.000    0.001 -0.000 -0.000    0.002 -0.000 -0.000
 C          0.784 -0.346 -0.003    0.001  0.002  0.000    0.002 -0.001 -0.000
 C         -0.008  0.044  0.000    0.024 -0.057 -0.000   -0.019  0.068  0.000
 O         -0.453  0.200  0.002   -0.000 -0.000 -0.000   -0.000  0.000  0.000
 O         -0.046  0.018  0.000   -0.001  0.000  0.000    0.001 -0.001 -0.000
 C         -0.039 -0.024  0.000   -0.058 -0.021  0.000   -0.063 -0.032  0.000
 Li        -0.005  0.002  0.000   -0.000 -0.000 -0.000    0.000  0.000  0.000
 H         -0.056  0.051  0.000   -0.268  0.654  0.002    0.259 -0.652 -0.002
 H         -0.076  0.005  0.000    0.658  0.246 -0.002    0.659  0.253 -0.002
 TransDip   1.042 -0.461 -0.004    0.051  0.116  0.000    0.058 -0.025 -0.000

 STANDARD THERMODYNAMIC QUANTITIES AT   298.15 K  AND     1.00 ATM

   This Molecule has  1 Imaginary Frequencies
   Zero point vibrational energy:       32.980 kcal/mol

   Atom    1 Element O  Has Mass   15.99491
   Atom    2 Element C  Has Mass   12.00000
   Atom    3 Element C  Has Mass   12.00000
   Atom    4 Element O  Has Mass   15.99491
   Atom    5 Element O  Has Mass   15.99491
   Atom    6 Element C  Has Mass   12.00000
   Atom    7 Element Li Has Mass    7.01600
   Atom    8 Element H  Has Mass    1.00783
   Atom    9 Element H  Has Mass    1.00783
   Molecular Mass:    93.016390 amu
   Principal axes and moments of inertia in amu*Bohr^2:
                             1           2           3
    Eigenvalues --      188.28222   767.40284   955.68503
          X               0.91487     0.40374     0.00325
          Y              -0.40374     0.91487    -0.00188
          Z              -0.00373     0.00041     0.99999
   Rotational Symmetry Number is   1
   The Molecule is an Asymmetric Top
   Translational Enthalpy:        0.889 kcal/mol
   Rotational Enthalpy:           0.889 kcal/mol
   Vibrational Enthalpy:         34.613 kcal/mol
   gas constant (RT):             0.592 kcal/mol
   Translational Entropy:        39.502  cal/mol.K
   Rotational Entropy:           26.426  cal/mol.K
   Vibrational Entropy:          10.827  cal/mol.K

   Total Enthalpy:               36.983 kcal/mol
   Total Entropy:                76.755  cal/mol.K
Archival summary:
1\1\nid00524\FREQ\ProcedureUnspecified\BasisUnspecified\33i12(2)\sblau\TueApr1717:30:442018TueApr1717:30:442018\0\\#,FREQ,ProcedureUnspecified,BasisUnspecified,\\0,2\O\C,1,1.34054\O,2,1.19595,1,125.38\O,2,1.34057,1,109.174,3,-179.987,0\C,1,1.37902,2,107.235,3,179.997,0\H,5,1.07465,1,117.558,2,179.994,0\C,5,1.3244,1,108.178,2,-0.0120463,0\H,7,1.07463,5,134.135,1,-179.998,0\Li,3,1.93115,2,179.848,1,-10.6643,0\\\@

 Total job time:  397.01s(wall), 995.25s(cpu) 
 Tue Apr 17 17:30:44 2018

        *************************************************************
        *                                                           *
        *  Thank you very much for using Q-Chem.  Have a nice day.  *
        *                                                           *
        *************************************************************


0 sent ACK to 0 
now end server 0 ... 
cleanup process ... done
