
Running Job 1 of 1 test.qin
qchem test.qin_40161.0 /tmp/qchem40161/ 1
srun -n 1 /global/common/cori/software/qchem/5.1beta/exe/qcprog.exe test.qin_40161.0 /tmp/qchem40161/

Process 0 of 1 is on nid00524 - thread support 0
initial socket setup ...start
initial socket setup ...done 
now start server 0 ... 
Check license passed

                  Welcome to Q-Chem
     A Quantum Leap Into The Future Of Chemistry


 Q-Chem 5.1, Q-Chem, Inc., Pleasanton, CA (2018)

 Yihan Shao,  Zhengting Gan,  E. Epifanovsky,  A. T. B. Gilbert,  M. Wormit,  
 J. Kussmann,  A. W. Lange,  A. Behn,  Jia Deng,  Xintian Feng,  D. Ghosh,  
 M. Goldey,  P. R. Horn,  L. D. Jacobson,  I. Kaliman,  T. Kus,  A. Landau,  
 Jie Liu,  E. I. Proynov,  R. M. Richard,  R. P. Steele,  E. J. Sundstrom,  
 H. L. Woodcock III,  P. M. Zimmerman,  D. Zuev,  B. Albrecht,  E. Alguire,  
 S. A. Baeppler,  D. Barton,  Z. Benda,  Y. A. Bernard,  E. J. Berquist,  
 K. B. Bravaya,  H. Burton,  D. Casanova,  Chun-Min Chang,  Yunqing Chen,  
 A. Chien,  K. D. Closser,  M. P. Coons,  S. Coriani,  S. Dasgupta,  
 A. L. Dempwolff,  M. Diedenhofen,  Hainam Do,  R. G. Edgar,  Po-Tung Fang,  
 S. Faraji,  S. Fatehi,  Qingguo Feng,  K. D. Fenk,  J. Fosso-Tande,  
 Qinghui Ge,  A. Ghysels,  G. Gidofalvi,  J. Gomes,  J. Gonthier,  A. Gunina,  
 M. W. D. Hanson-Heine,  P. H. P. Harbach,  A. W. Hauser,  J. E. Herr,  
 E. G. Hohenstein,  Z. C. Holden,  Kerwin Hui,  T.-C. Jagau,  Hyunjun Ji,  
 B. Kaduk,  K. Khistyaev,  Jaehoon Kim,  P. Klunzinger,  K. Koh,  
 D. Kosenkov,  L. Koulias,  T. Kowalczyk,  C. M. Krauter,  A. Kunitsa,  
 Ka Un Lao,  A. Laurent,  K. V. Lawler,  Joonho Lee,  D. Lefrancois,  
 S. Lehtola,  D. S. Levine,  Yi-Pei Li,  You-Sheng Lin,  Fenglai Liu,  
 E. Livshits,  A. Luenser,  P. Manohar,  E. Mansoor,  S. F. Manzer,  
 Shan-Ping Mao,  Yuezhi Mao,  N. Mardirossian,  A. V. Marenich,  
 T. Markovich,  L. A. Martinez-Martinez,  S. A. Maurer,  N. J. Mayhall,  
 S. C. McKenzie,  J.-M. Mewes,  A. F. Morrison,  J. W. Mullinax,  K. Nanda,  
 T. S. Nguyen-Beck,  R. Olivares-Amaya,  J. A. Parkhill,  T. M. Perrine,  
 F. Plasser,  P. Pokhilko,  S. Prager,  A. Prociuk,  E. Ramos,  D. R. Rehn,  
 F. Rob,  M. Schneider,  N. Sergueev,  S. M. Sharada,  S. Sharma,  
 D. W. Small,  T. Stauch,  T. Stein,  Yu-Chuan Su,  A. J. W. Thom,  
 A. Tkatchenko,  T. Tsuchimochi,  N. M. Tubman,  L. Vogt,  M. L. Vidal,  
 O. Vydrov,  M. A. Watson,  J. Wenzel,  M. de Wergifosse,  T. A. Wesolowski,  
 A. White,  J. Witte,  A. Yamada,  Jun Yang,  K. Yao,  S. Yeganeh,  
 S. R. Yost,  Zhi-Qiang You,  A. Zech,  Igor Ying Zhang,  Xing Zhang,  
 Yan Zhao,  Ying Zhu,  B. R. Brooks,  G. K. L. Chan,  C. J. Cramer,  
 M. S. Gordon,  W. J. Hehre,  A. Klamt,  M. W. Schmidt,  C. D. Sherrill,  
 D. G. Truhlar,  A. Aspuru-Guzik,  R. Baer,  A. T. Bell,  N. A. Besley,  
 Jeng-Da Chai,  R. A. DiStasio Jr.,  A. Dreuw,  B. D. Dunietz,  
 T. R. Furlani,  Chao-Ping Hsu,  Yousung Jung,  Jing Kong,  D. S. Lambrecht,  
 WanZhen Liang,  C. Ochsenfeld,  V. A. Rassolov,  L. V. Slipchenko,  
 J. E. Subotnik,  T. Van Voorhis,  J. M. Herbert,  A. I. Krylov,  
 P. M. W. Gill,  M. Head-Gordon

 Contributors to earlier versions of Q-Chem not listed above: 
 R. D. Adamson,  B. Austin,  J. Baker,  G. J. O. Beran,  K. Brandhorst,  
 S. T. Brown,  E. F. C. Byrd,  A. K. Chakraborty,  C.-L. Cheng,  
 Siu Hung Chien,  D. M. Chipman,  D. L. Crittenden,  H. Dachsel,  
 R. J. Doerksen,  A. D. Dutoi,  L. Fusti-Molnar,  W. A. Goddard III,  
 A. Golubeva-Zadorozhnaya,  S. R. Gwaltney,  G. Hawkins,  A. Heyden,  
 S. Hirata,  G. Kedziora,  F. J. Keil,  C. Kelley,  Jihan Kim,  R. A. King,  
 R. Z. Khaliullin,  P. P. Korambath,  W. Kurlancheek,  A. M. Lee,  M. S. Lee,  
 S. V. Levchenko,  Ching Yeh Lin,  D. Liotard,  R. C. Lochan,  I. Lotan,  
 P. E. Maslen,  N. Nair,  D. P. O'Neill,  D. Neuhauser,  E. Neuscamman,  
 C. M. Oana,  R. Olson,  B. Peters,  R. Peverati,  P. A. Pieniazek,  
 Y. M. Rhee,  J. Ritchie,  M. A. Rohrdanz,  E. Rosta,  N. J. Russ,  
 H. F. Schaefer III,  N. E. Schultz,  N. Shenvi,  A. C. Simmonett,  A. Sodt,  
 D. Stuck,  K. S. Thanthiriwatte,  V. Vanovschi,  Tao Wang,  A. Warshel,  
 C. F. Williams,  Q. Wu,  X. Xu,  W. Zhang

 Please cite Q-Chem as follows:
 Y. Shao et al., Mol. Phys. 113, 184-215 (2015)
 DOI: 10.1080/00268976.2014.952696

 Q-Chem 5.1.0 for Intel X86 EM64T Linux

 Parts of Q-Chem use Armadillo 8.300.2 (Tropical Shenanigans).
 http://arma.sourceforge.net/

 Q-Chem begins on Tue Apr 17 17:31:56 2018  

Host: cori12
0

     Scratch files written to /tmp/qchem40161//
 Mar1918  _RNUM -1
 Parallel job on  1  processors
Processing $rem in /global/common/cori/software/qchem/5.1beta/config/preferences.
 MEM_TOTAL  2000 

Checking the input file for inconsistencies... 	...done.
[HyperChem begin]
[HyperChem end]
[HyperChem begin]
[HyperChem end]
[HyperChem begin]
[HyperChem end]
[HyperChem begin]
[HyperChem end]
[HyperChem begin]
[HyperChem end]
[HyperChem begin]
[HyperChem end]
[HyperChem begin]
[HyperChem end]
[HyperChem begin]
[HyperChem end]

--------------------------------------------------------------
User input:
--------------------------------------------------------------
$molecule
0 2
O      0.8779337884      0.1045304172     -0.0027678592
C      1.0853313527     -1.2199936882     -0.0065929103
C     -0.4866703097      0.3041532442      0.0020446440
O      2.1541186567     -1.7578077803     -0.0118119962
O     -0.0972679529     -1.8511128514     -0.0042766824
C     -1.0774970281     -0.8811613352      0.0019012090
Li      4.0533658887     -2.1319067492     -0.0158289800
H     -0.8425954436      1.3182233094      0.0053798436
H     -2.1014518465     -1.2075124896      0.0049210606
$end

$rem
BASIS = 6-311++G**
SYM_IGNORE = true
GUI = 1
METHOD = wb97xd
JOB_TYPE = freq
gen_scfman = True
$end
--------------------------------------------------------------
 ----------------------------------------------------------------
             Standard Nuclear Orientation (Angstroms)
    I     Atom           X                Y                Z
 ----------------------------------------------------------------
    1      O       0.8779337884     0.1045304172    -0.0027678592
    2      C       1.0853313527    -1.2199936882    -0.0065929103
    3      C      -0.4866703097     0.3041532442     0.0020446440
    4      O       2.1541186567    -1.7578077803    -0.0118119962
    5      O      -0.0972679529    -1.8511128514    -0.0042766824
    6      C      -1.0774970281    -0.8811613352     0.0019012090
    7      Li      4.0533658887    -2.1319067492    -0.0158289800
    8      H      -0.8425954436     1.3182233094     0.0053798436
    9      H      -2.1014518465    -1.2075124896     0.0049210606
 ----------------------------------------------------------------
 Nuclear Repulsion Energy =   251.3156635708 hartrees
 There are       24 alpha and       23 beta electrons
[HyperChem begin]
[HyperChem end]
[HyperChem begin]
;Nuclear Cartesian coordinates in Angstroms
[coordinates]
      0.877933788400      0.104530417200     -0.002767859200
      1.085331352700     -1.219993688200     -0.006592910300
     -0.486670309700      0.304153244200      0.002044644000
      2.154118656700     -1.757807780300     -0.011811996200
     -0.097267952900     -1.851112851400     -0.004276682400
     -1.077497028100     -0.881161335200      0.001901209000
      4.053365888700     -2.131906749200     -0.015828980000
     -0.842595443600      1.318223309400      0.005379843600
     -2.101451846500     -1.207512489600      0.004921060600
[HyperChem end]
[HyperChem begin]
[HyperChem end]
 Requested basis set is 6-311++G(d,p)
[HyperChem begin]
[basis]
;
1:
;
Shells = 6
Shell1 =[ S   6   1.00 ]
   1    8.588500E+03    1.895150E-03
   2    1.297230E+03    1.438590E-02
   3    2.992960E+02    7.073200E-02
   4    8.737710E+01    2.400010E-01
   5    2.567890E+01    5.947970E-01
   6    3.740040E+00    2.808020E-01
Shell2 =[ SP  3   1.00 ]
   1    4.211750E+01    1.138890E-01    3.651140E-02
   2    9.628370E+00    9.208110E-01    2.371530E-01
   3    2.853320E+00   -3.274470E-03    8.197020E-01
Shell3 =[ SP  1   1.00 ]
   1    9.056610E-01    1.000000E+00    1.000000E+00
Shell4 =[ SP  1   1.00 ]
   1    2.556110E-01    1.000000E+00    1.000000E+00
Shell5 =[ SP  1   1.00 ]
   1    8.450000E-02    1.000000E+00    1.000000E+00
Shell6 =[ D   1   1.00 ]
   1    1.292000E+00    1.000000E+00
;
2:
;
Shells = 6
Shell1 =[ S   6   1.00 ]
   1    4.563240E+03    1.966650E-03
   2    6.820240E+02    1.523060E-02
   3    1.549730E+02    7.612690E-02
   4    4.445530E+01    2.608010E-01
   5    1.302900E+01    6.164620E-01
   6    1.827730E+00    2.210060E-01
Shell2 =[ SP  3   1.00 ]
   1    2.096420E+01    1.146600E-01    4.024870E-02
   2    4.803310E+00    9.199990E-01    2.375940E-01
   3    1.459330E+00   -3.030680E-03    8.158540E-01
Shell3 =[ SP  1   1.00 ]
   1    4.834560E-01    1.000000E+00    1.000000E+00
Shell4 =[ SP  1   1.00 ]
   1    1.455850E-01    1.000000E+00    1.000000E+00
Shell5 =[ SP  1   1.00 ]
   1    4.380000E-02    1.000000E+00    1.000000E+00
Shell6 =[ D   1   1.00 ]
   1    6.260000E-01    1.000000E+00
;
3:
;
Shells = 6
Shell1 =[ S   6   1.00 ]
   1    4.563240E+03    1.966650E-03
   2    6.820240E+02    1.523060E-02
   3    1.549730E+02    7.612690E-02
   4    4.445530E+01    2.608010E-01
   5    1.302900E+01    6.164620E-01
   6    1.827730E+00    2.210060E-01
Shell2 =[ SP  3   1.00 ]
   1    2.096420E+01    1.146600E-01    4.024870E-02
   2    4.803310E+00    9.199990E-01    2.375940E-01
   3    1.459330E+00   -3.030680E-03    8.158540E-01
Shell3 =[ SP  1   1.00 ]
   1    4.834560E-01    1.000000E+00    1.000000E+00
Shell4 =[ SP  1   1.00 ]
   1    1.455850E-01    1.000000E+00    1.000000E+00
Shell5 =[ SP  1   1.00 ]
   1    4.380000E-02    1.000000E+00    1.000000E+00
Shell6 =[ D   1   1.00 ]
   1    6.260000E-01    1.000000E+00
;
4:
;
Shells = 6
Shell1 =[ S   6   1.00 ]
   1    8.588500E+03    1.895150E-03
   2    1.297230E+03    1.438590E-02
   3    2.992960E+02    7.073200E-02
   4    8.737710E+01    2.400010E-01
   5    2.567890E+01    5.947970E-01
   6    3.740040E+00    2.808020E-01
Shell2 =[ SP  3   1.00 ]
   1    4.211750E+01    1.138890E-01    3.651140E-02
   2    9.628370E+00    9.208110E-01    2.371530E-01
   3    2.853320E+00   -3.274470E-03    8.197020E-01
Shell3 =[ SP  1   1.00 ]
   1    9.056610E-01    1.000000E+00    1.000000E+00
Shell4 =[ SP  1   1.00 ]
   1    2.556110E-01    1.000000E+00    1.000000E+00
Shell5 =[ SP  1   1.00 ]
   1    8.450000E-02    1.000000E+00    1.000000E+00
Shell6 =[ D   1   1.00 ]
   1    1.292000E+00    1.000000E+00
;
5:
;
Shells = 6
Shell1 =[ S   6   1.00 ]
   1    8.588500E+03    1.895150E-03
   2    1.297230E+03    1.438590E-02
   3    2.992960E+02    7.073200E-02
   4    8.737710E+01    2.400010E-01
   5    2.567890E+01    5.947970E-01
   6    3.740040E+00    2.808020E-01
Shell2 =[ SP  3   1.00 ]
   1    4.211750E+01    1.138890E-01    3.651140E-02
   2    9.628370E+00    9.208110E-01    2.371530E-01
   3    2.853320E+00   -3.274470E-03    8.197020E-01
Shell3 =[ SP  1   1.00 ]
   1    9.056610E-01    1.000000E+00    1.000000E+00
Shell4 =[ SP  1   1.00 ]
   1    2.556110E-01    1.000000E+00    1.000000E+00
Shell5 =[ SP  1   1.00 ]
   1    8.450000E-02    1.000000E+00    1.000000E+00
Shell6 =[ D   1   1.00 ]
   1    1.292000E+00    1.000000E+00
;
6:
;
Shells = 6
Shell1 =[ S   6   1.00 ]
   1    4.563240E+03    1.966650E-03
   2    6.820240E+02    1.523060E-02
   3    1.549730E+02    7.612690E-02
   4    4.445530E+01    2.608010E-01
   5    1.302900E+01    6.164620E-01
   6    1.827730E+00    2.210060E-01
Shell2 =[ SP  3   1.00 ]
   1    2.096420E+01    1.146600E-01    4.024870E-02
   2    4.803310E+00    9.199990E-01    2.375940E-01
   3    1.459330E+00   -3.030680E-03    8.158540E-01
Shell3 =[ SP  1   1.00 ]
   1    4.834560E-01    1.000000E+00    1.000000E+00
Shell4 =[ SP  1   1.00 ]
   1    1.455850E-01    1.000000E+00    1.000000E+00
Shell5 =[ SP  1   1.00 ]
   1    4.380000E-02    1.000000E+00    1.000000E+00
Shell6 =[ D   1   1.00 ]
   1    6.260000E-01    1.000000E+00
;
7:
;
Shells = 6
Shell1 =[ S   6   1.00 ]
   1    9.004600E+02    2.287040E-03
   2    1.344330E+02    1.763500E-02
   3    3.043650E+01    8.734340E-02
   4    8.626390E+00    2.809770E-01
   5    2.483320E+00    6.587410E-01
   6    3.031790E-01    1.187120E-01
Shell2 =[ SP  3   1.00 ]
   1    4.868900E+00    9.332930E-02    3.276610E-02
   2    8.569240E-01    9.430450E-01    1.597920E-01
   3    2.432270E-01   -2.798270E-03    8.856670E-01
Shell3 =[ SP  1   1.00 ]
   1    6.350700E-02    1.000000E+00    1.000000E+00
Shell4 =[ SP  1   1.00 ]
   1    2.436830E-02    1.000000E+00    1.000000E+00
Shell5 =[ SP  1   1.00 ]
   1    7.400000E-03    1.000000E+00    1.000000E+00
Shell6 =[ D   1   1.00 ]
   1    2.000000E-01    1.000000E+00
;
8:
;
Shells = 5
Shell1 =[ S   3   1.00 ]
   1    3.386500E+01    2.549380E-02
   2    5.094790E+00    1.903730E-01
   3    1.158790E+00    8.521610E-01
Shell2 =[ S   1   1.00 ]
   1    3.258400E-01    1.000000E+00
Shell3 =[ S   1   1.00 ]
   1    1.027410E-01    1.000000E+00
Shell4 =[ S   1   1.00 ]
   1    3.600000E-02    1.000000E+00
Shell5 =[ P   1   1.00 ]
   1    7.500000E-01    1.000000E+00
;
9:
;
Shells = 5
Shell1 =[ S   3   1.00 ]
   1    3.386500E+01    2.549380E-02
   2    5.094790E+00    1.903730E-01
   3    1.158790E+00    8.521610E-01
Shell2 =[ S   1   1.00 ]
   1    3.258400E-01    1.000000E+00
Shell3 =[ S   1   1.00 ]
   1    1.027410E-01    1.000000E+00
Shell4 =[ S   1   1.00 ]
   1    3.600000E-02    1.000000E+00
Shell5 =[ P   1   1.00 ]
   1    7.500000E-01    1.000000E+00
[HyperChem end]
 There are 52 shells and 168 basis functions

 Total QAlloc Memory Limit   2000 MB
 Mega-Array Size       188 MB
 MEM_STATIC part       192 MB

                       Distance Matrix (Angstroms)
             O (  1)   C (  2)   C (  3)   O (  4)   O (  5)   C (  6)
   C (  2)  1.340669
   C (  3)  1.379136  2.189586
   O (  4)  2.257661  1.196485  3.350469
   O (  5)  2.185306  1.340469  2.190170  2.253332
   C (  6)  2.189822  2.189225  1.324404  3.348438  1.379019
   Li(  7)  3.883966  3.104980  5.152343  1.935744  4.160137  5.281139
   H (  8)  2.105549  3.187411  1.074724  4.294480  3.255810  2.211896
   H (  9)  3.255496  3.186828  2.211936  4.291035  2.105008  1.074708
             Li(  7)   H (  8)
   H (  8)  5.989515
   H (  9)  6.223883  2.822067
 
 A cutoff of  1.0D-11 yielded   1320 shell pairs
 There are     14137 function pairs (     15357 Cartesian)
 
 -------------------------------------------------------
 OpenMP Integral Computing Module                       
 Release: version 1.0, May 2013, Q-Chem Inc. Pittsburgh 
 -------------------------------------------------------
 Integral Job Info:
 Integral job number is                      11
 Integral operator is                         1
 short-range coefficients              22203600
 long-range coefficients              100000000
 Omega coefficients                         200
 if combine SR and LR in K                    1
 Integral screening is                        0
 Integral computing path is                   2
 max size of driver memory is            800000
 size of driver memory is                593474
 size of scratch memory is              2428936
 max col of scratch BK array               1296
 max len of scratch array in speh3          155
 max len of scratch index in speh4           18
 max int batch size is                      520
 min int batch size is                       52
 fixed nKL is                                52
 max L of basis functions is                  2
 order of int derivative is                   0
 number of shells is                         52
 number of basis is                         175
 number of cartesian basis is               175
 number of contracted shell pairs          1320
 number of primitive shell pairs           3885
 maxK2 (contraction) of shell pair           36
 max number of K2 of shell pair               1
 max number of CS2 of shell pair            239
 max number of PS2 of shell pair            876
 mem total for path MDJ                  537338
 -------------------------------------------------------
 Smallest overlap matrix eigenvalue = 3.01E-05
 Guess from superposition of atomic densities
 Warning:  Energy on first SCF cycle will be non-variational
 SAD guess density has 47.000000 electrons

 -----------------------------------------------------------------------
  General SCF calculation program by
  Eric Jon Sundstrom, Paul Horn, Yuezhi Mao, Dmitri Zuev, Alec White,
  David Stuck, Shaama M.S., Shane Yost, Joonho Lee, David Small,
  Daniel Levine, Susi Lehtola, Hugh Burton, Evgeny Epifanovsky
 -----------------------------------------------------------------------
 Exchange:     0.2220 Hartree-Fock + 1.0000 wB97X-D + LR-HF
 Correlation:  1.0000 wB97X-D
 Using SG-2 standard quadrature grid
 Dispersion:   Grimme D
 using 12 threads for integral computing
 -------------------------------------------------------
 OpenMP Integral computing Module                
 Release: version 1.0, May 2013, Q-Chem Inc. Pittsburgh 
 -------------------------------------------------------
 using 12 threads for integral computing
 -------------------------------------------------------
 OpenMP Integral computing Module                
 Release: version 1.0, May 2013, Q-Chem Inc. Pittsburgh 
 -------------------------------------------------------
 -------------------------------------------------------
 OpenMP BLAS3 based DFT computing Module                
 Release: version 1.0, May 2013, Q-Chem Inc. Pittsburgh 
 -------------------------------------------------------
 A unrestricted SCF calculation will be
 performed using DIIS
 SCF converges when DIIS error is below 1.0e-08
 ---------------------------------------
  Cycle       Energy         DIIS error
 ---------------------------------------
    1    -350.2670826934      2.56e-02  
    2    -348.5007208378      3.70e-03  
    3    -348.4195593056      4.97e-03  
    4    -348.6489931461      5.09e-04  
    5    -348.6513249114      2.69e-04  
    6    -348.6522327680      4.75e-05  
    7    -348.6523928816      2.29e-05  
    8    -348.6524429461      1.21e-05  
    9    -348.6524614333      2.90e-06  
   10    -348.6524624722      1.65e-06  
   11    -348.6524625377      7.16e-07  
   12    -348.6524625638      2.17e-07  
   13    -348.6524625746      1.31e-07  
   14    -348.6524625780      9.23e-08  
   15    -348.6524625794      3.18e-08  
   16    -348.6524625796      1.41e-08  
   17    -348.6524625796      7.25e-09  Convergence criterion met
 ---------------------------------------
 SCF time:   CPU 111.16s  wall 10.00s 
 SCF   energy in the final basis set =     -348.6524625796
<S^2> =          0.750184308
 
 --------------------------------------------------------------
 
                    Orbital Energies (a.u.)
 --------------------------------------------------------------
 
 Alpha MOs
 -- Occupied --
-19.388 -19.388 -19.303 -10.533 -10.412 -10.411  -2.075  -1.362
 -1.238  -1.222  -0.944  -0.828  -0.792  -0.701  -0.676  -0.638
 -0.628  -0.567  -0.545  -0.539  -0.521  -0.464  -0.386  -0.141
 -- Virtual --
  0.008   0.017   0.017   0.025   0.030   0.034   0.037   0.042
  0.055   0.059   0.062   0.086   0.088   0.105   0.110   0.132
  0.134   0.139   0.147   0.149   0.158   0.167   0.169   0.172
  0.177   0.189   0.201   0.232   0.249   0.253   0.291   0.298
  0.306   0.309   0.315   0.343   0.349   0.356   0.365   0.370
  0.385   0.417   0.426   0.448   0.454   0.501   0.516   0.549
  0.555   0.565   0.567   0.569   0.585   0.609   0.611   0.631
  0.665   0.708   0.730   0.739   0.772   0.814   0.838   0.842
  0.870   0.878   0.925   0.966   1.038   1.048   1.081   1.088
  1.166   1.174   1.205   1.211   1.218   1.241   1.298   1.309
  1.352   1.392   1.453   1.485   1.528   1.621   1.713   1.745
  1.761   1.762   1.781   1.781   1.826   1.894   1.926   1.987
  2.083   2.150   2.179   2.442   2.564   2.581   2.685   2.732
  2.745   2.762   2.795   2.837   2.895   2.988   2.992   3.074
  3.079   3.151   3.192   3.222   3.248   3.416   3.419   3.446
  3.573   3.658   3.662   3.890   4.009   4.020   4.092   4.224
  4.231   5.000   5.004   5.098   5.224   5.355   5.507   5.553
  5.956   6.015  23.758  23.910  24.355  49.894  50.004  50.129
 
 Beta MOs
 -- Occupied --
-19.388 -19.388 -19.302 -10.533 -10.412 -10.411  -2.072  -1.362
 -1.238  -1.222  -0.944  -0.828  -0.792  -0.701  -0.676  -0.638
 -0.627  -0.567  -0.545  -0.539  -0.521  -0.463  -0.386
 -- Virtual --
  0.012   0.026   0.034   0.039   0.040   0.043   0.051   0.061
  0.072   0.092   0.101   0.113   0.132   0.135   0.139   0.140
  0.149   0.164   0.172   0.189   0.208   0.215   0.223   0.232
  0.246   0.257   0.262   0.273   0.273   0.291   0.293   0.309
  0.316   0.322   0.336   0.361   0.378   0.383   0.390   0.420
  0.422   0.436   0.452   0.465   0.470   0.514   0.529   0.571
  0.575   0.590   0.608   0.624   0.645   0.671   0.672   0.713
  0.714   0.742   0.766   0.781   0.813   0.815   0.848   0.852
  0.887   0.931   0.951   0.968   0.982   1.046   1.083   1.089
  1.102   1.167   1.186   1.210   1.215   1.218   1.248   1.299
  1.325   1.354   1.401   1.454   1.515   1.535   1.630   1.714
  1.747   1.761   1.763   1.781   1.785   1.833   1.895   1.928
  1.989   2.083   2.151   2.179   2.442   2.565   2.581   2.685
  2.733   2.745   2.762   2.796   2.838   2.896   2.988   2.992
  3.075   3.079   3.151   3.193   3.223   3.248   3.416   3.420
  3.446   3.574   3.661   3.663   3.898   4.011   4.020   4.092
  4.226   4.233   5.000   5.005   5.100   5.226   5.356   5.507
  5.554   5.957   6.015  23.758  23.910  24.355  49.894  50.004
 50.130
 --------------------------------------------------------------
 
          Ground-State Mulliken Net Atomic Charges

     Atom                 Charge (a.u.)    Spin (a.u.)
  --------------------------------------------------------
      1 O                    -0.046937      -0.009918
      2 C                     0.243633      -0.009235
      3 C                    -0.121628      -0.003306
      4 O                    -0.282055      -0.070805
      5 O                    -0.036937      -0.009593
      6 C                    -0.088839       0.012495
      7 Li                   -0.168051       1.088859
      8 H                     0.250406      -0.000075
      9 H                     0.250409       0.001578
  --------------------------------------------------------
  Sum of atomic charges =    -0.000000
  Sum of spin   charges =     1.000000

 -----------------------------------------------------------------
                    Cartesian Multipole Moments
 -----------------------------------------------------------------
    Charge (ESU x 10^10)
                -0.0000
    Dipole Moment (Debye)
         X     -10.1914      Y       3.4910      Z       0.0327
       Tot      10.7728
    Quadrupole Moments (Debye-Ang)
        XX     -85.5675     XY      19.4157     YY     -50.6455
        XZ       0.1309     YZ      -0.0614     ZZ     -43.4914
    Octopole Moments (Debye-Ang^2)
       XXX    -438.1546    XXY     150.8023    XYY    -110.1653
       YYY     181.6176    XXZ       1.1025    XYZ      -0.3272
       YYZ       0.4621    XZZ     -59.8876    YZZ      50.6467
       ZZZ       0.8261
    Hexadecapole Moments (Debye-Ang^3)
      XXXX   -3018.8868   XXXY     955.9175   XXYY    -646.0991
      XYYY     499.8089   YYYY    -767.5722   XXXZ       7.1675
      XXYZ      -2.3770   XYYZ       1.7763   YYYZ      -2.1034
      XXZZ    -317.1988   XYZZ     131.2369   YYZZ    -135.7281
      XZZZ       3.1249   YZZZ      -1.7228   ZZZZ    -106.2352
 -----------------------------------------------------------------
[HyperChem begin]
;Total dipole moment in Debye
[dipole-moment]
     10.772781314726
;Dipole moment components in Debye
[dipole-moment-components]
    -10.191390101251      3.491033309058      0.032733684227
[HyperChem end]
[HyperChem begin]
[HyperChem end]
[HyperChem begin]
[HyperChem end]
[HyperChem begin]
[HyperChem end]
 Calculating MO derivatives via CPSCF
 D1JvT checksum  = 430056 23963.706178513
 D1KAT checksum  = 859896 2130.401902700
 D1JvT checksum  = 430056 14090.786069975
 D1KAT checksum  = 859896 870.429140847
 Inaccurate integrated density:
   Number of electrons =    47
   Numerical integral  =    46.978159582314
   Relative error      =    -0.0464689738 %
   1         3          27      0.515978    0.128858
   2         3          27      0.160509    0.047955
   3         3          27      0.047377    0.019008
   4         3          27      0.011513    0.004856
   5         3          27      0.001832    0.000658
   6        16          14      0.000259    0.000103
   7        27           3      0.000037    0.000016
   8        27           3      0.000006    0.000003
   9        30           0      0.000000    0.000000    Roots Converged
 Time for AOints: 28.5 s (CPU) 2.9 s (wall)
 ------------------------------------------------------------------------------
                     AOints        : Timing summary (seconds)
 ------------------------------------------------------------------------------
     job step          cpu (% of tot)      sys (% of tot)     wall (% of tot)
 ------------------------------------------------------------------------------
  cpscf_lag         0.2160E+03 (32.9)   0.1830E-03 (31.6)   0.9854E+02 (42.1)
  iterzp            0.4106E+03 (62.6)   0.3420E-03 (59.0)   0.1327E+03 (56.7)
  make_fx           0.0000E+00 ( 0.0)   0.0000E+00 ( 0.0)   0.0000E+00 ( 0.0)
  AOints            0.2846E+02 ( 4.3)   0.5200E-04 ( 9.0)   0.2931E+01 ( 1.3)
 ------------------------------------------------------------------------------
   Grand Totals     0.6560E+03          0.5800E-03          0.2343E+03
 ------------------------------------------------------------------------------
 Calculating analytic Hessian of the SCF energy
 Polarizability Matrix (a.u.)
            1           2           3
    1-215.8499020  -1.9858426   0.0423254
    2  -1.9858426-287.0384379  -0.0342061
    3   0.0423254  -0.0342061-293.4329739
 Inaccurate integrated density:
   Number of electrons =    47
   Numerical integral  =    46.978159582314
   Relative error      =    -0.0464689738 %
atom: 0 element: 8
atom: 1 element: 6
atom: 2 element: 6
atom: 3 element: 8
atom: 4 element: 8
atom: 5 element: 6
atom: 6 element: 3
atom: 7 element: 1
atom: 8 element: 1
 
 Direct stationary perturbation theory relativistic correction:
 
 rels  =       0.118644259291
 relv  =      -0.526847500882
 rel2e =       0.000000000000
 E_rel =      -0.408203241591
 
 Hessian of the SCF Energy
            1           2           3           4           5           6
    1   0.4845367  -0.0085950  -0.0014333  -0.1284540   0.0037399   0.0001860
    2  -0.0085950   0.4692678   0.0009697  -0.0135370  -0.2326196  -0.0003297
    3  -0.0014333   0.0009697   0.0709686   0.0001327  -0.0003953  -0.0783273
    4  -0.1284540  -0.0135370   0.0001327   1.0644175  -0.2791363  -0.0036735
    5   0.0037399  -0.2326196  -0.0003953  -0.2791363   0.6406489   0.0020937
    6   0.0001860  -0.0003297  -0.0783273  -0.0036735   0.0020937   0.2185022
    7  -0.2513103   0.0224859   0.0007181  -0.0098224   0.0921275   0.0002591
    8  -0.0168801  -0.0955454  -0.0000505   0.0347102  -0.0426232  -0.0002256
    9   0.0006437  -0.0001636  -0.0500783   0.0001393  -0.0004219   0.0066475
   10  -0.0089226   0.0514073   0.0002256  -0.6235557   0.2656551   0.0026420
   11   0.0675379  -0.0510854  -0.0003988   0.2672598  -0.2229338  -0.0013685
   12   0.0002449  -0.0003346   0.0174216   0.0026810  -0.0013793  -0.0762246
   13   0.0028464  -0.0825875  -0.0001610  -0.1892849  -0.0617024   0.0001885
   14  -0.0058375  -0.0634661  -0.0001518  -0.0437492  -0.1715721  -0.0001145
   15   0.0000437   0.0001034   0.0146595   0.0002371  -0.0000403  -0.0782726
   16  -0.0927465   0.0042377   0.0004107  -0.0911867  -0.0270468   0.0003049
   17  -0.0334399  -0.0299998   0.0000144   0.0306095   0.0393880  -0.0000098
   18   0.0002911  -0.0001388   0.0174194   0.0004185   0.0001908   0.0068301
   19   0.0028103  -0.0058104  -0.0000249  -0.0156452   0.0071129   0.0000704
   20  -0.0001861   0.0011086   0.0000032   0.0046210  -0.0028170  -0.0000224
   21  -0.0000049   0.0000135   0.0000417   0.0000494  -0.0000226   0.0000083
   22  -0.0120976   0.0340920   0.0001091  -0.0074250  -0.0059083   0.0000093
   23  -0.0020297   0.0046676   0.0000188  -0.0010825   0.0004179   0.0000024
   24   0.0000264  -0.0001036  -0.0021348   0.0000196   0.0000171   0.0004173
   25   0.0033376  -0.0016930   0.0000230   0.0009565   0.0051584   0.0000134
   26  -0.0043096  -0.0023278  -0.0000097   0.0003044  -0.0078890  -0.0000256
   27   0.0000024  -0.0000162   0.0100296  -0.0000039  -0.0000423   0.0004191
            7           8           9          10          11          12
    1  -0.2513103  -0.0168801   0.0006437  -0.0089226   0.0675379   0.0002449
    2   0.0224859  -0.0955454  -0.0001636   0.0514073  -0.0510854  -0.0003346
    3   0.0007181  -0.0000505  -0.0500783   0.0002256  -0.0003988   0.0174216
    4  -0.0098224   0.0347102   0.0001393  -0.6235557   0.2672598   0.0026810
    5   0.0921275  -0.0426232  -0.0004219   0.2656551  -0.2229338  -0.0013793
    6   0.0002591  -0.0002256   0.0066475   0.0026420  -0.0013685  -0.0762246
    7   0.5569945   0.0178276  -0.0015521  -0.0060768  -0.0090819   0.0000133
    8   0.0178276   1.0238220   0.0017947   0.0017837  -0.0040643  -0.0000232
    9  -0.0015521   0.0017947   0.1124602   0.0000342   0.0000103   0.0024992
   10  -0.0060768   0.0017837   0.0000342   0.7583381  -0.3238757  -0.0033730
   11  -0.0090819  -0.0040643   0.0000103  -0.3238757   0.2523338   0.0017322
   12   0.0000133  -0.0000232   0.0024992  -0.0033730   0.0017322   0.0359086
   13  -0.0385451   0.0448956   0.0002952  -0.0964064  -0.0128459   0.0003463
   14   0.0075705  -0.0831533  -0.0002751   0.0051891   0.0321575   0.0000282
   15   0.0001994  -0.0003777   0.0173323   0.0004095   0.0000854   0.0170608
   16  -0.1669827  -0.1727305   0.0000354  -0.0011394   0.0053790   0.0000219
   17  -0.2117666  -0.4573464  -0.0000145  -0.0058832  -0.0087428  -0.0000143
   18  -0.0000334  -0.0001511  -0.0614668  -0.0000021  -0.0000503   0.0022216
   19  -0.0004573  -0.0002983   0.0000014  -0.0201651   0.0031453   0.0000467
   20   0.0001797  -0.0000358  -0.0000009   0.0031371   0.0006259  -0.0000017
   21   0.0000010   0.0000005  -0.0000142   0.0000432  -0.0000014  -0.0005366
   22  -0.0833622   0.0882667   0.0003944  -0.0008334   0.0030385   0.0000131
   23   0.0995309  -0.3483415  -0.0010012  -0.0003184   0.0006765   0.0000013
   24   0.0004134  -0.0009756  -0.0284986   0.0000062  -0.0000109   0.0008285
   25  -0.0004378   0.0024252   0.0000085  -0.0012387  -0.0005569   0.0000056
   26  -0.0188737   0.0072880   0.0000722   0.0029050   0.0010325  -0.0000085
   27  -0.0000188   0.0000085   0.0011187   0.0000143   0.0000021   0.0008208
           13          14          15          16          17          18
    1   0.0028464  -0.0058375   0.0000437  -0.0927465  -0.0334399   0.0002911
    2  -0.0825875  -0.0634661   0.0001034   0.0042377  -0.0299998  -0.0001388
    3  -0.0001610  -0.0001518   0.0146595   0.0004107   0.0000144   0.0174194
    4  -0.1892849  -0.0437492   0.0002371  -0.0911867   0.0306095   0.0004185
    5  -0.0617024  -0.1715721  -0.0000403  -0.0270468   0.0393880   0.0001908
    6   0.0001885  -0.0001145  -0.0782726   0.0003049  -0.0000098   0.0068301
    7  -0.0385451   0.0075705   0.0001994  -0.1669827  -0.2117666  -0.0000334
    8   0.0448956  -0.0831533  -0.0003777  -0.1727305  -0.4573464  -0.0001511
    9   0.0002952  -0.0002751   0.0173323   0.0000354  -0.0000145  -0.0614668
   10  -0.0964064   0.0051891   0.0004095  -0.0011394  -0.0058832  -0.0000021
   11  -0.0128459   0.0321575   0.0000854   0.0053790  -0.0087428  -0.0000503
   12   0.0003463   0.0000282   0.0170608   0.0000219  -0.0000143   0.0022216
   13   0.4852431  -0.0099982  -0.0014580  -0.1560110   0.0957900   0.0006385
   14  -0.0099982   0.4726769   0.0010518   0.0560176  -0.1944758  -0.0005637
   15  -0.0014580   0.0010518   0.0711683   0.0005350  -0.0007356  -0.0499676
   16  -0.1560110   0.0560176   0.0005350   0.8376095   0.2298190  -0.0021952
   17   0.0957900  -0.1944758  -0.0007356   0.2298190   0.7464235   0.0005044
   18   0.0006385  -0.0005637  -0.0499676  -0.0021952   0.0005044   0.1116656
   19   0.0063123   0.0011940  -0.0000191  -0.0001621   0.0005549   0.0000010
   20  -0.0018712   0.0000564   0.0000070  -0.0000391  -0.0002630  -0.0000004
   21  -0.0000141  -0.0000036   0.0001587   0.0000005  -0.0000016   0.0000936
   22   0.0026342  -0.0048542   0.0000161   0.0123982  -0.0092031  -0.0000656
   23  -0.0022562  -0.0015908  -0.0000133   0.0120450  -0.0055117  -0.0000638
   24   0.0000344  -0.0000164   0.0100489  -0.0000216   0.0000349   0.0010996
   25  -0.0167886  -0.0055321   0.0000364  -0.3417794  -0.0964807   0.0009470
   26   0.0305759   0.0093672  -0.0000808  -0.1076818  -0.0894720   0.0002730
   27   0.0001300   0.0000451  -0.0021884   0.0009084   0.0002222  -0.0278955
           19          20          21          22          23          24
    1   0.0028103  -0.0001861  -0.0000049  -0.0120976  -0.0020297   0.0000264
    2  -0.0058104   0.0011086   0.0000135   0.0340920   0.0046676  -0.0001036
    3  -0.0000249   0.0000032   0.0000417   0.0001091   0.0000188  -0.0021348
    4  -0.0156452   0.0046210   0.0000494  -0.0074250  -0.0010825   0.0000196
    5   0.0071129  -0.0028170  -0.0000226  -0.0059083   0.0004179   0.0000171
    6   0.0000704  -0.0000224   0.0000083   0.0000093   0.0000024   0.0004173
    7  -0.0004573   0.0001797   0.0000010  -0.0833622   0.0995309   0.0004134
    8  -0.0002983  -0.0000358   0.0000005   0.0882667  -0.3483415  -0.0009756
    9   0.0000014  -0.0000009  -0.0000142   0.0003944  -0.0010012  -0.0284986
   10  -0.0201651   0.0031371   0.0000432  -0.0008334  -0.0003184   0.0000062
   11   0.0031453   0.0006259  -0.0000014   0.0030385   0.0006765  -0.0000109
   12   0.0000467  -0.0000017  -0.0005366   0.0000131   0.0000013   0.0008285
   13   0.0063123  -0.0018712  -0.0000141   0.0026342  -0.0022562   0.0000344
   14   0.0011940   0.0000564  -0.0000036  -0.0048542  -0.0015908  -0.0000164
   15  -0.0000191   0.0000070   0.0001587   0.0000161  -0.0000133   0.0100489
   16  -0.0001621  -0.0000391   0.0000005   0.0123982   0.0120450  -0.0000216
   17   0.0005549  -0.0002630  -0.0000016  -0.0092031  -0.0055117   0.0000349
   18   0.0000010  -0.0000004   0.0000936  -0.0000656  -0.0000638   0.0010996
   19   0.0270023  -0.0057532  -0.0000743   0.0002175   0.0000516  -0.0000008
   20  -0.0057532   0.0012981   0.0000148  -0.0000511  -0.0000191   0.0000001
   21  -0.0000743   0.0000148   0.0002923  -0.0000006   0.0000000  -0.0000288
   22   0.0002175  -0.0000511  -0.0000006   0.0887188  -0.1056516  -0.0004685
   23   0.0000516  -0.0000191   0.0000000  -0.1056516   0.3499722   0.0010497
   24  -0.0000008   0.0000001  -0.0000288  -0.0004685   0.0010497   0.0208678
   25   0.0000872  -0.0000370  -0.0000003  -0.0002505  -0.0002891  -0.0000092
   26  -0.0001966   0.0000459   0.0000004   0.0002711  -0.0002712   0.0000047
   27  -0.0000005   0.0000003  -0.0000150  -0.0000073   0.0000061  -0.0026000
           25          26          27
    1   0.0033376  -0.0043096   0.0000024
    2  -0.0016930  -0.0023278  -0.0000162
    3   0.0000230  -0.0000097   0.0100296
    4   0.0009565   0.0003044  -0.0000039
    5   0.0051584  -0.0078890  -0.0000423
    6   0.0000134  -0.0000256   0.0004191
    7  -0.0004378  -0.0188737  -0.0000188
    8   0.0024252   0.0072880   0.0000085
    9   0.0000085   0.0000722   0.0011187
   10  -0.0012387   0.0029050   0.0000143
   11  -0.0005569   0.0010325   0.0000021
   12   0.0000056  -0.0000085   0.0008208
   13  -0.0167886   0.0305759   0.0001300
   14  -0.0055321   0.0093672   0.0000451
   15   0.0000364  -0.0000808  -0.0021884
   16  -0.3417794  -0.1076818   0.0009084
   17  -0.0964807  -0.0894720   0.0002222
   18   0.0009470   0.0002730  -0.0278955
   19   0.0000872  -0.0001966  -0.0000005
   20  -0.0000370   0.0000459   0.0000003
   21  -0.0000003   0.0000004  -0.0000150
   22  -0.0002505   0.0002711  -0.0000073
   23  -0.0002891  -0.0002712   0.0000061
   24  -0.0000092   0.0000047  -0.0026000
   25   0.3561137   0.0970053  -0.0010246
   26   0.0970053   0.0822264  -0.0002258
   27  -0.0010246  -0.0002258   0.0203105
 Gradient time:  CPU 881.55 s  wall 384.49 s
[HyperChem begin]
[HyperChem end]
 **********************************************************************
 **                                                                  **
 **                       VIBRATIONAL ANALYSIS                       **
 **                       --------------------                       **
 **                                                                  **
 **        VIBRATIONAL FREQUENCIES (CM**-1) AND NORMAL MODES         **
 **     FORCE CONSTANTS (mDYN/ANGSTROM) AND REDUCED MASSES (AMU)     **
 **                  INFRARED INTENSITIES (KM/MOL)                   **
 **                                                                  **
 **********************************************************************
 

 Symmetry:           ???                    ???                    ???

 Mode:                 1                      2                      3
 Frequency:        12.52                  45.28                 260.96
 Force Cnst:      0.0007                 0.0092                 0.2816
 Red. Mass:       7.6623                 7.6367                 7.0181
 IR Active:          YES                    YES                    YES
 IR Intens:       33.103                 47.878                 12.068
 Raman Active:       YES                    YES                    YES
               X      Y      Z        X      Y      Z        X      Y      Z
 O          0.114 -0.118 -0.000   -0.000  0.000 -0.113   -0.001  0.001 -0.312
 C         -0.049 -0.142 -0.000   -0.001  0.000 -0.183   -0.001  0.000 -0.141
 C          0.138  0.051 -0.000    0.001 -0.000  0.138    0.001 -0.000  0.220
 O         -0.117 -0.282 -0.000   -0.001  0.001 -0.371    0.001 -0.001  0.344
 O         -0.125  0.002  0.000    0.000 -0.000 -0.002   -0.001  0.001 -0.316
 C         -0.007  0.123  0.000    0.001 -0.001  0.205    0.001 -0.001  0.219
 Li         0.119  0.803  0.002    0.001 -0.002  0.745    0.001 -0.000 -0.015
 H          0.266  0.096  0.000    0.001 -0.001  0.234    0.002 -0.001  0.532
 H         -0.047  0.251  0.000    0.001 -0.001  0.380    0.002 -0.001  0.534
 TransDip  -0.007 -0.184 -0.000    0.000  0.000 -0.222    0.000 -0.000  0.111

 Symmetry:           ???                    ???                    ???

 Mode:                 4                      5                      6
 Frequency:       329.08                 531.01                 582.11
 Force Cnst:      0.4588                 1.4737                 0.7769
 Red. Mass:       7.1906                 8.8707                 3.8916
 IR Active:          YES                    YES                    YES
 IR Intens:       20.546                  6.699                  0.028
 Raman Active:       YES                    YES                    YES
               X      Y      Z        X      Y      Z        X      Y      Z
 O         -0.075  0.001  0.000    0.034 -0.291 -0.001   -0.001  0.000 -0.184
 C         -0.056 -0.023  0.000   -0.119 -0.232 -0.000    0.000  0.000 -0.000
 C         -0.066  0.043  0.000    0.202  0.015 -0.001    0.001 -0.001  0.294
 O         -0.038 -0.012 -0.000    0.216  0.452  0.000    0.000 -0.000  0.000
 O         -0.124  0.028  0.001   -0.237 -0.159  0.000    0.001 -0.000  0.183
 C         -0.101  0.062  0.000   -0.090  0.159  0.001   -0.001  0.001 -0.291
 Li         0.942 -0.201 -0.003   -0.057  0.020  0.000    0.000  0.000  0.000
 H         -0.036  0.054 -0.000    0.462  0.107 -0.001    0.002 -0.001  0.609
 H         -0.112  0.094  0.000   -0.174  0.424  0.002   -0.002  0.001 -0.625
 TransDip   0.143 -0.027 -0.000   -0.027  0.078  0.000   -0.000  0.000 -0.005

 Symmetry:           ???                    ???                    ???

 Mode:                 7                      8                      9
 Frequency:       744.91                 779.20                 800.47
 Force Cnst:      0.4774                 4.1331                 1.7351
 Red. Mass:       1.4601                11.5538                 4.5961
 IR Active:          YES                    YES                    YES
 IR Intens:       78.905                 23.591                  0.341
 Raman Active:       YES                    YES                    YES
               X      Y      Z        X      Y      Z        X      Y      Z
 O         -0.000  0.000 -0.018   -0.252 -0.244  0.000   -0.001  0.000 -0.155
 C          0.001 -0.000  0.153    0.301 -0.151 -0.002    0.002 -0.001  0.471
 C         -0.000  0.000 -0.080   -0.279  0.131  0.001    0.000 -0.000  0.091
 O         -0.000  0.000 -0.038    0.441 -0.203 -0.002   -0.000  0.000 -0.119
 O         -0.000  0.000 -0.017    0.043  0.339  0.001   -0.000  0.001 -0.155
 C         -0.000  0.000 -0.091   -0.272  0.151  0.001    0.000 -0.000  0.108
 Li         0.000 -0.000 -0.000   -0.102  0.020  0.000    0.000  0.000  0.000
 H          0.003 -0.001  0.668    0.153  0.292  0.001   -0.002  0.001 -0.548
 H          0.003 -0.002  0.716   -0.142 -0.282 -0.000   -0.002  0.001 -0.629
 TransDip   0.001 -0.001  0.284   -0.149  0.046  0.001    0.000 -0.000  0.019

 Symmetry:           ???                    ???                    ???

 Mode:                10                     11                     12
 Frequency:       863.15                 928.68                 969.00
 Force Cnst:      0.5900                 4.2503                 2.6074
 Red. Mass:       1.3441                 8.3643                 4.7130
 IR Active:          YES                    YES                    YES
 IR Intens:        0.042                  8.061                 14.404
 Raman Active:       YES                    YES                    YES
               X      Y      Z        X      Y      Z        X      Y      Z
 O          0.000 -0.000  0.002   -0.312 -0.029  0.001    0.087  0.277  0.000
 C         -0.000  0.000 -0.003   -0.087 -0.172 -0.000    0.131 -0.066 -0.000
 C         -0.000  0.000 -0.128   -0.095  0.413  0.001   -0.094  0.037  0.000
 O         -0.000  0.000  0.001   -0.018 -0.037 -0.000    0.196 -0.091 -0.001
 O          0.000  0.000  0.002    0.159 -0.273 -0.001   -0.168 -0.235 -0.000
 C          0.000 -0.000  0.119    0.388  0.171 -0.001   -0.093  0.053  0.001
 Li         0.000 -0.000  0.000    0.002 -0.002  0.000   -0.044  0.009  0.000
 H          0.003 -0.001  0.730   -0.191  0.407  0.002   -0.591 -0.128  0.003
 H         -0.002  0.001 -0.660    0.437  0.101 -0.002   -0.263  0.553  0.002
 TransDip   0.000 -0.000  0.007    0.032  0.085  0.000    0.114 -0.043 -0.000

 Symmetry:           ???                    ???                    ???

 Mode:                13                     14                     15
 Frequency:      1092.86                1124.00                1147.64
 Force Cnst:      3.4807                 1.4289                 1.8070
 Red. Mass:       4.9463                 1.9197                 2.3287
 IR Active:          YES                    YES                    YES
 IR Intens:        3.054                 18.979                 55.944
 Raman Active:       YES                    YES                    YES
               X      Y      Z        X      Y      Z        X      Y      Z
 O         -0.217  0.152  0.001   -0.113 -0.029  0.000   -0.047 -0.091 -0.000
 C         -0.037 -0.074 -0.000    0.013 -0.005 -0.000    0.129  0.259  0.000
 C          0.260 -0.140 -0.001    0.085 -0.116 -0.001   -0.056 -0.001  0.000
 O         -0.018 -0.037 -0.000    0.019 -0.008 -0.000   -0.014 -0.029 -0.000
 O          0.244 -0.071 -0.001   -0.052  0.110  0.000   -0.044 -0.094 -0.000
 C         -0.252  0.119  0.001    0.151 -0.001 -0.001    0.033 -0.046 -0.000
 Li         0.001 -0.001 -0.000   -0.004  0.001  0.000   -0.000 -0.001 -0.000
 H          0.579 -0.034 -0.002   -0.581 -0.371  0.002    0.620  0.234 -0.002
 H         -0.369  0.467  0.003   -0.043  0.671  0.001   -0.190  0.642  0.002
 TransDip   0.040  0.039  0.000    0.126 -0.060 -0.001    0.146  0.190 -0.000

 Symmetry:           ???                    ???                    ???

 Mode:                16                     17                     18
 Frequency:      1209.10                1387.39                1693.97
 Force Cnst:      2.3920                 2.7865                 9.5489
 Red. Mass:       2.7770                 2.4571                 5.6480
 IR Active:          YES                    YES                    YES
 IR Intens:      205.991                 20.516                  0.106
 Raman Active:       YES                    YES                    YES
               X      Y      Z        X      Y      Z        X      Y      Z
 O          0.141 -0.138 -0.001   -0.057 -0.086 -0.000    0.030  0.029 -0.000
 C         -0.036  0.015  0.000    0.097  0.195  0.000    0.023 -0.011 -0.000
 C         -0.140  0.035  0.001    0.163  0.019 -0.001   -0.254 -0.378  0.000
 O         -0.068  0.032  0.000   -0.012 -0.024 -0.000   -0.024  0.012  0.000
 O          0.200 -0.030 -0.001   -0.034 -0.099 -0.000   -0.005 -0.043 -0.000
 C         -0.116  0.093  0.001   -0.085  0.141  0.001    0.148  0.432  0.000
 Li         0.012 -0.003 -0.000    0.000 -0.000  0.000    0.001  0.000 -0.000
 H         -0.641 -0.131  0.002   -0.610 -0.262  0.002    0.488 -0.226 -0.002
 H         -0.288  0.599  0.002    0.157 -0.641 -0.002    0.476 -0.254 -0.002
 TransDip  -0.415  0.199  0.002    0.102  0.103  0.000   -0.005  0.009  0.000

 Symmetry:           ???                    ???                    ???

 Mode:                19                     20                     21
 Frequency:      1913.05                3316.20                3341.73
 Force Cnst:     27.7389                 7.0731                 7.3584
 Red. Mass:      12.8643                 1.0916                 1.1184
 IR Active:          YES                    YES                    YES
 IR Intens:     1215.393                 15.650                  3.979
 Raman Active:       YES                    YES                    YES
               X      Y      Z        X      Y      Z        X      Y      Z
 O         -0.044  0.024  0.000    0.001 -0.000 -0.000   -0.001  0.001  0.000
 C          0.768 -0.382 -0.004    0.001  0.002  0.000   -0.002  0.001  0.000
 C         -0.006  0.046  0.000    0.021 -0.056 -0.000    0.017 -0.071 -0.000
 O         -0.442  0.219  0.002   -0.000 -0.000  0.000    0.000 -0.000 -0.000
 O         -0.044  0.020  0.000   -0.000  0.000  0.000   -0.001  0.001  0.000
 C         -0.040 -0.022  0.000   -0.061 -0.019  0.000    0.063  0.028 -0.000
 Li        -0.006  0.004  0.000    0.000 -0.000 -0.000   -0.000 -0.000  0.000
 H         -0.055  0.054  0.000   -0.228  0.645  0.002   -0.235  0.684  0.002
 H         -0.076  0.009  0.000    0.690  0.220 -0.002   -0.649 -0.213  0.002
 TransDip   1.038 -0.410 -0.004    0.063  0.110 -0.000   -0.056  0.031  0.000

 STANDARD THERMODYNAMIC QUANTITIES AT   298.15 K  AND     1.00 ATM

   This Molecule has  0 Imaginary Frequencies
   Zero point vibrational energy:       32.984 kcal/mol

   Atom    1 Element O  Has Mass   15.99491
   Atom    2 Element C  Has Mass   12.00000
   Atom    3 Element C  Has Mass   12.00000
   Atom    4 Element O  Has Mass   15.99491
   Atom    5 Element O  Has Mass   15.99491
   Atom    6 Element C  Has Mass   12.00000
   Atom    7 Element Li Has Mass    7.01600
   Atom    8 Element H  Has Mass    1.00783
   Atom    9 Element H  Has Mass    1.00783
   Molecular Mass:    93.016390 amu
   Principal axes and moments of inertia in amu*Bohr^2:
                             1           2           3
    Eigenvalues --      190.87444   759.59716   950.47127
          X               0.92686     0.37538     0.00310
          Y              -0.37538     0.92687    -0.00228
          Z              -0.00373     0.00095     0.99999
   Rotational Symmetry Number is   1
   The Molecule is an Asymmetric Top
   Translational Enthalpy:        0.889 kcal/mol
   Rotational Enthalpy:           0.889 kcal/mol
   Vibrational Enthalpy:         35.177 kcal/mol
   gas constant (RT):             0.592 kcal/mol
   Translational Entropy:        39.502  cal/mol.K
   Rotational Entropy:           26.424  cal/mol.K
   Vibrational Entropy:          17.884  cal/mol.K

   Total Enthalpy:               37.547 kcal/mol
   Total Entropy:                83.810  cal/mol.K
Archival summary:
1\1\nid00524\FREQ\ProcedureUnspecified\BasisUnspecified\33i12(2)\sblau\TueApr1717:38:302018TueApr1717:38:302018\0\\#,FREQ,ProcedureUnspecified,BasisUnspecified,\\0,2\O\C,1,1.34067\O,2,1.19649,1,125.611\O,2,1.34047,1,109.188,3,-179.971,0\C,4,1.37902,2,107.215,1,-0.0305056,0\H,5,1.07471,4,117.624,2,-179.977,0\C,5,1.3244,4,108.204,2,0.0537609,0\H,7,1.07472,5,134.165,4,179.974,0\Li,3,1.93574,2,164.431,1,0.431952,0\\\@

 Total job time:  394.45s(wall), 997.39s(cpu) 
 Tue Apr 17 17:38:30 2018

        *************************************************************
        *                                                           *
        *  Thank you very much for using Q-Chem.  Have a nice day.  *
        *                                                           *
        *************************************************************


0 sent ACK to 0 
now end server 0 ... 
cleanup process ... done
