 vasp.5.3.5 31Mar14 (build Oct 24 2014 12:38:34) complex                        
  
 executed on             LinuxIFC date 2016.10.20  19:24:51
 running on    8 total cores
 distrk:  each k-point on    8 cores,    1 groups
 distr:  one band on NCORES_PER_BAND=   1 cores,    8 groups


--------------------------------------------------------------------------------------------------------


 INCAR:
 POTCAR:    PAW_PBE Ba_sv 06Sep2000               
 POTCAR:    PAW_PBE Ti_pv 07Sep2000               
 POTCAR:    PAW_PBE O 08Apr2002                   

 ----------------------------------------------------------------------------- 
|                                                                             |
|           W    W    AA    RRRRR   N    N  II  N    N   GGGG   !!!           |
|           W    W   A  A   R    R  NN   N  II  NN   N  G    G  !!!           |
|           W    W  A    A  R    R  N N  N  II  N N  N  G       !!!           |
|           W WW W  AAAAAA  RRRRR   N  N N  II  N  N N  G  GGG   !            |
|           WW  WW  A    A  R   R   N   NN  II  N   NN  G    G                |
|           W    W  A    A  R    R  N    N  II  N    N   GGGG   !!!           |
|                                                                             |
|      For optimal performance we recommend to set                            |
|        NCORE= 4 - approx SQRT( number of cores)                             |
|      NCORE specifies how many cores store one orbital (NPAR=cpu/NCORE).     |
|      This setting can  greatly improve the performance of VASP for DFT.     |
|      The default, NPAR=number of cores might be grossly inefficient         |
|      on modern multi-core architectures or massively parallel machines.     |
|      Do your own testing !!!!                                               |
|      Unfortunately you need to use the default for GW and RPA calculations. |
|      (for HF NCORE is supported but not extensively tested yet)             |
|                                                                             |
 ----------------------------------------------------------------------------- 

 POTCAR:    PAW_PBE Ba_sv 06Sep2000               
   VRHFIN =Ba: 5s5p6s                                                           
   LEXCH  = PE                                                                  
   EATOM  =   700.8560 eV,   51.5115 Ry                                         
                                                                                
   TITEL  = PAW_PBE Ba_sv 06Sep2000                                             
   LULTRA =        F    use ultrasoft PP ?                                      
   IUNSCR =        1    unscreen: 0-lin 1-nonlin 2-no                           
   RPACOR =    2.400    partial core radius                                     
   POMASS =  137.327; ZVAL   =   10.000    mass and valenz                      
   RCORE  =    2.800    outmost cutoff radius                                   
   RWIGS  =    3.740; RWIGS  =    1.979    wigner-seitz radius (au A)           
   ENMAX  =  187.181; ENMIN  =  140.386 eV                                      
   RCLOC  =    2.516    cutoff for local pot                                    
   LCOR   =        T    correct aug charges                                     
   LPAW   =        T    paw PP                                                  
   EAUG   =  351.165                                                            
   DEXC   =    0.000                                                            
   RMAX   =    2.865    core radius for proj-oper                               
   RAUG   =    1.300    factor for augmentation sphere                          
   RDEP   =    2.976    radius for radial grids                                 
   RDEPT  =    2.289    core radius for aug-charge                              
                                                                                
   Atomic configuration                                                         
   13 entries                                                                   
     n  l   j            E        occ.                                          
     1  0  0.50    -37249.5946   2.0000                                         
     2  0  0.50     -5887.1925   2.0000                                         
     2  1  1.50     -5278.3977   6.0000                                         
     3  0  0.50     -1242.7293   2.0000                                         
     3  1  1.50     -1047.6609   6.0000                                         
     3  2  2.50      -764.6158  10.0000                                         
     4  0  0.50      -243.8228   2.0000                                         
     4  1  1.50      -180.9218   6.0000                                         
     4  2  2.50       -89.6477  10.0000                                         
     5  0  0.50       -33.6549   2.0000                                         
     6  0  0.50        -3.2247   1.9900                                         
     5  1  1.50       -18.7193   6.0000                                         
     5  2  2.50        -2.0115   0.0100                                         
   Description                                                                  
     l       E           TYP  RCUT    TYP  RCUT                                 
     0    -33.6549039     23  2.800                                             
     0     -3.2246942     23  2.800                                             
     1    -18.7193050     23  2.700                                             
     1     27.2116520     23  2.700                                             
     2     -2.0115002     23  2.700                                             
     2      0.3057420     23  2.700                                             
  local pseudopotential read in
  partial core-charges read in
  partial kinetic energy density read in
  atomic valenz-charges read in
  non local Contribution for L=           0  read in
    real space projection operators read in
  non local Contribution for L=           0  read in
    real space projection operators read in
  non local Contribution for L=           1  read in
    real space projection operators read in
  non local Contribution for L=           1  read in
    real space projection operators read in
  non local Contribution for L=           2  read in
    real space projection operators read in
  non local Contribution for L=           2  read in
    real space projection operators read in
    PAW grid and wavefunctions read in
 
   number of l-projection  operators is LMAX  =           6
   number of lm-projection operators is LMMAX =          18
 
 POTCAR:    PAW_PBE Ti_pv 07Sep2000               
   VRHFIN =Ti: d3 s1                                                            
   LEXCH  = PE                                                                  
   EATOM  =  1042.5995 eV,   76.6289 Ry                                         
                                                                                
   TITEL  = PAW_PBE Ti_pv 07Sep2000                                             
   LULTRA =        F    use ultrasoft PP ?                                      
   IUNSCR =        1    unscreen: 0-lin 1-nonlin 2-no                           
   RPACOR =    2.200    partial core radius                                     
   POMASS =   47.880; ZVAL   =   10.000    mass and valenz                      
   RCORE  =    2.500    outmost cutoff radius                                   
   RWIGS  =    2.500; RWIGS  =    1.323    wigner-seitz radius (au A)           
   ENMAX  =  222.335; ENMIN  =  166.751 eV                                      
   RCLOC  =    1.701    cutoff for local pot                                    
   LCOR   =        T    correct aug charges                                     
   LPAW   =        T    paw PP                                                  
   EAUG   =  482.848                                                            
   DEXC   =    0.000                                                            
   RMAX   =    2.564    core radius for proj-oper                               
   RAUG   =    1.300    factor for augmentation sphere                          
   RDEP   =    2.538    radius for radial grids                                 
   RDEPT  =    1.952    core radius for aug-charge                              
                                                                                
   Atomic configuration                                                         
    8 entries                                                                   
     n  l   j            E        occ.                                          
     1  0  0.50     -4865.3608   2.0000                                         
     2  0  0.50      -533.1368   2.0000                                         
     2  1  1.50      -440.5031   6.0000                                         
     3  0  0.50       -59.3186   2.0000                                         
     3  1  1.50       -35.7012   6.0000                                         
     3  2  2.50        -1.9157   3.0000                                         
     4  0  0.50        -3.7291   1.0000                                         
     4  3  2.50        -1.3606   0.0000                                         
   Description                                                                  
     l       E           TYP  RCUT    TYP  RCUT                                 
     1    -35.7012140     23  2.300                                             
     1     -1.3605826     23  2.300                                             
     2     -1.9156996     23  2.500                                             
     2     -0.4063033     23  2.500                                             
     0     -3.7290856     23  2.500                                             
     0     20.4087390     23  2.500                                             
  local pseudopotential read in
  partial core-charges read in
  partial kinetic energy density read in
  atomic valenz-charges read in
  non local Contribution for L=           1  read in
    real space projection operators read in
  non local Contribution for L=           1  read in
    real space projection operators read in
  non local Contribution for L=           2  read in
    real space projection operators read in
  non local Contribution for L=           2  read in
    real space projection operators read in
  non local Contribution for L=           0  read in
    real space projection operators read in
  non local Contribution for L=           0  read in
    real space projection operators read in
    PAW grid and wavefunctions read in
 
   number of l-projection  operators is LMAX  =           6
   number of lm-projection operators is LMMAX =          18
 
 POTCAR:    PAW_PBE O 08Apr2002                   
   VRHFIN =O: s2p4                                                              
   LEXCH  = PE                                                                  
   EATOM  =   432.3788 eV,   31.7789 Ry                                         
                                                                                
   TITEL  = PAW_PBE O 08Apr2002                                                 
   LULTRA =        F    use ultrasoft PP ?                                      
   IUNSCR =        1    unscreen: 0-lin 1-nonlin 2-no                           
   RPACOR =    1.200    partial core radius                                     
   POMASS =   16.000; ZVAL   =    6.000    mass and valenz                      
   RCORE  =    1.520    outmost cutoff radius                                   
   RWIGS  =    1.550; RWIGS  =    0.820    wigner-seitz radius (au A)           
   ENMAX  =  400.000; ENMIN  =  300.000 eV                                      
   ICORE  =        2    local potential                                         
   LCOR   =        T    correct aug charges                                     
   LPAW   =        T    paw PP                                                  
   EAUG   =  605.392                                                            
   DEXC   =    0.000                                                            
   RMAX   =    1.553    core radius for proj-oper                               
   RAUG   =    1.300    factor for augmentation sphere                          
   RDEP   =    1.550    radius for radial grids                                 
   RDEPT  =    1.329    core radius for aug-charge                              
                                                                                
   Atomic configuration                                                         
    4 entries                                                                   
     n  l   j            E        occ.                                          
     1  0  0.50      -514.6923   2.0000                                         
     2  0  0.50       -23.9615   2.0000                                         
     2  1  0.50        -9.0305   4.0000                                         
     3  2  1.50        -9.5241   0.0000                                         
   Description                                                                  
     l       E           TYP  RCUT    TYP  RCUT                                 
     0    -23.9615318     23  1.200                                             
     0     -9.5240782     23  1.200                                             
     1     -9.0304911     23  1.520                                             
     1      8.1634956     23  1.520                                             
     2     -9.5240782      7  1.500                                             
  local pseudopotential read in
  partial core-charges read in
  partial kinetic energy density read in
  kinetic energy density of atom read in
  atomic valenz-charges read in
  non local Contribution for L=           0  read in
    real space projection operators read in
  non local Contribution for L=           0  read in
    real space projection operators read in
  non local Contribution for L=           1  read in
    real space projection operators read in
  non local Contribution for L=           1  read in
    real space projection operators read in
    PAW grid and wavefunctions read in
 
   number of l-projection  operators is LMAX  =           4
   number of lm-projection operators is LMMAX =           8
 

 ----------------------------------------------------------------------------- 
|                                                                             |
|  ADVICE TO THIS USER RUNNING 'VASP/VAMP'   (HEAR YOUR MASTER'S VOICE ...):  |
|                                                                             |
|      You have a (more or less) 'small supercell' and for smaller cells      |
|      it is recommended  to use the reciprocal-space projection scheme!      |
|      The real space optimization is not  efficient for small cells and it   |
|      is also less accurate ...                                              |
|      Therefore set LREAL=.FALSE. in the  INCAR file                         |
|                                                                             |
 ----------------------------------------------------------------------------- 

 Optimization of the real space projectors (new method)

 maximal supplied QI-value         = 13.42
 optimisation between [QCUT,QGAM] = [ 11.67, 23.35] = [ 38.16,152.62] Ry 
 Optimized for a Real-space Cutoff    1.68 Angstroem

   l    n(q)    QCUT    max X(q) W(low)/X(q) W(high)/X(q)  e(spline) 
   0     12    11.673    13.244    0.27E-04    0.53E-05    0.55E-07
   0     12    11.673    14.240    0.39E-04    0.74E-05    0.11E-06
   1     11    11.673     4.828    0.65E-05    0.14E-04    0.51E-07
   1     11    11.673     3.934    0.16E-04    0.58E-04    0.38E-06
   2     11    11.673    87.714    0.23E-03    0.16E-03    0.84E-06
   2     11    11.673    59.874    0.22E-03    0.15E-03    0.81E-06
 Optimization of the real space projectors (new method)

 maximal supplied QI-value         = 15.12
 optimisation between [QCUT,QGAM] = [ 11.64, 23.28] = [ 37.95,151.78] Ry 
 Optimized for a Real-space Cutoff    1.49 Angstroem

   l    n(q)    QCUT    max X(q) W(low)/X(q) W(high)/X(q)  e(spline) 
   1     10    11.641     4.216    0.17E-04    0.40E-04    0.50E-07
   1     10    11.641     5.422    0.66E-04    0.10E-03    0.13E-06
   2      9    11.641    72.084    0.68E-04    0.13E-03    0.50E-06
   2      9    11.641    65.965    0.66E-04    0.13E-03    0.50E-06
   0     10    11.641    41.531    0.10E-03    0.87E-04    0.31E-06
   0     10    11.641    16.290    0.75E-04    0.66E-04    0.24E-06
 Optimization of the real space projectors (new method)

 maximal supplied QI-value         = 24.76
 optimisation between [QCUT,QGAM] = [ 11.64, 23.27] = [ 37.91,151.63] Ry 
 Optimized for a Real-space Cutoff    1.14 Angstroem

   l    n(q)    QCUT    max X(q) W(low)/X(q) W(high)/X(q)  e(spline) 
   0      8    11.635    20.381    0.10E-03    0.33E-03    0.24E-06
   0      8    11.635    15.268    0.11E-03    0.35E-03    0.26E-06
   1      7    11.635     5.964    0.24E-03    0.31E-03    0.30E-06
   1      7    11.635     5.382    0.22E-03    0.25E-03    0.26E-06
  PAW_PBE Ba_sv 06Sep2000               :
 energy of atom  1       EATOM= -700.8560
 kinetic energy error for atom=    0.0005 (will be added to EATOM!!)
  PAW_PBE Ti_pv 07Sep2000               :
 energy of atom  2       EATOM=-1042.5995
 kinetic energy error for atom=    0.0019 (will be added to EATOM!!)
  PAW_PBE O 08Apr2002                   :
 energy of atom  3       EATOM= -432.3788
 kinetic energy error for atom=    0.0208 (will be added to EATOM!!)
 
 
 POSCAR: Ba1 Ti1 O3                              
  positions in direct lattice
  velocities in cartesian coordinates
 exchange correlation table for  LEXCH =        8
   RHO(1)=    0.500       N(1)  =     2000
   RHO(2)=  100.500       N(2)  =     4000
 


--------------------------------------------------------------------------------------------------------


 ion  position               nearest neighbor table
   1  0.000  0.000  0.014-   3 2.83   4 2.83   3 2.83   4 2.83   5 2.84   5 2.84   5 2.84   5 2.84
                             3 2.94   4 2.94   4 2.94   3 2.94   2 3.49   2 3.49   2 3.49   2 3.49
   2  0.500  0.500  0.527-   5 1.89   4 2.01   3 2.01   4 2.01   3 2.01   5 2.27   1 3.49   1 3.49
                             1 3.49   1 3.49   1 3.55   1 3.55   1 3.55   1 3.55
   3  0.000  0.500  0.496-   2 2.01   2 2.01   1 2.83   1 2.83   1 2.94   1 2.94
   4  0.500  0.000  0.496-   2 2.01   2 2.01   1 2.83   1 2.83   1 2.94   1 2.94
   5  0.500  0.500  0.981-   2 1.89   2 2.27   1 2.84   1 2.84   1 2.84   1 2.84
 
  LATTYP: Found a simple tetragonal cell.
 ALAT       =     4.0119270000
 C/A-ratio  =     1.0356230310
  
  Lattice vectors:
  
 A1 = (   4.0119270000,   0.0000000000,   0.0000000000)
 A2 = (   0.0000000000,   4.0119270000,   0.0000000000)
 A3 = (   0.0000000000,   0.0000000000,   4.1548440000)


Analysis of symmetry for initial positions (statically):
=====================================================================
 Subroutine PRICEL returns:
 Original cell was already a primitive cell.
 

 Routine SETGRP: Setting up the symmetry group for a 
 simple tetragonal supercell.


 Subroutine GETGRP returns: Found  8 space group operations
 (whereof  8 operations were pure point group operations)
 out of a pool of 16 trial point group operations.


The static configuration has the point symmetry C_4v.


Analysis of symmetry for dynamics (positions and initial velocities):
=====================================================================
 Subroutine PRICEL returns:
 Original cell was already a primitive cell.
 

 Routine SETGRP: Setting up the symmetry group for a 
 simple tetragonal supercell.


 Subroutine GETGRP returns: Found  8 space group operations
 (whereof  8 operations were pure point group operations)
 out of a pool of 16 trial point group operations.


The dynamic configuration has the point symmetry C_4v.


Analysis of magnetic symmetry:
=====================================================================
 Subroutine PRICEL returns:
 Original cell was already a primitive cell.
 

 Subroutine MAGSYM returns: Found  8 space group operations
 (whereof  8 operations were pure point group operations)
 out of a pool of  8 trial space group operations
 (whereof  8 operations were pure point group operations)
 and found also     1 'primitive' translations


The magnetic configuration has the point symmetry C_4v.
 
 
 KPOINTS: pymatgen generated KPOINTS with grid den

Automatic generation of k-mesh.
Space group operators:
 irot       det(A)        alpha          n_x          n_y          n_z        tau_x        tau_y        tau_z
    1     1.000000     0.000000     1.000000     0.000000     0.000000     0.000000     0.000000     0.000000
    2     1.000000    90.000000     0.000000     0.000000    -1.000000     0.000000     0.000000     0.000000
    3     1.000000   180.000000     0.000000     0.000000     1.000000     0.000000     0.000000     0.000000
    4     1.000000    90.000000     0.000000     0.000000     1.000000     0.000000     0.000000     0.000000
    5    -1.000000   179.999999     0.000000     1.000000     0.000000     0.000000     0.000000     0.000000
    6    -1.000000   180.000000     0.707107     0.707107     0.000000     0.000000     0.000000     0.000000
    7    -1.000000   180.000000     1.000000     0.000000     0.000000     0.000000     0.000000     0.000000
    8    -1.000000   180.000000     0.707107    -0.707107     0.000000     0.000000     0.000000     0.000000
 
 Subroutine IBZKPT returns following result:
 ===========================================
 
 Found     40 irreducible k-points:
 
 Following reciprocal coordinates:
            Coordinates               Weight
  0.062500  0.062500  0.062500      8.000000
  0.187500  0.062500  0.062500     16.000000
  0.312500  0.062500  0.062500     16.000000
  0.437500  0.062500  0.062500     16.000000
  0.187500  0.187500  0.062500      8.000000
  0.312500  0.187500  0.062500     16.000000
  0.437500  0.187500  0.062500     16.000000
  0.312500  0.312500  0.062500      8.000000
  0.437500  0.312500  0.062500     16.000000
  0.437500  0.437500  0.062500      8.000000
  0.062500  0.062500  0.187500      8.000000
  0.187500  0.062500  0.187500     16.000000
  0.312500  0.062500  0.187500     16.000000
  0.437500  0.062500  0.187500     16.000000
  0.187500  0.187500  0.187500      8.000000
  0.312500  0.187500  0.187500     16.000000
  0.437500  0.187500  0.187500     16.000000
  0.312500  0.312500  0.187500      8.000000
  0.437500  0.312500  0.187500     16.000000
  0.437500  0.437500  0.187500      8.000000
  0.062500  0.062500  0.312500      8.000000
  0.187500  0.062500  0.312500     16.000000
  0.312500  0.062500  0.312500     16.000000
  0.437500  0.062500  0.312500     16.000000
  0.187500  0.187500  0.312500      8.000000
  0.312500  0.187500  0.312500     16.000000
  0.437500  0.187500  0.312500     16.000000
  0.312500  0.312500  0.312500      8.000000
  0.437500  0.312500  0.312500     16.000000
  0.437500  0.437500  0.312500      8.000000
  0.062500  0.062500  0.437500      8.000000
  0.187500  0.062500  0.437500     16.000000
  0.312500  0.062500  0.437500     16.000000
  0.437500  0.062500  0.437500     16.000000
  0.187500  0.187500  0.437500      8.000000
  0.312500  0.187500  0.437500     16.000000
  0.437500  0.187500  0.437500     16.000000
  0.312500  0.312500  0.437500      8.000000
  0.437500  0.312500  0.437500     16.000000
  0.437500  0.437500  0.437500      8.000000
 
 Following cartesian coordinates:
            Coordinates               Weight
  0.015579  0.015579  0.015043      8.000000
  0.046736  0.015579  0.015043     16.000000
  0.077893  0.015579  0.015043     16.000000
  0.109050  0.015579  0.015043     16.000000
  0.046736  0.046736  0.015043      8.000000
  0.077893  0.046736  0.015043     16.000000
  0.109050  0.046736  0.015043     16.000000
  0.077893  0.077893  0.015043      8.000000
  0.109050  0.077893  0.015043     16.000000
  0.109050  0.109050  0.015043      8.000000
  0.015579  0.015579  0.045128      8.000000
  0.046736  0.015579  0.045128     16.000000
  0.077893  0.015579  0.045128     16.000000
  0.109050  0.015579  0.045128     16.000000
  0.046736  0.046736  0.045128      8.000000
  0.077893  0.046736  0.045128     16.000000
  0.109050  0.046736  0.045128     16.000000
  0.077893  0.077893  0.045128      8.000000
  0.109050  0.077893  0.045128     16.000000
  0.109050  0.109050  0.045128      8.000000
  0.015579  0.015579  0.075213      8.000000
  0.046736  0.015579  0.075213     16.000000
  0.077893  0.015579  0.075213     16.000000
  0.109050  0.015579  0.075213     16.000000
  0.046736  0.046736  0.075213      8.000000
  0.077893  0.046736  0.075213     16.000000
  0.109050  0.046736  0.075213     16.000000
  0.077893  0.077893  0.075213      8.000000
  0.109050  0.077893  0.075213     16.000000
  0.109050  0.109050  0.075213      8.000000
  0.015579  0.015579  0.105299      8.000000
  0.046736  0.015579  0.105299     16.000000
  0.077893  0.015579  0.105299     16.000000
  0.109050  0.015579  0.105299     16.000000
  0.046736  0.046736  0.105299      8.000000
  0.077893  0.046736  0.105299     16.000000
  0.109050  0.046736  0.105299     16.000000
  0.077893  0.077893  0.105299      8.000000
  0.109050  0.077893  0.105299     16.000000
  0.109050  0.109050  0.105299      8.000000
 
 TETIRR: Found    703 inequivalent tetrahedra from     3072


--------------------------------------------------------------------------------------------------------




 Dimension of arrays:
   k-points           NKPTS =     40   k-points in BZ     NKDIM =     40   number of bands    NBANDS=     32
   number of dos      NEDOS =    301   number of ions     NIONS =      5
   non local maximal  LDIM  =      6   non local SUM 2l+1 LMDIM =     18
   total plane-waves  NPLWV =  28800
   max r-space proj   IRMAX =   8543   max aug-charges    IRDMAX=  27154
   dimension x,y,z NGX =    30 NGY =   30 NGZ =   32
   dimension x,y,z NGXF=    60 NGYF=   60 NGZF=   64
   support grid    NGXF=    60 NGYF=   60 NGZF=   64
   ions per type =               1   1   3
 NGX,Y,Z   is equivalent  to a cutoff of  12.43, 12.43, 12.80 a.u.
 NGXF,Y,Z  is equivalent  to a cutoff of  24.86, 24.86, 25.61 a.u.


 I would recommend the setting:
   dimension x,y,z NGX =    30 NGY =   30 NGZ =   31
 SYSTEM =  unknown system                          
 POSCAR =  Ba1 Ti1 O3                              

 Startparameter for this run:
   NWRITE =      2    write-flag & timer
   PREC   = accura    normal or accurate (medium, high low for compatibility)
   ISTART =      0    job   : 0-new  1-cont  2-samecut
   ICHARG =      0    charge: 1-file 2-atom 10-const
   ISPIN  =      2    spin polarized calculation?
   LNONCOLLINEAR =      F non collinear calculations
   LSORBIT =      F    spin-orbit coupling
   INIWAV =      1    electr: 0-lowe 1-rand  2-diag
   LASPH  =      F    aspherical Exc in radial PAW
   METAGGA=      F    non-selfconsistent MetaGGA calc.

 Electronic Relaxation 1
   ENCUT  =  520.0 eV  38.22 Ry    6.18 a.u.   7.46  7.46  7.73*2*pi/ulx,y,z
   ENINI  =  520.0     initial cutoff
   ENAUG  =  605.4 eV  augmentation charge cutoff
   NELM   =    100;   NELMIN=  2; NELMDL= -5     # of ELM steps 
   EDIFF  = 0.3E-03   stopping-criterion for ELM
   LREAL  =      T    real-space projection
   NLSPLINE    = F    spline interpolate recip. space projectors
   LCOMPAT=      F    compatible to vasp.4.4
   GGA_COMPAT  = T    GGA compatible to vasp.4.4-vasp.4.6
   LMAXPAW     = -100 max onsite density
   LMAXMIX     =    2 max onsite mixed and CHGCAR
   VOSKOWN=      0    Vosko Wilk Nusair interpolation
   ROPT   =   -0.00025  -0.00025  -0.00025
 Ionic relaxation
   EDIFFG = 0.3E-02   stopping-criterion for IOM
   NSW    =      0    number of steps for IOM
   NBLOCK =      1;   KBLOCK =      1    inner block; outer block 
   IBRION =     -1    ionic relax: 0-MD 1-quasi-New 2-CG
   NFREE  =      0    steps in history (QN), initial steepest desc. (CG)
   ISIF   =      3    stress and relaxation
   IWAVPR =     10    prediction:  0-non 1-charg 2-wave 3-comb
   ISYM   =      2    0-nonsym 1-usesym 2-fastsym
   LCORR  =      T    Harris-Foulkes like correction to forces

   POTIM  = 0.5000    time-step for ionic-motion
   TEIN   =    0.0    initial temperature
   TEBEG  =    0.0;   TEEND  =   0.0 temperature during run
   SMASS  =  -3.00    Nose mass-parameter (am)
   estimated Nose-frequenzy (Omega)   =  0.10E-29 period in steps =****** mass=  -0.368E-27a.u.
   SCALEE = 1.0000    scale energy and forces
   NPACO  =    256;   APACO  = 16.0  distance and # of slots for P.C.
   PSTRESS=    0.0 pullay stress

  Mass of Ions in am
   POMASS = 137.33 47.88 16.00
  Ionic Valenz
   ZVAL   =  10.00 10.00  6.00
  Atomic Wigner-Seitz radii
   RWIGS  =  -1.00 -1.00 -1.00
  virtual crystal weights 
   VCA    =   1.00  1.00  1.00
   NELECT =      38.0000    total number of electrons
   NUPDOWN=      -1.0000    fix difference up-down

 DOS related values:
   EMIN   =  10.00;   EMAX   =-10.00  energy-range for DOS
   EFERMI =   0.00
   ISMEAR =    -5;   SIGMA  =   0.05  broadening in eV -4-tet -1-fermi 0-gaus

 Electronic relaxation 2 (details)
   IALGO  =     38    algorithm
   LDIAG  =      T    sub-space diagonalisation (order eigenvalues)
   LSUBROT=      F    optimize rotation matrix (better conditioning)
   TURBO    =      0    0=normal 1=particle mesh
   IRESTART =      0    0=no restart 2=restart with 2 vectors
   NREBOOT  =      0    no. of reboots
   NMIN     =      0    reboot dimension
   EREF     =   0.00    reference energy to select bands
   IMIX   =      4    mixing-type and parameters
     AMIX     =   0.40;   BMIX     =  1.00
     AMIX_MAG =   1.60;   BMIX_MAG =  1.00
     AMIN     =   0.10
     WC   =   100.;   INIMIX=   1;  MIXPRE=   1;  MAXMIX= -45

 Intra band minimization:
   WEIMIN = 0.0000     energy-eigenvalue tresh-hold
   EBREAK =  0.20E-05  absolut break condition
   DEPER  =   0.30     relativ break condition  

   TIME   =   0.40     timestep for ELM

  volume/ion in A,a.u.               =      13.37        90.26
  Fermi-wavevector in a.u.,A,eV,Ry     =   1.355967  2.562406 25.016303  1.838646
  Thomas-Fermi vector in A             =   2.483010
 
 Write flags
   LWAVE  =      T    write WAVECAR
   LCHARG =      T    write CHGCAR
   LVTOT  =      F    write LOCPOT, total local potential
   LVHAR  =      T    write LOCPOT, Hartree potential only
   LELF   =      F    write electronic localiz. function (ELF)
   LORBIT =     11    0 simple, 1 ext, 2 COOP (PROOUT)


 Dipole corrections
   LMONO  =      F    monopole corrections only (constant potential shift)
   LDIPOL =      F    correct potential (dipole corrections)
   IDIPOL =      0    1-x, 2-y, 3-z, 4-all directions 
   EPSILON=  1.0000000 bulk dielectric constant

 Exchange correlation treatment:
   GGA     =    --    GGA type
   LEXCH   =     8    internal setting for exchange type
   VOSKOWN=      0    Vosko Wilk Nusair interpolation
   LHFCALC =     F    Hartree Fock is set to
   LHFONE  =     F    Hartree Fock one center treatment
   AEXX    =    0.0000 exact exchange contribution

 Linear response parameters
   LEPSILON=     F    determine dielectric tensor
   LRPA    =     F    only Hartree local field effects (RPA)
   LNABLA  =     F    use nabla operator in PAW spheres
   LVEL    =     F    velocity operator in full k-point grid
   LINTERFAST=   F  fast interpolation
   KINTER  =     0    interpolate to denser k-point grid
   CSHIFT  =0.1000    complex shift for real part using Kramers Kronig
   OMEGAMAX=  -1.0    maximum frequency
   DEG_THRESHOLD= 0.2000000E-02 threshold for treating states as degnerate
   RTIME   =    0.100 relaxation time in fs

 Orbital magnetization related:
   ORBITALMAG=     F  switch on orbital magnetization
   LCHIMAG   =     F  perturbation theory with respect to B field
   DQ        =  0.001000  dq finite difference perturbation B field



--------------------------------------------------------------------------------------------------------


 Static calculation
 charge density and potential will be updated during run
 spin polarized calculation
 Variant of blocked Davidson
 Davidson routine will perform the subspace rotation
 perform sub-space diagonalisation
    after iterative eigenvector-optimisation
 modified Broyden-mixing scheme, WC =      100.0
 initial mixing is a Kerker type mixing with AMIX =  0.4000 and BMIX =      1.0000
 Hartree-type preconditioning will be used
 using additional bands           13
 real space projection scheme for non local part
 use partial core corrections
 calculate Harris-corrections to forces 
   (improved forces if not selfconsistent)
 use gradient corrections 
 use of overlap-Matrix (Vanderbilt PP)
 Fermi weights with tetrahedron method with Bloechl corrections


--------------------------------------------------------------------------------------------------------


  energy-cutoff  :      520.00
  volume of cell :       66.87
      direct lattice vectors                 reciprocal lattice vectors
     4.011927000  0.000000000  0.000000000     0.249256779  0.000000000  0.000000000
     0.000000000  4.011927000  0.000000000     0.000000000  0.249256779  0.000000000
     0.000000000  0.000000000  4.154844000     0.000000000  0.000000000  0.240682923

  length of vectors
     4.011927000  4.011927000  4.154844000     0.249256779  0.249256779  0.240682923


 
 k-points in units of 2pi/SCALE and weight: pymatgen generated KPOINTS with grid den
   0.01557855  0.01557855  0.01504268       0.016
   0.04673565  0.01557855  0.01504268       0.031
   0.07789274  0.01557855  0.01504268       0.031
   0.10904984  0.01557855  0.01504268       0.031
   0.04673565  0.04673565  0.01504268       0.016
   0.07789274  0.04673565  0.01504268       0.031
   0.10904984  0.04673565  0.01504268       0.031
   0.07789274  0.07789274  0.01504268       0.016
   0.10904984  0.07789274  0.01504268       0.031
   0.10904984  0.10904984  0.01504268       0.016
   0.01557855  0.01557855  0.04512805       0.016
   0.04673565  0.01557855  0.04512805       0.031
   0.07789274  0.01557855  0.04512805       0.031
   0.10904984  0.01557855  0.04512805       0.031
   0.04673565  0.04673565  0.04512805       0.016
   0.07789274  0.04673565  0.04512805       0.031
   0.10904984  0.04673565  0.04512805       0.031
   0.07789274  0.07789274  0.04512805       0.016
   0.10904984  0.07789274  0.04512805       0.031
   0.10904984  0.10904984  0.04512805       0.016
   0.01557855  0.01557855  0.07521341       0.016
   0.04673565  0.01557855  0.07521341       0.031
   0.07789274  0.01557855  0.07521341       0.031
   0.10904984  0.01557855  0.07521341       0.031
   0.04673565  0.04673565  0.07521341       0.016
   0.07789274  0.04673565  0.07521341       0.031
   0.10904984  0.04673565  0.07521341       0.031
   0.07789274  0.07789274  0.07521341       0.016
   0.10904984  0.07789274  0.07521341       0.031
   0.10904984  0.10904984  0.07521341       0.016
   0.01557855  0.01557855  0.10529878       0.016
   0.04673565  0.01557855  0.10529878       0.031
   0.07789274  0.01557855  0.10529878       0.031
   0.10904984  0.01557855  0.10529878       0.031
   0.04673565  0.04673565  0.10529878       0.016
   0.07789274  0.04673565  0.10529878       0.031
   0.10904984  0.04673565  0.10529878       0.031
   0.07789274  0.07789274  0.10529878       0.016
   0.10904984  0.07789274  0.10529878       0.031
   0.10904984  0.10904984  0.10529878       0.016
 
 k-points in reciprocal lattice and weights: pymatgen generated KPOINTS with grid den
   0.06250000  0.06250000  0.06250000       0.016
   0.18750000  0.06250000  0.06250000       0.031
   0.31250000  0.06250000  0.06250000       0.031
   0.43750000  0.06250000  0.06250000       0.031
   0.18750000  0.18750000  0.06250000       0.016
   0.31250000  0.18750000  0.06250000       0.031
   0.43750000  0.18750000  0.06250000       0.031
   0.31250000  0.31250000  0.06250000       0.016
   0.43750000  0.31250000  0.06250000       0.031
   0.43750000  0.43750000  0.06250000       0.016
   0.06250000  0.06250000  0.18750000       0.016
   0.18750000  0.06250000  0.18750000       0.031
   0.31250000  0.06250000  0.18750000       0.031
   0.43750000  0.06250000  0.18750000       0.031
   0.18750000  0.18750000  0.18750000       0.016
   0.31250000  0.18750000  0.18750000       0.031
   0.43750000  0.18750000  0.18750000       0.031
   0.31250000  0.31250000  0.18750000       0.016
   0.43750000  0.31250000  0.18750000       0.031
   0.43750000  0.43750000  0.18750000       0.016
   0.06250000  0.06250000  0.31250000       0.016
   0.18750000  0.06250000  0.31250000       0.031
   0.31250000  0.06250000  0.31250000       0.031
   0.43750000  0.06250000  0.31250000       0.031
   0.18750000  0.18750000  0.31250000       0.016
   0.31250000  0.18750000  0.31250000       0.031
   0.43750000  0.18750000  0.31250000       0.031
   0.31250000  0.31250000  0.31250000       0.016
   0.43750000  0.31250000  0.31250000       0.031
   0.43750000  0.43750000  0.31250000       0.016
   0.06250000  0.06250000  0.43750000       0.016
   0.18750000  0.06250000  0.43750000       0.031
   0.31250000  0.06250000  0.43750000       0.031
   0.43750000  0.06250000  0.43750000       0.031
   0.18750000  0.18750000  0.43750000       0.016
   0.31250000  0.18750000  0.43750000       0.031
   0.43750000  0.18750000  0.43750000       0.031
   0.31250000  0.31250000  0.43750000       0.016
   0.43750000  0.31250000  0.43750000       0.031
   0.43750000  0.43750000  0.43750000       0.016
 
 position of ions in fractional coordinates (direct lattice) 
   0.00000000  0.00000000  0.01444900
   0.50000000  0.50000000  0.52683500
   0.00000000  0.50000000  0.49561500
   0.50000000  0.00000000  0.49561500
   0.50000000  0.50000000  0.98148600
 
 position of ions in cartesian coordinates  (Angst):
   0.00000000  0.00000000  0.06003334
   2.00596350  2.00596350  2.18891724
   0.00000000  2.00596350  2.05920301
   2.00596350  0.00000000  2.05920301
   2.00596350  2.00596350  4.07792122
 


--------------------------------------------------------------------------------------------------------


 k-point  1 :   0.0625 0.0625 0.0625  plane waves:    1813
 k-point  2 :   0.1875 0.0625 0.0625  plane waves:    1807
 k-point  3 :   0.3125 0.0625 0.0625  plane waves:    1801
 k-point  4 :   0.4375 0.0625 0.0625  plane waves:    1797
 k-point  5 :   0.1875 0.1875 0.0625  plane waves:    1798
 k-point  6 :   0.3125 0.1875 0.0625  plane waves:    1802
 k-point  7 :   0.4375 0.1875 0.0625  plane waves:    1804
 k-point  8 :   0.3125 0.3125 0.0625  plane waves:    1806
 k-point  9 :   0.4375 0.3125 0.0625  plane waves:    1798
 k-point 10 :   0.4375 0.4375 0.0625  plane waves:    1788
 k-point 11 :   0.0625 0.0625 0.1875  plane waves:    1810
 k-point 12 :   0.1875 0.0625 0.1875  plane waves:    1805
 k-point 13 :   0.3125 0.0625 0.1875  plane waves:    1804
 k-point 14 :   0.4375 0.0625 0.1875  plane waves:    1797
 k-point 15 :   0.1875 0.1875 0.1875  plane waves:    1800
 k-point 16 :   0.3125 0.1875 0.1875  plane waves:    1805
 k-point 17 :   0.4375 0.1875 0.1875  plane waves:    1796
 k-point 18 :   0.3125 0.3125 0.1875  plane waves:    1802
 k-point 19 :   0.4375 0.3125 0.1875  plane waves:    1793
 k-point 20 :   0.4375 0.4375 0.1875  plane waves:    1790
 k-point 21 :   0.0625 0.0625 0.3125  plane waves:    1813
 k-point 22 :   0.1875 0.0625 0.3125  plane waves:    1808
 k-point 23 :   0.3125 0.0625 0.3125  plane waves:    1799
 k-point 24 :   0.4375 0.0625 0.3125  plane waves:    1791
 k-point 25 :   0.1875 0.1875 0.3125  plane waves:    1805
 k-point 26 :   0.3125 0.1875 0.3125  plane waves:    1799
 k-point 27 :   0.4375 0.1875 0.3125  plane waves:    1791
 k-point 28 :   0.3125 0.3125 0.3125  plane waves:    1795
 k-point 29 :   0.4375 0.3125 0.3125  plane waves:    1801
 k-point 30 :   0.4375 0.4375 0.3125  plane waves:    1787
 k-point 31 :   0.0625 0.0625 0.4375  plane waves:    1812
 k-point 32 :   0.1875 0.0625 0.4375  plane waves:    1808
 k-point 33 :   0.3125 0.0625 0.4375  plane waves:    1803
 k-point 34 :   0.4375 0.0625 0.4375  plane waves:    1790
 k-point 35 :   0.1875 0.1875 0.4375  plane waves:    1806
 k-point 36 :   0.3125 0.1875 0.4375  plane waves:    1799
 k-point 37 :   0.4375 0.1875 0.4375  plane waves:    1799
 k-point 38 :   0.3125 0.3125 0.4375  plane waves:    1792
 k-point 39 :   0.4375 0.3125 0.4375  plane waves:    1795
 k-point 40 :   0.4375 0.4375 0.4375  plane waves:    1802

 maximum and minimum number of plane-waves per node :      1813     1787

 maximum number of plane-waves:      1813
 maximum index in each direction: 
   IXMAX=    7   IYMAX=    7   IZMAX=    7
   IXMIN=   -7   IYMIN=   -7   IZMIN=   -8

 NGX is ok and might be reduce to  30
 NGY is ok and might be reduce to  30
 NGZ is ok and might be reduce to  32

 serial   3D FFT for wavefunctions
 parallel 3D FFT for charge:
    minimum data exchange during FFTs selected (reduces bandwidth)


 total amount of memory used by VASP on root node    49550. kBytes
========================================================================

   base      :      30000. kBytes
   nonlr-proj:       3503. kBytes
   fftplans  :       1162. kBytes
   grid      :       5105. kBytes
   one-center:        155. kBytes
   wavefun   :       9625. kBytes
 
     INWAV:  cpu time    0.00: real time    0.00
 Broyden mixing: mesh for mixing (old mesh)
   NGX = 15   NGY = 15   NGZ = 15
  (NGX  = 60   NGY  = 60   NGZ  = 64)
  gives a total of   3375 points

 charge density for first step will be calculated from the start-wavefunctions


--------------------------------------------------------------------------------------------------------


 Maximum index for non-local projection operator         8286
 Maximum index for augmentation-charges         3820 (set IRDMAX)


--------------------------------------------------------------------------------------------------------


 initial charge from wavefunction
 First call to EWALD:  gamma=   0.437
 Maximum number of real-space cells 3x 3x 3
 Maximum number of reciprocal cells 3x 3x 3

 FEWALD executed in parallel
    FEWALD:  cpu time    0.00: real time    0.00


----------------------------------------- Iteration    1(   1)  ---------------------------------------


    POTLOK:  cpu time    0.09: real time    0.09
    SETDIJ:  cpu time    0.02: real time    0.02
     EDDAV:  cpu time   10.10: real time   10.12
 BZINTS: Fermi energy:-25.534859; 38.000000 electrons
         Band energy:***********;  BLOECHL correction: -1.186669
       DOS:  cpu time    0.10: real time    0.10
    --------------------------------------------
      LOOP:  cpu time   10.31: real time   10.33

 eigenvalue-minimisations  :  6280
 total energy-change (2. order) :-0.9182188E+03  (-0.3461902E+04)
 number of electron      37.9999998 magnetization      -0.0000000
 augmentation part       -1.2384679 magnetization       0.0260226

 Free energy of the ion-electron system (eV)
  ---------------------------------------------------
  alpha Z        PSCENC =       250.56233626
  Ewald energy   TEWEN  =     -2485.06170747
  -Hartree energ DENC   =       -58.50680550
  -exchange      EXHF   =         0.00000000
  -V(xc)+E(xc)   XCENC  =       114.95057332
  PAW double counting   =    112022.94406545  -112022.17299158
  entropy T*S    EENTRO =         0.00000000
  eigenvalues    EBANDS =     -1781.46125407
  atomic energy  EATOM  =      3040.52701931
  ---------------------------------------------------
  free energy    TOTEN  =      -918.21876428 eV

  energy without entropy =     -918.21876428  energy(sigma->0) =     -918.21876428


--------------------------------------------------------------------------------------------------------




----------------------------------------- Iteration    1(   2)  ---------------------------------------


     EDDAV:  cpu time    8.67: real time    8.69
 BZINTS: Fermi energy:-42.193936; 38.000000 electrons
         Band energy:***********;  BLOECHL correction:  0.000000
       DOS:  cpu time    0.03: real time    0.03
    --------------------------------------------
      LOOP:  cpu time    8.70: real time    8.72

 eigenvalue-minimisations  :  5192
 total energy-change (2. order) :-0.4127215E+03  (-0.3949082E+03)
 number of electron      37.9999998 magnetization      -0.0000000
 augmentation part       -1.2384679 magnetization       0.0260226

 Free energy of the ion-electron system (eV)
  ---------------------------------------------------
  alpha Z        PSCENC =       250.56233626
  Ewald energy   TEWEN  =     -2485.06170747
  -Hartree energ DENC   =       -58.50680550
  -exchange      EXHF   =         0.00000000
  -V(xc)+E(xc)   XCENC  =       114.95057332
  PAW double counting   =    112022.94406545  -112022.17299158
  entropy T*S    EENTRO =         0.00000000
  eigenvalues    EBANDS =     -2194.18274793
  atomic energy  EATOM  =      3040.52701931
  ---------------------------------------------------
  free energy    TOTEN  =     -1330.94025814 eV

  energy without entropy =    -1330.94025814  energy(sigma->0) =    -1330.94025814


--------------------------------------------------------------------------------------------------------




----------------------------------------- Iteration    1(   3)  ---------------------------------------


     EDDAV:  cpu time   10.07: real time   10.09
 BZINTS: Fermi energy:-43.583521; 38.000000 electrons
         Band energy:***********;  BLOECHL correction:  0.000000
       DOS:  cpu time    0.01: real time    0.01
    --------------------------------------------
      LOOP:  cpu time   10.08: real time   10.11

 eigenvalue-minimisations  :  6232
 total energy-change (2. order) :-0.2569848E+02  (-0.2551832E+02)
 number of electron      37.9999998 magnetization      -0.0000000
 augmentation part       -1.2384679 magnetization       0.0260226

 Free energy of the ion-electron system (eV)
  ---------------------------------------------------
  alpha Z        PSCENC =       250.56233626
  Ewald energy   TEWEN  =     -2485.06170747
  -Hartree energ DENC   =       -58.50680550
  -exchange      EXHF   =         0.00000000
  -V(xc)+E(xc)   XCENC  =       114.95057332
  PAW double counting   =    112022.94406545  -112022.17299158
  entropy T*S    EENTRO =         0.00000000
  eigenvalues    EBANDS =     -2219.88123127
  atomic energy  EATOM  =      3040.52701931
  ---------------------------------------------------
  free energy    TOTEN  =     -1356.63874149 eV

  energy without entropy =    -1356.63874149  energy(sigma->0) =    -1356.63874149


--------------------------------------------------------------------------------------------------------




----------------------------------------- Iteration    1(   4)  ---------------------------------------


     EDDAV:  cpu time   10.97: real time   10.99
 BZINTS: Fermi energy:-43.653984; 38.000000 electrons
         Band energy:***********;  BLOECHL correction:  0.000000
       DOS:  cpu time    0.02: real time    0.02
    --------------------------------------------
      LOOP:  cpu time   10.99: real time   11.01

 eigenvalue-minimisations  :  6928
 total energy-change (2. order) :-0.8290117E+00  (-0.8287153E+00)
 number of electron      37.9999998 magnetization      -0.0000000
 augmentation part       -1.2384679 magnetization       0.0260226

 Free energy of the ion-electron system (eV)
  ---------------------------------------------------
  alpha Z        PSCENC =       250.56233626
  Ewald energy   TEWEN  =     -2485.06170747
  -Hartree energ DENC   =       -58.50680550
  -exchange      EXHF   =         0.00000000
  -V(xc)+E(xc)   XCENC  =       114.95057332
  PAW double counting   =    112022.94406545  -112022.17299158
  entropy T*S    EENTRO =         0.00000000
  eigenvalues    EBANDS =     -2220.71024296
  atomic energy  EATOM  =      3040.52701931
  ---------------------------------------------------
  free energy    TOTEN  =     -1357.46775317 eV

  energy without entropy =    -1357.46775317  energy(sigma->0) =    -1357.46775317


--------------------------------------------------------------------------------------------------------




----------------------------------------- Iteration    1(   5)  ---------------------------------------


     EDDAV:  cpu time   12.16: real time   12.18
 BZINTS: Fermi energy:-43.631572; 38.000000 electrons
         Band energy:***********;  BLOECHL correction:  0.000000
       DOS:  cpu time    0.01: real time    0.01
    CHARGE:  cpu time    0.46: real time    0.46
    MIXING:  cpu time    0.00: real time    0.00
    --------------------------------------------
      LOOP:  cpu time   12.64: real time   12.67

 eigenvalue-minimisations  :  7848
 total energy-change (2. order) :-0.3244641E-01  (-0.3244589E-01)
 number of electron      37.9999973 magnetization      -0.0000000
 augmentation part       15.8248223 magnetization       0.0018361

 Broyden mixing:
  rms(total) = 0.39414E+02    rms(broyden)= 0.39406E+02
  rms(prec ) = 0.57457E+02
  weight for this iteration     100.00

 Free energy of the ion-electron system (eV)
  ---------------------------------------------------
  alpha Z        PSCENC =       250.56233626
  Ewald energy   TEWEN  =     -2485.06170747
  -Hartree energ DENC   =       -58.50680550
  -exchange      EXHF   =         0.00000000
  -V(xc)+E(xc)   XCENC  =       114.95057332
  PAW double counting   =    112022.94406545  -112022.17299158
  entropy T*S    EENTRO =         0.00000000
  eigenvalues    EBANDS =     -2220.74268937
  atomic energy  EATOM  =      3040.52701931
  ---------------------------------------------------
  free energy    TOTEN  =     -1357.50019958 eV

  energy without entropy =    -1357.50019958  energy(sigma->0) =    -1357.50019958


--------------------------------------------------------------------------------------------------------




----------------------------------------- Iteration    1(   6)  ---------------------------------------


    POTLOK:  cpu time    0.09: real time    0.09
    SETDIJ:  cpu time    0.02: real time    0.02
     EDDAV:  cpu time   13.12: real time   13.15
 BZINTS: Fermi energy: -3.272773; 38.000000 electrons
         Band energy:-680.161852;  BLOECHL correction:  0.000000
       DOS:  cpu time    0.02: real time    0.02
    CHARGE:  cpu time    0.46: real time    0.46
    MIXING:  cpu time    0.00: real time    0.00
    --------------------------------------------
      LOOP:  cpu time   13.72: real time   13.77

 eigenvalue-minimisations  :  8568
 total energy-change (2. order) : 0.1118793E+04  (-0.3521482E+03)
 number of electron      37.9999965 magnetization       0.0000000
 augmentation part        6.8577052 magnetization      -0.0039089

 Broyden mixing:
  rms(total) = 0.25270E+02    rms(broyden)= 0.25268E+02
  rms(prec ) = 0.29657E+02
  weight for this iteration     100.00

 eigenvalues of (default mixing * dielectric matrix)
  average eigenvalue GAMMA=   0.6478
  0.6478

 Free energy of the ion-electron system (eV)
  ---------------------------------------------------
  alpha Z        PSCENC =       250.56233626
  Ewald energy   TEWEN  =     -2485.06170747
  -Hartree energ DENC   =      -476.65947870
  -exchange      EXHF   =         0.00000000
  -V(xc)+E(xc)   XCENC  =       136.24340419
  PAW double counting   =    205585.99824173  -205610.15503979
  entropy T*S    EENTRO =         0.00000000
  eigenvalues    EBANDS =      -680.16185193
  atomic energy  EATOM  =      3040.52701931
  ---------------------------------------------------
  free energy    TOTEN  =      -238.70707639 eV

  energy without entropy =     -238.70707639  energy(sigma->0) =     -238.70707639


--------------------------------------------------------------------------------------------------------




----------------------------------------- Iteration    1(   7)  ---------------------------------------


    POTLOK:  cpu time    0.09: real time    0.09
    SETDIJ:  cpu time    0.02: real time    0.02
     EDDAV:  cpu time   10.42: real time   10.45
 BZINTS: Fermi energy:  0.982499; 38.000000 electrons
         Band energy:-463.453466;  BLOECHL correction:  0.000000
       DOS:  cpu time    0.01: real time    0.02
    CHARGE:  cpu time    0.46: real time    0.46
    MIXING:  cpu time    0.00: real time    0.00
    --------------------------------------------
      LOOP:  cpu time   11.00: real time   11.03

 eigenvalue-minimisations  :  6000
 total energy-change (2. order) : 0.1499657E+03  (-0.3580719E+02)
 number of electron      37.9999974 magnetization      -0.0000000
 augmentation part        5.2767163 magnetization      -0.0008587

 Broyden mixing:
  rms(total) = 0.16527E+02    rms(broyden)= 0.16527E+02
  rms(prec ) = 0.18569E+02
  weight for this iteration     100.00

 eigenvalues of (default mixing * dielectric matrix)
  average eigenvalue GAMMA=   1.3359
  1.1552  1.5166

 Free energy of the ion-electron system (eV)
  ---------------------------------------------------
  alpha Z        PSCENC =       250.56233626
  Ewald energy   TEWEN  =     -2485.06170747
  -Hartree energ DENC   =      -549.90894161
  -exchange      EXHF   =         0.00000000
  -V(xc)+E(xc)   XCENC  =       141.73999950
  PAW double counting   =    106091.03845460  -106114.18504258
  entropy T*S    EENTRO =         0.00000000
  eigenvalues    EBANDS =      -463.45346560
  atomic energy  EATOM  =      3040.52701931
  ---------------------------------------------------
  free energy    TOTEN  =       -88.74134758 eV

  energy without entropy =      -88.74134758  energy(sigma->0) =      -88.74134758


--------------------------------------------------------------------------------------------------------




----------------------------------------- Iteration    1(   8)  ---------------------------------------


    POTLOK:  cpu time    0.09: real time    0.09
    SETDIJ:  cpu time    0.02: real time    0.02
     EDDAV:  cpu time   10.31: real time   10.32
 BZINTS: Fermi energy:  3.268686; 38.000000 electrons
         Band energy:-370.720874;  BLOECHL correction: -0.054795
       DOS:  cpu time    0.10: real time    0.10
    CHARGE:  cpu time    0.46: real time    0.46
    MIXING:  cpu time    0.00: real time    0.00
    --------------------------------------------
      LOOP:  cpu time   10.98: real time   11.00

 eigenvalue-minimisations  :  6432
 total energy-change (2. order) : 0.2802358E+02  (-0.2300077E+02)
 number of electron      37.9999991 magnetization       0.0018881
 augmentation part        7.5608872 magnetization      -0.0228787

 Broyden mixing:
  rms(total) = 0.80163E+01    rms(broyden)= 0.80152E+01
  rms(prec ) = 0.14713E+02
  weight for this iteration     100.00

 eigenvalues of (default mixing * dielectric matrix)
  average eigenvalue GAMMA=   1.0100
  1.5426  1.1744  0.3132

 Free energy of the ion-electron system (eV)
  ---------------------------------------------------
  alpha Z        PSCENC =       250.56233626
  Ewald energy   TEWEN  =     -2485.06170747
  -Hartree energ DENC   =      -626.49197108
  -exchange      EXHF   =         0.00000000
  -V(xc)+E(xc)   XCENC  =       146.00111244
  PAW double counting   =     22835.87580481   -22851.40949266
  entropy T*S    EENTRO =         0.00000000
  eigenvalues    EBANDS =      -370.72087401
  atomic energy  EATOM  =      3040.52701931
  ---------------------------------------------------
  free energy    TOTEN  =       -60.71777240 eV

  energy without entropy =      -60.71777240  energy(sigma->0) =      -60.71777240


--------------------------------------------------------------------------------------------------------




----------------------------------------- Iteration    1(   9)  ---------------------------------------


    POTLOK:  cpu time    0.09: real time    0.09
    SETDIJ:  cpu time    0.02: real time    0.02
     EDDAV:  cpu time   10.56: real time   10.58
 BZINTS: Fermi energy:  3.489398; 38.000000 electrons
         Band energy:-364.130369;  BLOECHL correction: -0.042814
       DOS:  cpu time    0.09: real time    0.09
    CHARGE:  cpu time    0.46: real time    0.46
    MIXING:  cpu time    0.00: real time    0.00
    --------------------------------------------
      LOOP:  cpu time   11.22: real time   11.24

 eigenvalue-minimisations  :  6328
 total energy-change (2. order) : 0.4386826E+01  (-0.2954604E+01)
 number of electron      37.9999990 magnetization      -0.0845958
 augmentation part        6.7644136 magnetization      -0.0958048

 Broyden mixing:
  rms(total) = 0.78681E+01    rms(broyden)= 0.78681E+01
  rms(prec ) = 0.12967E+02
  weight for this iteration     100.00

 eigenvalues of (default mixing * dielectric matrix)
  average eigenvalue GAMMA=   0.9064
  1.4312  1.4312  0.4152  0.3479

 Free energy of the ion-electron system (eV)
  ---------------------------------------------------
  alpha Z        PSCENC =       250.56233626
  Ewald energy   TEWEN  =     -2485.06170747
  -Hartree energ DENC   =      -628.97145064
  -exchange      EXHF   =         0.00000000
  -V(xc)+E(xc)   XCENC  =       146.02216576
  PAW double counting   =     22258.81557993   -22274.09452013
  entropy T*S    EENTRO =         0.00000000
  eigenvalues    EBANDS =      -364.13036941
  atomic energy  EATOM  =      3040.52701931
  ---------------------------------------------------
  free energy    TOTEN  =       -56.33094639 eV

  energy without entropy =      -56.33094639  energy(sigma->0) =      -56.33094639


--------------------------------------------------------------------------------------------------------




----------------------------------------- Iteration    1(  10)  ---------------------------------------


    POTLOK:  cpu time    0.09: real time    0.09
    SETDIJ:  cpu time    0.02: real time    0.02
     EDDAV:  cpu time    9.67: real time    9.67
 BZINTS: Fermi energy:  0.934362; 38.000000 electrons
         Band energy:-453.989156;  BLOECHL correction: -0.039949
       DOS:  cpu time    0.09: real time    0.09
    CHARGE:  cpu time    0.46: real time    0.46
    MIXING:  cpu time    0.00: real time    0.00
    --------------------------------------------
      LOOP:  cpu time   10.33: real time   10.34

 eigenvalue-minimisations  :  5952
 total energy-change (2. order) :-0.1112116E+02  (-0.5545270E+01)
 number of electron      37.9999986 magnetization      -0.1772715
 augmentation part        8.6234437 magnetization      -0.1541042

 Broyden mixing:
  rms(total) = 0.68129E+01    rms(broyden)= 0.68122E+01
  rms(prec ) = 0.16113E+02
  weight for this iteration     100.00

 eigenvalues of (default mixing * dielectric matrix)
  average eigenvalue GAMMA=   1.0728
  1.9191  1.9191  0.8484  0.3875  0.2896

 Free energy of the ion-electron system (eV)
  ---------------------------------------------------
  alpha Z        PSCENC =       250.56233626
  Ewald energy   TEWEN  =     -2485.06170747
  -Hartree energ DENC   =      -548.80315932
  -exchange      EXHF   =         0.00000000
  -V(xc)+E(xc)   XCENC  =       140.73354732
  PAW double counting   =     17588.09672759   -17599.51771420
  entropy T*S    EENTRO =         0.00000000
  eigenvalues    EBANDS =      -453.98915591
  atomic energy  EATOM  =      3040.52701931
  ---------------------------------------------------
  free energy    TOTEN  =       -67.45210642 eV

  energy without entropy =      -67.45210642  energy(sigma->0) =      -67.45210642


--------------------------------------------------------------------------------------------------------




----------------------------------------- Iteration    1(  11)  ---------------------------------------


    POTLOK:  cpu time    0.09: real time    0.09
    SETDIJ:  cpu time    0.02: real time    0.02
     EDDAV:  cpu time   10.96: real time   10.95
 BZINTS: Fermi energy: -1.107673; 38.000000 electrons
         Band energy:-485.373005;  BLOECHL correction: -0.002173
       DOS:  cpu time    0.08: real time    0.08
    CHARGE:  cpu time    0.46: real time    0.46
    MIXING:  cpu time    0.00: real time    0.00
    --------------------------------------------
      LOOP:  cpu time   11.61: real time   11.61

 eigenvalue-minimisations  :  6936
 total energy-change (2. order) : 0.1051031E+02  (-0.1401673E+02)
 number of electron      37.9999979 magnetization      -0.0675335
 augmentation part        6.0821183 magnetization      -0.0863851

 Broyden mixing:
  rms(total) = 0.39949E+01    rms(broyden)= 0.39935E+01
  rms(prec ) = 0.64188E+01
  weight for this iteration     100.00

 eigenvalues of (default mixing * dielectric matrix)
  average eigenvalue GAMMA=   0.9905
  2.6127  0.9730  0.9336  0.9336  0.2647  0.2256

 Free energy of the ion-electron system (eV)
  ---------------------------------------------------
  alpha Z        PSCENC =       250.56233626
  Ewald energy   TEWEN  =     -2485.06170747
  -Hartree energ DENC   =      -507.95866365
  -exchange      EXHF   =         0.00000000
  -V(xc)+E(xc)   XCENC  =       137.12045789
  PAW double counting   =     10854.82857726   -10861.58681171
  entropy T*S    EENTRO =         0.00000000
  eigenvalues    EBANDS =      -485.37300466
  atomic energy  EATOM  =      3040.52701931
  ---------------------------------------------------
  free energy    TOTEN  =       -56.94179676 eV

  energy without entropy =      -56.94179676  energy(sigma->0) =      -56.94179676


--------------------------------------------------------------------------------------------------------




----------------------------------------- Iteration    1(  12)  ---------------------------------------


    POTLOK:  cpu time    0.09: real time    0.09
    SETDIJ:  cpu time    0.02: real time    0.02
     EDDAV:  cpu time   10.77: real time   10.78
 BZINTS: Fermi energy:  0.977238; 38.000000 electrons
         Band energy:-421.146016;  BLOECHL correction: -0.043522
       DOS:  cpu time    0.10: real time    0.10
    CHARGE:  cpu time    0.46: real time    0.46
    MIXING:  cpu time    0.00: real time    0.00
    --------------------------------------------
      LOOP:  cpu time   11.44: real time   11.46

 eigenvalue-minimisations  :  6792
 total energy-change (2. order) :-0.1443925E+02  (-0.1757743E+02)
 number of electron      37.9999989 magnetization      -0.2245072
 augmentation part        8.6810440 magnetization      -0.1184403

 Broyden mixing:
  rms(total) = 0.71008E+01    rms(broyden)= 0.71005E+01
  rms(prec ) = 0.16112E+02
  weight for this iteration     100.00

 eigenvalues of (default mixing * dielectric matrix)
  average eigenvalue GAMMA=   0.9056
  2.5437  1.0200  1.0200  0.9269  0.3134  0.3134  0.2017

 Free energy of the ion-electron system (eV)
  ---------------------------------------------------
  alpha Z        PSCENC =       250.56233626
  Ewald energy   TEWEN  =     -2485.06170747
  -Hartree energ DENC   =      -593.37569531
  -exchange      EXHF   =         0.00000000
  -V(xc)+E(xc)   XCENC  =       143.26363665
  PAW double counting   =      2789.80836018    -2795.95897655
  entropy T*S    EENTRO =         0.00000000
  eigenvalues    EBANDS =      -421.14601618
  atomic energy  EATOM  =      3040.52701931
  ---------------------------------------------------
  free energy    TOTEN  =       -71.38104311 eV

  energy without entropy =      -71.38104311  energy(sigma->0) =      -71.38104311


--------------------------------------------------------------------------------------------------------




----------------------------------------- Iteration    1(  13)  ---------------------------------------


    POTLOK:  cpu time    0.09: real time    0.09
    SETDIJ:  cpu time    0.02: real time    0.02
     EDDAV:  cpu time   10.16: real time   10.16
 BZINTS: Fermi energy:  1.068384; 38.000000 electrons
         Band energy:-400.640153;  BLOECHL correction:  0.000000
       DOS:  cpu time    0.02: real time    0.02
    CHARGE:  cpu time    0.46: real time    0.46
    MIXING:  cpu time    0.00: real time    0.00
    --------------------------------------------
      LOOP:  cpu time   10.74: real time   10.75

 eigenvalue-minimisations  :  6328
 total energy-change (2. order) : 0.2608681E+02  (-0.3643740E+01)
 number of electron      37.9999980 magnetization      -0.1446622
 augmentation part        5.7051523 magnetization      -0.1680712

 Broyden mixing:
  rms(total) = 0.17638E+01    rms(broyden)= 0.17631E+01
  rms(prec ) = 0.34192E+01
  weight for this iteration     100.00

 eigenvalues of (default mixing * dielectric matrix)
  average eigenvalue GAMMA=   0.8876
  2.3925  1.0913  1.0913  1.0705  0.5761  0.3376  0.3376  0.2037

 Free energy of the ion-electron system (eV)
  ---------------------------------------------------
  alpha Z        PSCENC =       250.56233626
  Ewald energy   TEWEN  =     -2485.06170747
  -Hartree energ DENC   =      -587.76500594
  -exchange      EXHF   =         0.00000000
  -V(xc)+E(xc)   XCENC  =       142.25989164
  PAW double counting   =      3057.75949883    -3062.93611458
  entropy T*S    EENTRO =         0.00000000
  eigenvalues    EBANDS =      -400.64015281
  atomic energy  EATOM  =      3040.52701931
  ---------------------------------------------------
  free energy    TOTEN  =       -45.29423476 eV

  energy without entropy =      -45.29423476  energy(sigma->0) =      -45.29423476


--------------------------------------------------------------------------------------------------------




----------------------------------------- Iteration    1(  14)  ---------------------------------------


    POTLOK:  cpu time    0.08: real time    0.09
    SETDIJ:  cpu time    0.02: real time    0.02
     EDDAV:  cpu time   10.78: real time   10.79
 BZINTS: Fermi energy:  1.620361; 38.000000 electrons
         Band energy:-384.359839;  BLOECHL correction:  0.000000
       DOS:  cpu time    0.02: real time    0.02
    CHARGE:  cpu time    0.46: real time    0.46
    MIXING:  cpu time    0.00: real time    0.00
    --------------------------------------------
      LOOP:  cpu time   11.37: real time   11.38

 eigenvalue-minimisations  :  6808
 total energy-change (2. order) : 0.2230500E+01  (-0.4782327E+00)
 number of electron      37.9999979 magnetization      -0.0852673
 augmentation part        5.2837424 magnetization      -0.0919516

 Broyden mixing:
  rms(total) = 0.14694E+01    rms(broyden)= 0.14693E+01
  rms(prec ) = 0.25198E+01
  weight for this iteration     100.00

 eigenvalues of (default mixing * dielectric matrix)
  average eigenvalue GAMMA=   0.8747
  2.3085  1.1988  1.0527  1.0527  0.7724  0.6073  0.3386  0.3386  0.2033

 Free energy of the ion-electron system (eV)
  ---------------------------------------------------
  alpha Z        PSCENC =       250.56233626
  Ewald energy   TEWEN  =     -2485.06170747
  -Hartree energ DENC   =      -602.00014169
  -exchange      EXHF   =         0.00000000
  -V(xc)+E(xc)   XCENC  =       143.02924806
  PAW double counting   =      3257.68682948    -3263.44748007
  entropy T*S    EENTRO =         0.00000000
  eigenvalues    EBANDS =      -384.35983851
  atomic energy  EATOM  =      3040.52701931
  ---------------------------------------------------
  free energy    TOTEN  =       -43.06373463 eV

  energy without entropy =      -43.06373463  energy(sigma->0) =      -43.06373463


--------------------------------------------------------------------------------------------------------




----------------------------------------- Iteration    1(  15)  ---------------------------------------


    POTLOK:  cpu time    0.09: real time    0.09
    SETDIJ:  cpu time    0.02: real time    0.02
     EDDAV:  cpu time    9.88: real time    9.89
 BZINTS: Fermi energy:  2.368096; 38.000000 electrons
         Band energy:-363.614760;  BLOECHL correction:  0.000000
       DOS:  cpu time    0.02: real time    0.02
    CHARGE:  cpu time    0.46: real time    0.46
    MIXING:  cpu time    0.00: real time    0.00
    --------------------------------------------
      LOOP:  cpu time   10.47: real time   10.48

 eigenvalue-minimisations  :  6112
 total energy-change (2. order) : 0.2025972E+01  (-0.1524099E+00)
 number of electron      37.9999980 magnetization      -0.0593499
 augmentation part        5.0619764 magnetization      -0.0601775

 Broyden mixing:
  rms(total) = 0.93874E+00    rms(broyden)= 0.93872E+00
  rms(prec ) = 0.16020E+01
  weight for this iteration     100.00

 eigenvalues of (default mixing * dielectric matrix)
  average eigenvalue GAMMA=   0.9110
  2.2555  1.2455  1.2455  1.3039  0.8518  0.6582  0.6582  0.3439  0.3439  0.2033

 Free energy of the ion-electron system (eV)
  ---------------------------------------------------
  alpha Z        PSCENC =       250.56233626
  Ewald energy   TEWEN  =     -2485.06170747
  -Hartree energ DENC   =      -620.85701879
  -exchange      EXHF   =         0.00000000
  -V(xc)+E(xc)   XCENC  =       144.25608188
  PAW double counting   =      3518.22285633    -3525.07257002
  entropy T*S    EENTRO =         0.00000000
  eigenvalues    EBANDS =      -363.61476039
  atomic energy  EATOM  =      3040.52701931
  ---------------------------------------------------
  free energy    TOTEN  =       -41.03776288 eV

  energy without entropy =      -41.03776288  energy(sigma->0) =      -41.03776288


--------------------------------------------------------------------------------------------------------




----------------------------------------- Iteration    1(  16)  ---------------------------------------


    POTLOK:  cpu time    0.09: real time    0.09
    SETDIJ:  cpu time    0.02: real time    0.02
     EDDAV:  cpu time   10.84: real time   10.85
 BZINTS: Fermi energy:  2.618566; 38.000000 electrons
         Band energy:-350.734276;  BLOECHL correction:  0.000000
       DOS:  cpu time    0.01: real time    0.02
    CHARGE:  cpu time    0.46: real time    0.46
    MIXING:  cpu time    0.00: real time    0.00
    --------------------------------------------
      LOOP:  cpu time   11.43: real time   11.47

 eigenvalue-minimisations  :  6816
 total energy-change (2. order) : 0.5363966E+00  (-0.6397187E-01)
 number of electron      37.9999980 magnetization      -0.0198954
 augmentation part        4.8887275 magnetization      -0.0206130

 Broyden mixing:
  rms(total) = 0.72379E+00    rms(broyden)= 0.72378E+00
  rms(prec ) = 0.13121E+01
  weight for this iteration     100.00

 eigenvalues of (default mixing * dielectric matrix)
  average eigenvalue GAMMA=   1.0215
  2.2924  1.6283  1.6283  1.2999  1.0057  1.0057  0.9083  0.5823  0.3411  0.3411
  0.2033

 Free energy of the ion-electron system (eV)
  ---------------------------------------------------
  alpha Z        PSCENC =       250.56233626
  Ewald energy   TEWEN  =     -2485.06170747
  -Hartree energ DENC   =      -633.30276243
  -exchange      EXHF   =         0.00000000
  -V(xc)+E(xc)   XCENC  =       145.04297268
  PAW double counting   =      3640.85727116    -3648.39221938
  entropy T*S    EENTRO =         0.00000000
  eigenvalues    EBANDS =      -350.73427644
  atomic energy  EATOM  =      3040.52701931
  ---------------------------------------------------
  free energy    TOTEN  =       -40.50136632 eV

  energy without entropy =      -40.50136632  energy(sigma->0) =      -40.50136632


--------------------------------------------------------------------------------------------------------




----------------------------------------- Iteration    1(  17)  ---------------------------------------


    POTLOK:  cpu time    0.21: real time    0.21
    SETDIJ:  cpu time    0.02: real time    0.02
     EDDAV:  cpu time   10.65: real time   10.68
 BZINTS: Fermi energy:  2.902288; 38.000000 electrons
         Band energy:-337.105751;  BLOECHL correction:  0.000000
       DOS:  cpu time    0.02: real time    0.02
    CHARGE:  cpu time    0.46: real time    0.46
    MIXING:  cpu time    0.00: real time    0.00
    --------------------------------------------
      LOOP:  cpu time   11.37: real time   11.40

 eigenvalue-minimisations  :  6584
 total energy-change (2. order) :-0.5904268E-01  (-0.6125696E-01)
 number of electron      37.9999980 magnetization      -0.0008479
 augmentation part        4.7339878 magnetization      -0.0000366

 Broyden mixing:
  rms(total) = 0.62688E+00    rms(broyden)= 0.62687E+00
  rms(prec ) = 0.14061E+01
  weight for this iteration     100.00

 eigenvalues of (default mixing * dielectric matrix)
  average eigenvalue GAMMA=   1.1725
  2.4310  2.4310  2.4339  1.3038  1.3038  1.0053  0.9460  0.6900  0.6388  0.3414
  0.3414  0.2033

 Free energy of the ion-electron system (eV)
  ---------------------------------------------------
  alpha Z        PSCENC =       250.56233626
  Ewald energy   TEWEN  =     -2485.06170747
  -Hartree energ DENC   =      -647.12956533
  -exchange      EXHF   =         0.00000000
  -V(xc)+E(xc)   XCENC  =       145.93982832
  PAW double counting   =      3605.30307308    -3613.59564262
  entropy T*S    EENTRO =         0.00000000
  eigenvalues    EBANDS =      -337.10575055
  atomic energy  EATOM  =      3040.52701931
  ---------------------------------------------------
  free energy    TOTEN  =       -40.56040900 eV

  energy without entropy =      -40.56040900  energy(sigma->0) =      -40.56040900


--------------------------------------------------------------------------------------------------------




----------------------------------------- Iteration    1(  18)  ---------------------------------------


    POTLOK:  cpu time    0.09: real time    0.09
    SETDIJ:  cpu time    0.02: real time    0.02
     EDDAV:  cpu time   10.12: real time   10.14
 BZINTS: Fermi energy:  3.189258; 38.000000 electrons
         Band energy:-324.626144;  BLOECHL correction:  0.000000
       DOS:  cpu time    0.02: real time    0.02
    CHARGE:  cpu time    0.46: real time    0.46
    MIXING:  cpu time    0.00: real time    0.00
    --------------------------------------------
      LOOP:  cpu time   10.71: real time   10.73

 eigenvalue-minimisations  :  6184
 total energy-change (2. order) : 0.2881215E+00  (-0.7970255E-01)
 number of electron      37.9999980 magnetization       0.0081048
 augmentation part        4.6521623 magnetization       0.0081957

 Broyden mixing:
  rms(total) = 0.37453E+00    rms(broyden)= 0.37447E+00
  rms(prec ) = 0.95548E+00
  weight for this iteration     100.00

 eigenvalues of (default mixing * dielectric matrix)
  average eigenvalue GAMMA=   1.2108
  2.8268  2.8268  1.8633  1.5668  1.5668  1.0449  0.9468  0.8652  0.7400  0.6068
  0.3414  0.3414  0.2033

 Free energy of the ion-electron system (eV)
  ---------------------------------------------------
  alpha Z        PSCENC =       250.56233626
  Ewald energy   TEWEN  =     -2485.06170747
  -Hartree energ DENC   =      -659.36440995
  -exchange      EXHF   =         0.00000000
  -V(xc)+E(xc)   XCENC  =       146.86404736
  PAW double counting   =      3693.82548102    -3702.99890959
  entropy T*S    EENTRO =         0.00000000
  eigenvalues    EBANDS =      -324.62614445
  atomic energy  EATOM  =      3040.52701931
  ---------------------------------------------------
  free energy    TOTEN  =       -40.27228752 eV

  energy without entropy =      -40.27228752  energy(sigma->0) =      -40.27228752


--------------------------------------------------------------------------------------------------------




----------------------------------------- Iteration    1(  19)  ---------------------------------------


    POTLOK:  cpu time    0.09: real time    0.09
    SETDIJ:  cpu time    0.02: real time    0.02
     EDDAV:  cpu time   10.23: real time   10.23
 BZINTS: Fermi energy:  3.327417; 38.000000 electrons
         Band energy:-318.954113;  BLOECHL correction:  0.000000
       DOS:  cpu time    0.02: real time    0.02
    CHARGE:  cpu time    0.46: real time    0.46
    MIXING:  cpu time    0.00: real time    0.00
    --------------------------------------------
      LOOP:  cpu time   10.82: real time   10.82

 eigenvalue-minimisations  :  6280
 total energy-change (2. order) :-0.6652835E-01  (-0.2063755E-01)
 number of electron      37.9999981 magnetization       0.0065206
 augmentation part        4.6074019 magnetization       0.0067668

 Broyden mixing:
  rms(total) = 0.46672E+00    rms(broyden)= 0.46671E+00
  rms(prec ) = 0.97215E+00
  weight for this iteration     100.00

 eigenvalues of (default mixing * dielectric matrix)
  average eigenvalue GAMMA=   1.2274
  4.0679  2.3812  1.7783  1.7783  1.1262  1.1262  1.1229  0.2033  0.3414  0.3414
  0.8212  0.8212  0.6343  0.6399

 Free energy of the ion-electron system (eV)
  ---------------------------------------------------
  alpha Z        PSCENC =       250.56233626
  Ewald energy   TEWEN  =     -2485.06170747
  -Hartree energ DENC   =      -665.02231781
  -exchange      EXHF   =         0.00000000
  -V(xc)+E(xc)   XCENC  =       147.30537137
  PAW double counting   =      3790.01687753    -3799.71228236
  entropy T*S    EENTRO =         0.00000000
  eigenvalues    EBANDS =      -318.95411271
  atomic energy  EATOM  =      3040.52701931
  ---------------------------------------------------
  free energy    TOTEN  =       -40.33881587 eV

  energy without entropy =      -40.33881587  energy(sigma->0) =      -40.33881587


--------------------------------------------------------------------------------------------------------




----------------------------------------- Iteration    1(  20)  ---------------------------------------


    POTLOK:  cpu time    0.09: real time    0.09
    SETDIJ:  cpu time    0.02: real time    0.02
     EDDAV:  cpu time   10.37: real time   10.36
 BZINTS: Fermi energy:  3.266622; 38.000000 electrons
         Band energy:-320.346746;  BLOECHL correction:  0.000000
       DOS:  cpu time    0.02: real time    0.02
    CHARGE:  cpu time    0.46: real time    0.46
    MIXING:  cpu time    0.00: real time    0.00
    --------------------------------------------
      LOOP:  cpu time   10.95: real time   10.95

 eigenvalue-minimisations  :  6384
 total energy-change (2. order) : 0.7567937E-01  (-0.1313633E-02)
 number of electron      37.9999981 magnetization      -0.0055894
 augmentation part        4.6247574 magnetization      -0.0056599

 Broyden mixing:
  rms(total) = 0.44484E+00    rms(broyden)= 0.44484E+00
  rms(prec ) = 0.89579E+00
  weight for this iteration     100.00

 eigenvalues of (default mixing * dielectric matrix)
  average eigenvalue GAMMA=   1.2153
  3.1584  2.3017  2.3017  1.6699  1.2928  1.2928  1.4033  0.2033  0.3414  0.3414
  0.9157  0.9157  0.8188  0.6089  0.6632

 Free energy of the ion-electron system (eV)
  ---------------------------------------------------
  alpha Z        PSCENC =       250.56233626
  Ewald energy   TEWEN  =     -2485.06170747
  -Hartree energ DENC   =      -663.49177946
  -exchange      EXHF   =         0.00000000
  -V(xc)+E(xc)   XCENC  =       147.23129246
  PAW double counting   =      3768.73759325    -3778.42114512
  entropy T*S    EENTRO =         0.00000000
  eigenvalues    EBANDS =      -320.34674574
  atomic energy  EATOM  =      3040.52701931
  ---------------------------------------------------
  free energy    TOTEN  =       -40.26313650 eV

[...]
      3     -29.9950      1.00000
      4     -21.9021      1.00000
      5     -13.4537      1.00000
      6     -13.2577      1.00000
      7     -13.1085      1.00000
      8      -7.4690      1.00000
      9      -7.3865      1.00000
     10      -7.1889      1.00000
     11      -1.1832      1.00000
     12      -0.6877      1.00000
     13      -0.4671      1.00000
     14       0.2065      1.00000
     15       0.4138      1.00000
     16       0.6085      1.00000
     17       2.0914      1.00000
     18       2.2487      1.00000
     19       2.6463      1.00000
     20       6.3271      0.00000
     21       6.4761      0.00000
     22       6.6518      0.00000
     23       8.4575      0.00000
     24       9.8735      0.00000
     25      10.2356      0.00000
     26      10.9728      0.00000
     27      11.2442      0.00000
     28      11.4570      0.00000
     29      12.8561      0.00000
     30      15.2602      0.00000
     31      16.5250      0.00000
     32      16.8963      0.00000

 k-point    38 :       0.3125    0.3125    0.4375
  band No.  band energies     occupation 
      1     -30.0731      1.00000
      2     -30.0137      1.00000
      3     -30.0134      1.00000
      4     -21.8961      1.00000
      5     -13.4022      1.00000
      6     -13.2219      1.00000
      7     -13.0737      1.00000
      8      -7.6528      1.00000
      9      -7.4752      1.00000
     10      -7.2825      1.00000
     11      -1.0358      1.00000
     12      -0.4904      1.00000
     13      -0.3864      1.00000
     14      -0.0720      1.00000
     15       0.4831      1.00000
     16       0.4909      1.00000
     17       2.3335      1.00000
     18       2.3904      1.00000
     19       2.5542      1.00000
     20       6.4498      0.00000
     21       6.5211      0.00000
     22       6.5423      0.00000
     23       9.2358      0.00000
     24       9.4268      0.00000
     25      10.4157      0.00000
     26      10.4293      0.00000
     27      10.6995      0.00000
     28      11.5125      0.00000
     29      12.3066      0.00000
     30      14.9548      0.00000
     31      16.6977      0.00000
     32      17.3410      0.00000

 k-point    39 :       0.4375    0.3125    0.4375
  band No.  band energies     occupation 
      1     -30.0724      1.00000
      2     -30.0263      1.00000
      3     -30.0130      1.00000
      4     -21.8779      1.00000
      5     -13.2805      1.00000
      6     -13.1708      1.00000
      7     -13.0582      1.00000
      8      -7.7080      1.00000
      9      -7.6219      1.00000
     10      -7.4855      1.00000
     11      -1.2259      1.00000
     12      -0.6814      1.00000
     13      -0.3983      1.00000
     14       0.0252      1.00000
     15       0.3903      1.00000
     16       0.4926      1.00000
     17       2.4011      1.00000
     18       2.6044      1.00000
     19       2.6975      1.00000
     20       6.5796      0.00000
     21       6.7002      0.00000
     22       6.7469      0.00000
     23       9.1933      0.00000
     24       9.7438      0.00000
     25      10.0646      0.00000
     26      10.2442      0.00000
     27      10.6307      0.00000
     28      11.8648      0.00000
     29      12.6982      0.00000
     30      15.1071      0.00000
     31      17.0613      0.00000
     32      17.3233      0.00000

 k-point    40 :       0.4375    0.4375    0.4375
  band No.  band energies     occupation 
      1     -30.0718      1.00000
      2     -30.0257      1.00000
      3     -30.0256      1.00000
      4     -21.8607      1.00000
      5     -13.1982      1.00000
      6     -13.0584      1.00000
      7     -13.0241      1.00000
      8      -7.8461      1.00000
      9      -7.8061      1.00000
     10      -7.6760      1.00000
     11      -1.3674      1.00000
     12      -0.7692      1.00000
     13      -0.6461      1.00000
     14       0.2773      1.00000
     15       0.4292      1.00000
     16       0.4849      1.00000
     17       2.6451      1.00000
     18       2.6898      1.00000
     19       2.9218      1.00000
     20       6.7958      0.00000
     21       6.7994      0.00000
     22       6.9046      0.00000
     23       9.2326      0.00000
     24       9.5608      0.00000
     25       9.6548      0.00000
     26      10.2906      0.00000
     27      10.3268      0.00000
     28      12.4929      0.00000
     29      12.7810      0.00000
     30      15.0385      0.00000
     31      17.4977      0.00000
     32      17.6511      0.00000


--------------------------------------------------------------------------------------------------------


 soft charge-density along one line, spin component           1
         0         1         2         3         4         5         6         7         8         9
 total charge-density along one line
 
 soft charge-density along one line, spin component           2
         0         1         2         3         4         5         6         7         8         9
 total charge-density along one line
 
 pseudopotential strength for first ion, spin component:           1
  1.249  -5.067   0.000  -0.005   0.000   0.000   0.001   0.000
 -5.067   0.704  -0.000   0.003  -0.000   0.000  -0.002   0.000
  0.000  -0.000  -7.671  -0.000  -0.000   4.466  -0.000  -0.000
 -0.005   0.003  -0.000  -7.672  -0.000  -0.000   4.464  -0.000
  0.000  -0.000  -0.000  -0.000  -7.671  -0.000  -0.000   4.466
  0.000   0.000   4.466  -0.000  -0.000   6.754   0.000   0.000
  0.001  -0.002  -0.000   4.464  -0.000   0.000   6.755   0.000
  0.000   0.000  -0.000  -0.000   4.466   0.000   0.000   6.754
 -0.000   0.000  -0.000   0.000   0.000  -0.000   0.000   0.000
 -0.000   0.000  -0.002   0.000   0.000  -0.000   0.000   0.000
 -0.001   0.001  -0.000  -0.002   0.000  -0.000  -0.000   0.000
 -0.000   0.000   0.000   0.000  -0.002   0.000   0.000  -0.000
 -0.000   0.000  -0.000   0.000   0.000  -0.000   0.000   0.000
 -0.000   0.000  -0.000   0.000   0.000  -0.000   0.000   0.000
 -0.000   0.000  -0.003   0.000   0.000  -0.001   0.000   0.000
 -0.001   0.001  -0.000  -0.003   0.000  -0.000  -0.000   0.000
 -0.000   0.000   0.000   0.000  -0.003   0.000   0.000  -0.001
 -0.000   0.000  -0.000   0.000   0.000  -0.000   0.000   0.000
 pseudopotential strength for first ion, spin component:           2
  1.249  -5.067   0.000  -0.005   0.000   0.000   0.001   0.000
 -5.067   0.704  -0.000   0.003  -0.000   0.000  -0.002   0.000
  0.000  -0.000  -7.671  -0.000  -0.000   4.466  -0.000  -0.000
 -0.005   0.003  -0.000  -7.672  -0.000  -0.000   4.464  -0.000
  0.000  -0.000  -0.000  -0.000  -7.671  -0.000  -0.000   4.466
  0.000   0.000   4.466  -0.000  -0.000   6.754   0.000   0.000
  0.001  -0.002  -0.000   4.464  -0.000   0.000   6.755   0.000
  0.000   0.000  -0.000  -0.000   4.466   0.000   0.000   6.754
 -0.000   0.000  -0.000   0.000   0.000  -0.000   0.000   0.000
 -0.000   0.000  -0.002   0.000   0.000  -0.000   0.000   0.000
 -0.001   0.001  -0.000  -0.002   0.000  -0.000  -0.000   0.000
 -0.000   0.000   0.000   0.000  -0.002   0.000   0.000  -0.000
 -0.000   0.000  -0.000   0.000   0.000  -0.000   0.000   0.000
 -0.000   0.000   0.000   0.000   0.000  -0.000   0.000   0.000
 -0.000   0.000  -0.003   0.000   0.000  -0.001   0.000   0.000
 -0.001   0.001  -0.000  -0.003   0.000  -0.000  -0.000   0.000
 -0.000   0.000   0.000   0.000  -0.003   0.000   0.000  -0.001
 -0.000   0.000  -0.000   0.000   0.000  -0.000   0.000   0.000
 total augmentation occupancy for first ion, spin component:           1
  2.004  -0.004   0.000  -0.000   0.000   0.000  -0.001   0.000   0.000  -0.000  -0.000   0.000   0.000   0.000   0.000  -0.001
 -0.004   0.390   0.000  -0.018   0.000   0.000   0.004   0.000   0.000   0.000  -0.025   0.000   0.000   0.000   0.000   0.014
  0.000  -0.000   2.021   0.000   0.000  -0.009  -0.000   0.000   0.000  -0.028  -0.000   0.000   0.000   0.000   0.012   0.000
 -0.000  -0.018   0.000   2.021   0.000   0.000  -0.009   0.000   0.000   0.000  -0.017   0.000   0.000   0.000   0.000   0.006
  0.000   0.000   0.000   0.000   2.021   0.000   0.000  -0.009   0.000   0.000   0.000  -0.028   0.000   0.000   0.000   0.000
  0.000   0.000  -0.009   0.000   0.000   0.010  -0.000   0.000   0.000   0.010   0.000   0.000   0.000   0.000  -0.005   0.000
 -0.001   0.004   0.000  -0.009   0.000  -0.000   0.010   0.000   0.000   0.000   0.007   0.000   0.000   0.000   0.000  -0.004
  0.000   0.000   0.000   0.000  -0.009   0.000   0.000   0.010   0.000  -0.000   0.000   0.010   0.000  -0.000   0.000   0.000
  0.000   0.000   0.000   0.000   0.000   0.000   0.000   0.000   2.885   0.000   0.000   0.000   0.000  -1.532   0.000   0.000
 -0.000   0.000  -0.028   0.000   0.000   0.010  -0.000   0.000   0.000   2.657   0.000   0.000   0.000   0.000  -1.407   0.000
 -0.000  -0.025   0.000  -0.017   0.000   0.000   0.007   0.000   0.000   0.000   1.790   0.000   0.000   0.000   0.000  -0.942
  0.000   0.000   0.000   0.000  -0.028   0.000   0.000   0.010  -0.000   0.000   0.000   2.657   0.000   0.000   0.000   0.000
  0.000   0.000  -0.000   0.000   0.000  -0.000   0.000   0.000   0.000  -0.000   0.000   0.000   1.669   0.000   0.000   0.000
  0.000   0.000   0.000   0.000   0.000   0.000   0.000   0.000  -1.532   0.000   0.000   0.000   0.000   0.816   0.000   0.000
  0.000  -0.000   0.012   0.000   0.000  -0.005   0.000  -0.000   0.000  -1.407   0.000   0.000   0.000   0.000   0.747  -0.000
 -0.001   0.014  -0.000   0.006   0.000   0.000  -0.004   0.000   0.000   0.000  -0.942   0.000   0.000   0.000  -0.000   0.497
  0.000   0.000   0.000   0.000   0.012   0.000   0.000  -0.005   0.000   0.000   0.000  -1.407   0.000   0.000   0.000   0.000
  0.000   0.000   0.000   0.000   0.000  -0.000   0.000   0.000   0.000   0.000   0.000   0.000  -0.878   0.000   0.000   0.000
 total augmentation occupancy for first ion, spin component:           2
  0.000   0.000   0.000  -0.000   0.000   0.000  -0.000   0.000   0.000  -0.000   0.000   0.000   0.000   0.000   0.000  -0.000
  0.000   0.000   0.000  -0.000   0.000   0.000  -0.000   0.000   0.000   0.000   0.000   0.000   0.000   0.000   0.000  -0.000
  0.000   0.000  -0.000   0.000   0.000  -0.000   0.000   0.000   0.000  -0.000   0.000   0.000   0.000   0.000   0.000   0.000
 -0.000  -0.000   0.000  -0.000   0.000  -0.000   0.000   0.000   0.000   0.000   0.000  -0.000   0.000   0.000   0.000  -0.000
  0.000   0.000   0.000   0.000  -0.000   0.000   0.000  -0.000   0.000   0.000   0.000  -0.000   0.000   0.000  -0.000   0.000
  0.000   0.000  -0.000  -0.000   0.000  -0.000   0.000   0.000   0.000   0.000   0.000   0.000   0.000   0.000  -0.000   0.000
 -0.000  -0.000   0.000   0.000   0.000   0.000  -0.000   0.000   0.000  -0.000   0.000   0.000   0.000   0.000   0.000  -0.000
  0.000   0.000   0.000   0.000  -0.000   0.000   0.000  -0.000  -0.000  -0.000   0.000   0.000   0.000   0.000   0.000   0.000
  0.000   0.000   0.000   0.000   0.000   0.000   0.000  -0.000  -0.000   0.000   0.000  -0.000   0.000   0.000   0.000   0.000
 -0.000   0.000  -0.000   0.000   0.000   0.000  -0.000  -0.000   0.000  -0.000   0.000   0.000   0.000   0.000   0.000   0.000
  0.000   0.000   0.000   0.000   0.000   0.000   0.000   0.000   0.000   0.000  -0.000   0.000   0.000   0.000   0.000   0.000
  0.000   0.000   0.000  -0.000  -0.000   0.000   0.000   0.000  -0.000   0.000   0.000  -0.000   0.000   0.000   0.000   0.000
  0.000   0.000   0.000   0.000   0.000   0.000   0.000   0.000   0.000   0.000   0.000   0.000  -0.000   0.000  -0.000   0.000
  0.000   0.000   0.000   0.000   0.000   0.000   0.000   0.000   0.000   0.000   0.000   0.000   0.000  -0.000   0.000   0.000
  0.000   0.000   0.000   0.000  -0.000  -0.000   0.000   0.000   0.000   0.000   0.000   0.000  -0.000   0.000  -0.000   0.000
 -0.000  -0.000   0.000  -0.000   0.000   0.000  -0.000   0.000   0.000   0.000   0.000   0.000   0.000   0.000   0.000  -0.000
 -0.000   0.000   0.000   0.000   0.000   0.000   0.000  -0.000   0.000   0.000  -0.000   0.000   0.000   0.000   0.000   0.000
  0.000   0.000  -0.000   0.000   0.000   0.000   0.000   0.000   0.000   0.000   0.000   0.000   0.000   0.000  -0.000   0.000


------------------------ aborting loop because EDIFF is reached ----------------------------------------


 


 total charge     
 
# of ion     s       p       d       tot
----------------------------------------
  1        2.005   5.646   0.304   7.955
  2        0.300   6.408   1.903   8.610
  3        1.574   3.319   0.000   4.893
  4        1.551   3.588   0.000   5.139
  5        1.566   3.450   0.000   5.015
------------------------------------------------
tot        6.996  22.410   2.207  31.613
 


 magnetization (x)
 
# of ion     s       p       d       tot
----------------------------------------
  1        0.000   0.000   0.000   0.000
  2       -0.000   0.000   0.000   0.000
  3       -0.000  -0.000   0.000  -0.000
  4       -0.000  -0.000   0.000  -0.000
  5       -0.000  -0.000   0.000  -0.000
------------------------------------------------
tot       -0.000  -0.000   0.000  -0.000
 
    CHARGE:  cpu time    0.46: real time    0.46
    FORLOC:  cpu time    0.00: real time    0.00
    FORNL :  cpu time    2.55: real time    2.56
    STRESS:  cpu time    7.60: real time    7.62
    FORCOR:  cpu time    0.09: real time    0.09
    FORHAR:  cpu time    0.01: real time    0.01
    MIXING:  cpu time    0.00: real time    0.00
    OFIELD:  cpu time    0.00: real time    0.00

  FORCE on cell =-STRESS in cart. coord.  units (eV):
  Direction    XX          YY          ZZ          XY          YZ          ZX
  --------------------------------------------------------------------------------------
  Alpha Z   250.56234   250.56234   250.56234
  Ewald    -817.14865  -817.14865  -850.76730     0.00000    -0.00000     0.00000
  Hartree   224.40158   224.40158   201.42064    -0.00000    -0.00000    -0.00000
  E(xc)    -171.24415  -171.24415  -171.31287    -0.00000     0.00000    -0.00000
  Local     -49.08839   -49.08839     7.79276    -0.00000    -0.00000    -0.00000
  n-local  -129.18664  -126.63093  -128.33634    -0.36051    -0.32500    -0.28803
  augment    63.23613    63.23613    62.95866     0.00000    -0.00000     0.00000
  Kinetic   621.26257   632.93211   626.69463    -3.05818    -3.01965    -2.62701
  Fock        0.00000     0.00000     0.00000     0.00000     0.00000     0.00000
  -------------------------------------------------------------------------------------
  Total      -0.09260    -0.09260    -0.98749     0.00000     0.00000     0.00000
  in kB      -2.21852    -2.21852   -23.65816     0.00000     0.00000     0.00000
  external pressure =       -9.37 kB  Pullay stress =        0.00 kB


 VOLUME and BASIS-vectors are now :
 -----------------------------------------------------------------------------
  energy-cutoff  :      520.00
  volume of cell :       66.87
      direct lattice vectors                 reciprocal lattice vectors
     4.011927000  0.000000000  0.000000000     0.249256779  0.000000000  0.000000000
     0.000000000  4.011927000  0.000000000     0.000000000  0.249256779  0.000000000
     0.000000000  0.000000000  4.154844000     0.000000000  0.000000000  0.240682923

  length of vectors
     4.011927000  4.011927000  4.154844000     0.249256779  0.249256779  0.240682923


 FORCES acting on ions
    electron-ion (+dipol)            ewald-force                    non-local-force                 convergence-correction
 -----------------------------------------------------------------------------------------------
   -.838E-14 -.381E-14 0.472E+01   0.399E-14 -.172E-14 -.417E+01   0.000E+00 -.867E-18 -.604E+00   -.280E-13 0.354E-14 0.114E-01
   0.159E-12 0.104E-11 0.468E+02   -.426E-14 0.865E-14 -.457E+02   0.000E+00 0.694E-17 -.504E+00   -.937E-13 0.920E-14 -.870E-01
   -.865E-14 0.185E-12 0.138E+02   -.123E-14 -.117E-14 -.144E+02   0.000E+00 0.000E+00 0.527E+00   -.516E-15 -.310E-13 0.126E-02
   0.123E-12 -.735E-13 0.138E+02   0.329E-14 -.506E-14 -.144E+02   0.000E+00 0.000E+00 0.527E+00   -.125E-13 0.118E-13 0.126E-02
   0.122E-12 0.160E-11 -.719E+02   -.220E-14 -.822E-15 0.787E+02   0.000E+00 0.000E+00 -.718E+01   -.243E-13 -.544E-13 -.279E-01
 -----------------------------------------------------------------------------------------------
   0.387E-12 0.275E-11 0.734E+01   -.409E-15 -.121E-15 -.142E-13   0.000E+00 0.607E-17 -.724E+01   -.159E-12 -.609E-13 -.101E+00
 
 
 POSITION                                       TOTAL-FORCE (eV/Angst)
 -----------------------------------------------------------------------------------
      0.00000      0.00000      0.06003        -0.000000     -0.000000     -0.044302
      2.00596      2.00596      2.18892         0.000000     -0.000000      0.490066
      0.00000      2.00596      2.05920         0.000000     -0.000000     -0.048067
      2.00596      0.00000      2.05920         0.000000     -0.000000     -0.048067
      2.00596      2.00596      4.07792         0.000000      0.000000     -0.349630
 -----------------------------------------------------------------------------------
    total drift:                                0.000000      0.000000      0.004820


--------------------------------------------------------------------------------------------------------



  FREE ENERGIE OF THE ION-ELECTRON SYSTEM (eV)
  ---------------------------------------------------
  free  energy   TOTEN  =       -39.92349821 eV

  energy  without entropy=      -39.92349821  energy(sigma->0) =      -39.92349821
 


--------------------------------------------------------------------------------------------------------


    POTLOK:  cpu time    0.11: real time    0.11


--------------------------------------------------------------------------------------------------------


 writing wavefunctions
     LOOP+:  cpu time  330.27: real time  333.18
    4ORBIT:  cpu time    0.00: real time    0.00
 


 total charge     
 
# of ion     s       p       d       tot
----------------------------------------
  1        2.005   5.646   0.304   7.955
  2        0.300   6.408   1.903   8.610
  3        1.574   3.319   0.000   4.893
  4        1.551   3.588   0.000   5.139
  5        1.566   3.450   0.000   5.015
------------------------------------------------
tot        6.996  22.410   2.207  31.613
 


 magnetization (x)
 
# of ion     s       p       d       tot
----------------------------------------
  1        0.000   0.000   0.000   0.000
  2       -0.000   0.000   0.000   0.000
  3       -0.000  -0.000   0.000  -0.000
  4       -0.000  -0.000   0.000  -0.000
  5       -0.000  -0.000   0.000  -0.000
------------------------------------------------
tot       -0.000  -0.000   0.000  -0.000
 
 BZINTS: Fermi energy:  2.971408; 38.000000 electrons
         Band energy:-332.783663;  BLOECHL correction:  0.000000

 total amount of memory used by VASP on root node    49550. kBytes
========================================================================

   base      :      30000. kBytes
   nonlr-proj:       3503. kBytes
   fftplans  :       1162. kBytes
   grid      :       5105. kBytes
   one-center:        155. kBytes
   wavefun   :       9625. kBytes
 
  
  
 General timing and accounting informations for this job:
 ========================================================
  
                  Total CPU time used (sec):      342.569
                            User time (sec):      328.470
                          System time (sec):       14.099
                         Elapsed time (sec):      346.928
  
                   Maximum memory used (kb):       66216.
                   Average memory used (kb):           0.
  
                          Minor page faults:      3330953
                          Major page faults:            6
                 Voluntary context switches:         1333
