
Running Job 1 of 1 mol.qin
qchem mol.qin_107614.0 /tmp/scratch/ 0
/clusterfs/mp/software/qchem/exe/qcprog.exe_s mol.qin_107614.0 /tmp/scratch/
                  Welcome to Q-Chem
     A Quantum Leap Into The Future Of Chemistry


 Q-Chem 5.2, Q-Chem, Inc., Pleasanton, CA (2019)

 Yihan Shao,  Zhengting Gan,  E. Epifanovsky,  A. T. B. Gilbert,  M. Wormit,  
 J. Kussmann,  A. W. Lange,  A. Behn,  Jia Deng,  Xintian Feng,  D. Ghosh,  
 M. Goldey,  P. R. Horn,  L. D. Jacobson,  I. Kaliman,  T. Kus,  A. Landau,  
 Jie Liu,  E. I. Proynov,  R. M. Richard,  R. P. Steele,  E. J. Sundstrom,  
 H. L. Woodcock III,  P. M. Zimmerman,  D. Zuev,  B. Alam,  B. Albrecht,  
 E. Alguire,  S. A. Baeppler,  D. Barton,  Z. Benda,  Y. A. Bernard,  
 E. J. Berquist,  K. B. Bravaya,  H. Burton,  K. Carter-Fenk,  D. Casanova,  
 Chun-Min Chang,  Yunqing Chen,  A. Chien,  K. D. Closser,  M. P. Coons,  
 S. Coriani,  S. Dasgupta,  A. L. Dempwolff,  M. Diedenhofen,  Hainam Do,  
 R. G. Edgar,  Po-Tung Fang,  S. Faraji,  S. Fatehi,  Qingguo Feng,  
 J. Fosso-Tande,  J. Gayvert,  Qinghui Ge,  A. Ghysels,  G. Gidofalvi,  
 J. Gomes,  J. Gonthier,  A. Gunina,  D. Hait,  M. W. D. Hanson-Heine,  
 P. H. P. Harbach,  A. W. Hauser,  M. F. Herbst,  J. E. Herr,  
 E. G. Hohenstein,  Z. C. Holden,  Kerwin Hui,  B. C. Huynh,  T.-C. Jagau,  
 Hyunjun Ji,  B. Kaduk,  K. Khistyaev,  Jaehoon Kim,  P. Klunzinger,  K. Koh,  
 D. Kosenkov,  L. Koulias,  T. Kowalczyk,  C. M. Krauter,  A. Kunitsa,  
 Ka Un Lao,  A. Laurent,  K. V. Lawler,  Joonho Lee,  D. Lefrancois,  
 S. Lehtola,  D. S. Levine,  Yi-Pei Li,  You-Sheng Lin,  Fenglai Liu,  
 Kuan-Yu Liu,  E. Livshits,  M. Loipersberger,  A. Luenser,  P. Manohar,  
 E. Mansoor,  S. F. Manzer,  Shan-Ping Mao,  Yuezhi Mao,  N. Mardirossian,  
 A. V. Marenich,  T. Markovich,  L. A. Martinez-Martinez,  S. A. Maurer,  
 N. J. Mayhall,  S. C. McKenzie,  J.-M. Mewes,  P. Morgante,  A. F. Morrison,  
 J. W. Mullinax,  K. Nanda,  T. S. Nguyen-Beck,  R. Olivares-Amaya,  
 J. A. Parkhill,  S. K. Paul,  Zheng Pei,  T. M. Perrine,  F. Plasser,  
 P. Pokhilko,  S. Prager,  A. Prociuk,  E. Ramos,  B. Rana,  D. R. Rehn,  
 F. Rob,  M. Scheurer,  M. Schneider,  N. Sergueev,  S. M. Sharada,  
 S. Sharma,  D. W. Small,  T. Stauch,  C. J. Stein,  T. Stein,  Yu-Chuan Su,  
 S. P. Veccham,  A. J. W. Thom,  A. Tkatchenko,  T. Tsuchimochi,  
 N. M. Tubman,  L. Vogt,  M. L. Vidal,  O. Vydrov,  M. A. Watson,  J. Wenzel,  
 M. de Wergifosse,  T. A. Wesolowski,  A. White,  J. Witte,  A. Yamada,  
 Jun Yang,  K. Yao,  S. Yeganeh,  S. R. Yost,  Zhi-Qiang You,  A. Zech,  
 Igor Ying Zhang,  Xing Zhang,  Yan Zhao,  Ying Zhu,  B. R. Brooks,  
 G. K. L. Chan,  C. J. Cramer,  M. S. Gordon,  W. J. Hehre,  A. Klamt,  
 M. W. Schmidt,  C. D. Sherrill,  D. G. Truhlar,  A. Aspuru-Guzik,  R. Baer,  
 A. T. Bell,  N. A. Besley,  Jeng-Da Chai,  A. E. DePrince, III,  
 R. A. DiStasio Jr.,  A. Dreuw,  B. D. Dunietz,  T. R. Furlani,  
 Chao-Ping Hsu,  Yousung Jung,  Jing Kong,  D. S. Lambrecht,  WanZhen Liang,  
 C. Ochsenfeld,  V. A. Rassolov,  L. V. Slipchenko,  J. E. Subotnik,  
 T. Van Voorhis,  J. M. Herbert,  A. I. Krylov,  P. M. W. Gill,  M. Head-Gordon

 Contributors to earlier versions of Q-Chem not listed above: 
 R. D. Adamson,  B. Austin,  J. Baker,  G. J. O. Beran,  K. Brandhorst,  
 S. T. Brown,  E. F. C. Byrd,  A. K. Chakraborty,  C.-L. Cheng,  
 Siu Hung Chien,  D. M. Chipman,  D. L. Crittenden,  H. Dachsel,  
 R. J. Doerksen,  A. D. Dutoi,  L. Fusti-Molnar,  W. A. Goddard III,  
 A. Golubeva-Zadorozhnaya,  S. R. Gwaltney,  G. Hawkins,  A. Heyden,  
 S. Hirata,  G. Kedziora,  F. J. Keil,  C. Kelley,  Jihan Kim,  R. A. King,  
 R. Z. Khaliullin,  P. P. Korambath,  W. Kurlancheek,  A. M. Lee,  M. S. Lee,  
 S. V. Levchenko,  Ching Yeh Lin,  D. Liotard,  R. C. Lochan,  I. Lotan,  
 P. E. Maslen,  N. Nair,  D. P. O'Neill,  D. Neuhauser,  E. Neuscamman,  
 C. M. Oana,  R. Olson,  B. Peters,  R. Peverati,  P. A. Pieniazek,  
 Y. M. Rhee,  J. Ritchie,  M. A. Rohrdanz,  E. Rosta,  N. J. Russ,  
 H. F. Schaefer III,  N. E. Schultz,  N. Shenvi,  A. C. Simmonett,  A. Sodt,  
 D. Stuck,  K. S. Thanthiriwatte,  V. Vanovschi,  Tao Wang,  A. Warshel,  
 C. F. Williams,  Q. Wu,  X. Xu,  W. Zhang

 Please cite Q-Chem as follows:
 Y. Shao et al., Mol. Phys. 113, 184-215 (2015)
 DOI: 10.1080/00268976.2014.952696

 Q-Chem 5.2.2 for Intel X86 EM64T Linux

 Parts of Q-Chem use Armadillo 8.300.2 (Tropical Shenanigans).
 http://arma.sourceforge.net/

 Q-Chem begins on Thu Nov 12 07:31:06 2020  

Host: 
0

     Scratch files written to /tmp/scratch//
 Nov2519 |scratch|qcdevops|jenkins|workspace|build_RNUM 6829   
Processing $rem in /clusterfs/mp/software/qchem/config/preferences:
	 MEM_TOTAL  96000 
NAlpha2: 62
NElect   61
Mult     2
Symmetry turned off for PCM/SM12/SMD calculation

Checking the input file for inconsistencies... 	...done.

--------------------------------------------------------------
User input:
--------------------------------------------------------------
$molecule
0 2
O     -1.9303170103     -4.3252774174      1.3388474306
C     -1.5697825504     -4.9674915330      0.2179949447
C     -2.7895166195     -3.2252228285      0.9967650609
O     -0.7308331758     -5.8233507995      0.1729347022
O     -2.2730140125     -4.5382521363     -0.8398508077
C     -3.2750933425     -3.5930799742     -0.4003280389
H     -2.3720006406     -2.5610404594      0.9863319203
H     -3.5771902237     -3.1380144473      1.7550117190
H     -3.2581638000     -2.7365641132     -1.0731409980
H     -4.2486590539     -4.0822056370     -0.4368719689
C     -0.9119052060     -1.3549295518      0.6330771153
O      0.0252758643     -1.8465715526      0.1458350598
H     -1.0438202290     -0.2775395498      0.9148738605
$end

$rem
job_type = opt
basis = def2-tzvppd
max_scf_cycles = 100
gen_scfman = true
xc_grid = 3
scf_algorithm = diis
resp_charges = true
symmetry = false
sym_ignore = true
method = wb97xv
geom_opt_max_cycles = 200
solvent_method = smd
ideriv = 1
thresh = 14
s2thresh = 16
$end

$smx
solvent other
$end
--------------------------------------------------------------
 ----------------------------------------------------------------
             Standard Nuclear Orientation (Angstroms)
    I     Atom           X                Y                Z
 ----------------------------------------------------------------
    1      O      -1.9303170103    -4.3252774174     1.3388474306
    2      C      -1.5697825504    -4.9674915330     0.2179949447
    3      C      -2.7895166195    -3.2252228285     0.9967650609
    4      O      -0.7308331758    -5.8233507995     0.1729347022
    5      O      -2.2730140125    -4.5382521363    -0.8398508077
    6      C      -3.2750933425    -3.5930799742    -0.4003280389
    7      H      -2.3720006406    -2.5610404594     0.9863319203
    8      H      -3.5771902237    -3.1380144473     1.7550117190
    9      H      -3.2581638000    -2.7365641132    -1.0731409980
   10      H      -4.2486590539    -4.0822056370    -0.4368719689
   11      C      -0.9119052060    -1.3549295518     0.6330771153
   12      O       0.0252758643    -1.8465715526     0.1458350598
   13      H      -1.0438202290    -0.2775395498     0.9148738605
 ----------------------------------------------------------------
 Nuclear Repulsion Energy =         377.39549234 hartrees
 There are       31 alpha and       30 beta electrons
 Requested basis set is def2-TZVPPD
 There are 143 shells and 393 basis functions

 Total QAlloc Memory Limit  96000 MB
 Mega-Array Size       188 MB
 MEM_STATIC part       192 MB
 
 Citation of the SMD model:
 Marenich, A.V.; Cramer, C.J.; Truhlar, D.G.
 J. Phys. Chem. B 2009, 113, 6378-6396.
 iSolventCode=           0
 Solvent: other                                                           
 
 vradii
            1           2           3           4           5           6
    1   2.2940000   1.8500000   1.8500000   2.2940000   2.2940000   1.8500000
            7           8           9          10          11          12
    1   1.2000000   1.2000000   1.2000000   1.2000000   1.8500000   2.2940000
           13
    1   1.2000000
 Changing PCM_VDW_RADII to SMD_RADIUS
 Discretize the solute cavity surface with Lebedev spheres
	Using 110 Lebedev grid points for each H atom
	Using 194 Lebedev grid points for other atoms
	Atomic van der Waals radii will be scaled by 1.20
 Remove points where switching function is < 1.0e-08
 Keep 917 surface tesserae and discard 1185 interior tesserae
 Molecular Surface Area = 177.040 Angst**2
 A cutoff of  1.0D-14 yielded   9720 shell pairs
 There are     74184 function pairs (     95476 Cartesian)
 Smallest overlap matrix eigenvalue = 1.03E-06

 Scale SEOQF with 1.000000e-01/1.000000e-02/1.000000e-01

 Standard Electronic Orientation quadrupole field applied
 Nucleus-field energy     =     0.0000000120 hartrees
 Guess from superposition of atomic densities
 Warning:  Energy on first SCF cycle will be non-variational
 SAD guess density has 61.000000 electrons

 -----------------------------------------------------------------------
  General SCF calculation program by
  Eric Jon Sundstrom, Paul Horn, Yuezhi Mao, Dmitri Zuev, Alec White,
  David Stuck, Shaama M.S., Shane Yost, Joonho Lee, David Small,
  Daniel Levine, Susi Lehtola, Hugh Burton, Evgeny Epifanovsky,
  Bang C. Huynh
 -----------------------------------------------------------------------
 Exchange:     0.1670 Hartree-Fock + 1.0000 wB97X-V + LR-HF
 Correlation:  1.0000 wB97X-V
 Using SG-3 standard quadrature grid
 Nonlocal Correlation:  VV10 with C = 0.0100 and b = 6.00 and scale = 1.00000
 Grid used for NLC:  SG-1 standard quadrature
 
 Citation of the SMD model:
 Marenich, A.V.; Cramer, C.J.; Truhlar, D.G.
 J. Phys. Chem. B 2009, 113, 6378-6396.
 iSolventCode=           0
 Solvent: other                                                           
 
 vradii
            1           2           3           4           5           6
    1   2.2940000   1.8500000   1.8500000   2.2940000   2.2940000   1.8500000
            7           8           9          10          11          12
    1   1.2000000   1.2000000   1.2000000   1.2000000   1.8500000   2.2940000
           13
    1   1.2000000
 using 40 threads for integral computing
 -------------------------------------------------------
 OpenMP Integral computing Module                
 Release: version 1.0, May 2013, Q-Chem Inc. Pittsburgh 
 -------------------------------------------------------
 using 40 threads for integral computing
 -------------------------------------------------------
 OpenMP Integral computing Module                
 Release: version 1.0, May 2013, Q-Chem Inc. Pittsburgh 
 -------------------------------------------------------
 -------------------------------------------------------
 OpenMP BLAS3 based DFT computing Module                
 Release: version 1.0, May 2013, Q-Chem Inc. Pittsburgh 
 -------------------------------------------------------
 -------------------------------------------------------
 OpenMP BLAS3 based DFT computing Module                
 Release: version 1.0, May 2013, Q-Chem Inc. Pittsburgh 
 -------------------------------------------------------
 -------------------------------------------------------
 OpenMP BLAS3 based DFT computing Module                
 Release: version 1.0, May 2013, Q-Chem Inc. Pittsburgh 
 -------------------------------------------------------
 A unrestricted SCF calculation will be
 performed using DIIS
 SCF converges when DIIS error is below 1.0e-08
 ---------------------------------------
  Cycle       Energy         DIIS error
 ---------------------------------------
    1    -458.1847922637      1.25e-02  
    2    -456.0115504010      1.75e-03  
    3    -455.9619282429      2.16e-03  
    4    -456.1929899717      1.95e-04  
    5    -456.1947005472      1.13e-04  
    6    -456.1954178430      2.20e-05  
    7    -456.1954674940      7.15e-06  
    8    -456.1954750614      3.18e-06  
    9    -456.1954772659      1.71e-06  
   10    -456.1954777604      1.03e-06  
   11    -456.1954780286      3.81e-07  
   12    -456.1954781024      1.77e-07  
   13    -456.1954781116      1.09e-07  
   14    -456.1954781139      4.12e-08  
   15    -456.1954781145      1.80e-08  
   16    -456.1954781146      6.90e-09  Convergence criterion met
 ---------------------------------------
 SCF time:   CPU 3358.78s  wall 134.00s 
<S^2> =          0.753364692
(3)  G-ENP(liq) elect-nuc-pol free energy of system     -456.195478115 a.u.
(4)  G-CDS(liq) cavity-dispersion-solvent structure 
     free energy                                               -2.5336 kcal/mol
(6)  G-S(liq) free energy of system                     -456.199515732 a.u.
 SCF   energy in the final basis set =     -456.1954781146
 Total energy in the final basis set =     -456.1995157323
 
 --------------------------------------------------------------
 
                    Orbital Energies (a.u.)
 --------------------------------------------------------------
 
 Alpha MOs
 -- Occupied --
-19.2722 -19.2703 -19.2691 -19.1996 -10.4450 -10.3619 -10.3341 -10.2982
 -1.2961  -1.2435  -1.1783  -1.1690  -0.9256  -0.8161  -0.7356  -0.7256
 -0.6830  -0.6360  -0.6176  -0.6162  -0.5718  -0.5555  -0.5512  -0.5460
 -0.5403  -0.4895  -0.4765  -0.4244  -0.4157  -0.4079  -0.3024
 -- Virtual --
  0.0468   0.0569   0.0749   0.0807   0.0814   0.1031   0.1085   0.1152
  0.1174   0.1235   0.1291   0.1499   0.1531   0.1584   0.1645   0.1663
  0.1746   0.1917   0.1967   0.2141   0.2197   0.2277   0.2381   0.2387
  0.2461   0.2625   0.2740   0.2784   0.2820   0.2879   0.2928   0.3070
  0.3141   0.3181   0.3276   0.3303   0.3371   0.3435   0.3551   0.3599
  0.3630   0.3698   0.3795   0.3878   0.3921   0.3955   0.4007   0.4067
  0.4185   0.4312   0.4422   0.4428   0.4457   0.4536   0.4612   0.4659
  0.4742   0.4787   0.4929   0.4998   0.5054   0.5145   0.5216   0.5426
  0.5487   0.5543   0.5583   0.5637   0.5710   0.5763   0.5905   0.5976
  0.6036   0.6181   0.6262   0.6322   0.6420   0.6494   0.6578   0.6685
  0.6720   0.6752   0.6827   0.6978   0.7003   0.7114   0.7220   0.7304
  0.7366   0.7394   0.7600   0.7707   0.7756   0.7791   0.7922   0.8018
  0.8039   0.8280   0.8362   0.8430   0.8481   0.8627   0.8811   0.8891
  0.9007   0.9070   0.9308   0.9327   0.9502   0.9633   0.9786   0.9840
  0.9924   1.0029   1.0193   1.0296   1.0472   1.0632   1.0707   1.1042
  1.1298   1.1341   1.1447   1.1611   1.1702   1.1815   1.2059   1.2207
  1.2266   1.2395   1.2646   1.2700   1.2943   1.3002   1.3214   1.3317
  1.3548   1.3588   1.3702   1.3819   1.3974   1.4101   1.4320   1.4498
  1.4583   1.4867   1.4979   1.5162   1.5400   1.5489   1.5840   1.6161
  1.6303   1.6524   1.6630   1.6795   1.7152   1.7276   1.7575   1.7672
  1.8023   1.8131   1.8766   1.8832   1.9087   1.9207   1.9422   1.9702
  1.9796   1.9994   2.0130   2.0490   2.0788   2.1105   2.1299   2.1481
  2.1786   2.2280   2.2371   2.2657   2.3025   2.3111   2.3380   2.3677
  2.4004   2.4234   2.4415   2.4641   2.4835   2.4957   2.5521   2.5860
  2.5935   2.6246   2.7166   2.7512   2.7656   2.7898   2.8474   2.8633
  2.8876   2.9288   2.9529   2.9613   2.9931   2.9984   3.0096   3.0290
  3.0427   3.0697   3.0847   3.1019   3.1165   3.1504   3.1805   3.2056
  3.2209   3.2257   3.2491   3.2612   3.2639   3.2781   3.2933   3.3206
  3.3336   3.3495   3.3662   3.3883   3.4099   3.4213   3.4352   3.4588
  3.4691   3.4799   3.5043   3.5217   3.5333   3.5516   3.5626   3.5732
  3.5883   3.6214   3.6395   3.6593   3.6678   3.6952   3.7070   3.7324
  3.7627   3.8046   3.8276   3.8434   3.8698   3.8806   3.8907   3.9032
  3.9179   3.9594   4.0119   4.0402   4.0542   4.0588   4.0949   4.1607
  4.1910   4.2155   4.2452   4.2820   4.3532   4.3846   4.3933   4.4121
  4.4543   4.5031   4.5246   4.5336   4.5838   4.6329   4.6694   4.7026
  4.7239   4.7646   4.7949   4.8886   4.9029   4.9188   4.9606   4.9646
  4.9852   5.0004   5.0296   5.0661   5.0900   5.1630   5.2450   5.2644
  5.2743   5.2844   5.3117   5.3356   5.3720   5.3912   5.4640   5.5129
  5.5483   5.6267   5.6331   5.6646   5.6871   5.7292   5.7619   5.7754
  5.7886   5.8599   5.8861   5.9525   6.0024   6.0739   6.0880   6.1610
  6.2139   6.2850   6.2960   6.3499   6.4097   6.4352   6.5275   6.5583
  6.5756   6.6094   6.6238   6.6439   6.6967   6.7058   6.7238   6.8351
  6.8685   6.8761   6.8989   6.9231   6.9496   7.0207   7.0911   7.1118
  7.1717   7.1996   7.2065   7.3039   7.3201   7.4096   7.4882   7.6053
  7.6779   7.6848  23.3493  23.4755  23.7928  24.0157  44.1282  44.4216
 44.4609  44.5905
 
 Beta MOs
 -- Occupied --
-19.2703 -19.2691 -19.2655 -19.1996 -10.4450 -10.3532 -10.3341 -10.2972
 -1.2961  -1.2284  -1.1782  -1.1690  -0.9235  -0.8143  -0.7270  -0.7041
 -0.6781  -0.6355  -0.6172  -0.5918  -0.5635  -0.5545  -0.5493  -0.5386
 -0.4974  -0.4887  -0.4761  -0.4223  -0.4152  -0.4078
 -- Virtual --
  0.0277   0.0573   0.0586   0.0769   0.0817   0.0826   0.1036   0.1109
  0.1162   0.1177   0.1251   0.1301   0.1512   0.1545   0.1596   0.1650
  0.1700   0.1752   0.1927   0.1982   0.2157   0.2216   0.2292   0.2391
  0.2410   0.2471   0.2637   0.2762   0.2799   0.2832   0.2907   0.2939
  0.3078   0.3162   0.3199   0.3290   0.3338   0.3388   0.3458   0.3556
  0.3626   0.3644   0.3722   0.3817   0.3898   0.3933   0.3958   0.4016
  0.4094   0.4207   0.4324   0.4428   0.4445   0.4469   0.4549   0.4621
  0.4663   0.4747   0.4792   0.4943   0.5004   0.5064   0.5157   0.5223
  0.5450   0.5500   0.5585   0.5604   0.5664   0.5750   0.5784   0.5913
  0.6015   0.6055   0.6185   0.6267   0.6330   0.6446   0.6504   0.6599
  0.6689   0.6727   0.6772   0.6854   0.6989   0.7013   0.7123   0.7224
  0.7343   0.7386   0.7447   0.7633   0.7735   0.7765   0.7803   0.7940
  0.8046   0.8075   0.8293   0.8401   0.8439   0.8506   0.8661   0.8843
  0.8894   0.9030   0.9093   0.9317   0.9354   0.9529   0.9663   0.9795
  0.9856   0.9954   1.0036   1.0209   1.0323   1.0493   1.0653   1.0722
  1.1047   1.1322   1.1387   1.1455   1.1641   1.1774   1.1838   1.2076
  1.2216   1.2272   1.2431   1.2679   1.2730   1.2956   1.3040   1.3251
  1.3327   1.3553   1.3628   1.3751   1.3833   1.4007   1.4108   1.4349
  1.4512   1.4597   1.4878   1.4994   1.5195   1.5439   1.5508   1.5907
  1.6176   1.6339   1.6530   1.6649   1.6820   1.7176   1.7314   1.7582
  1.7692   1.8067   1.8193   1.8810   1.8900   1.9102   1.9243   1.9455
  1.9707   1.9815   2.0036   2.0164   2.0660   2.0826   2.1142   2.1334
  2.1495   2.1835   2.2303   2.2404   2.2671   2.3033   2.3133   2.3399
  2.3716   2.4014   2.4244   2.4481   2.4660   2.4872   2.4975   2.5558
  2.5925   2.5980   2.6274   2.7175   2.7541   2.7678   2.8053   2.8572
  2.8731   2.8933   2.9347   2.9539   2.9636   2.9967   3.0063   3.0121
  3.0351   3.0447   3.0806   3.0910   3.1090   3.1255   3.1522   3.1883
  3.2129   3.2251   3.2342   3.2571   3.2672   3.2729   3.2898   3.3035
  3.3343   3.3464   3.3553   3.3709   3.3942   3.4106   3.4233   3.4388
  3.4681   3.4741   3.4831   3.5090   3.5258   3.5351   3.5610   3.5707
  3.5757   3.6010   3.6227   3.6473   3.6645   3.6690   3.6999   3.7081
  3.7345   3.7695   3.8185   3.8281   3.8459   3.8810   3.8899   3.8915
  3.9061   3.9202   3.9663   4.0123   4.0473   4.0590   4.0722   4.0961
  4.1615   4.2090   4.2178   4.2459   4.2823   4.3543   4.3903   4.4075
  4.4132   4.4551   4.5033   4.5299   4.5387   4.5846   4.6333   4.6697
  4.7167   4.7277   4.7647   4.7955   4.8989   4.9078   4.9226   4.9612
  4.9668   4.9963   5.0114   5.0303   5.0668   5.0909   5.1637   5.2458
  5.2789   5.2802   5.2948   5.3120   5.3453   5.3759   5.3938   5.4643
  5.5133   5.5485   5.6275   5.6333   5.6648   5.6876   5.7416   5.7629
  5.7763   5.7915   5.8661   5.8914   5.9528   6.0025   6.0740   6.0882
  6.1611   6.2142   6.2851   6.3036   6.3514   6.4099   6.4361   6.5279
  6.5820   6.6001   6.6124   6.6374   6.6451   6.6985   6.7061   6.7425
  6.8381   6.8704   6.8809   6.8991   6.9258   6.9504   7.0227   7.0940
  7.1276   7.1719   7.2000   7.2072   7.3120   7.3221   7.4098   7.4883
  7.6054   7.6780   7.6848  23.3602  23.4758  23.7934  24.0161  44.1363
 44.4216  44.4609  44.5905
 --------------------------------------------------------------
 
          Ground-State Mulliken Net Atomic Charges

     Atom                 Charge (a.u.)    Spin (a.u.)
  --------------------------------------------------------
      1 O                    -0.281366      -0.000774
      2 C                     0.492224       0.000672
      3 C                    -0.207124       0.179027
      4 O                    -0.467957       0.000082
      5 O                    -0.264711       0.000368
      6 C                     0.152116       0.007186
      7 H                     0.298001      -0.139161
      8 H                     0.021035      -0.002890
      9 H                     0.097153      -0.003884
     10 H                     0.050094      -0.000391
     11 C                     0.321958       0.584095
     12 O                    -0.263165       0.245874
     13 H                     0.051741       0.129796
  --------------------------------------------------------
  Sum of atomic charges =    -0.000000
  Sum of spin   charges =     1.000000

  Building new vdw surfaces
         Merz-Kollman RESP Net Atomic Charges

     Atom                 Charge (a.u.)
  ----------------------------------------
      1 O                    -0.414435
      2 C                     0.855721
      3 C                     0.224015
      4 O                    -0.617797
      5 O                    -0.369281
      6 C                    -0.087696
      7 H                    -0.117902
      8 H                     0.104471
      9 H                     0.144517
     10 H                     0.144517
     11 C                     0.379603
     12 O                    -0.339358
     13 H                     0.093625
  ----------------------------------------
  Sum of atomic charges =     0.000000

  Related Dipole Moment =     9.2876 (X -5.8670 Y  7.1228 Z  1.0504)

 -----------------------------------------------------------------
                    Cartesian Multipole Moments
 -----------------------------------------------------------------
    Charge (ESU x 10^10)
                 0.0000
    Dipole Moment (Debye)
         X      -5.8416      Y       7.0911      Z       1.0762
       Tot       9.2502
    Quadrupole Moments (Debye-Ang)
        XX     -24.8863     XY      12.0409     YY     -96.4865
        XZ      -2.4951     YZ      -0.2117     ZZ     -46.2590
    Octopole Moments (Debye-Ang^2)
       XXX     160.8595    XXY     102.6633    XYY      57.7209
       YYY     826.8458    XXZ      -6.3439    XYZ       6.1460
       YYZ     -16.8745    XZZ      77.8166    YZZ     178.6171
       ZZZ     -38.6715
    Hexadecapole Moments (Debye-Ang^3)
      XXXX    -904.2322   XXXY    -649.6449   XXYY    -701.7115
      XYYY    -924.2629   YYYY   -6306.3609   XXXZ      36.1736
      XXYZ      17.5531   XYYZ      -2.9656   YYYZ     145.3797
      XXZZ    -217.4716   XYZZ    -314.6538   YYZZ    -819.5803
      XZZZ      50.6603   YZZZ     120.4739   ZZZZ    -201.3287
 -----------------------------------------------------------------
 Calculating analytic gradient of the SCF energy
 Gradient of CDS energy
            1           2           3           4           5           6
    1  -0.0002766   0.0009274  -0.0002270   0.0002092  -0.0006115  -0.0009112
    2   0.0009841  -0.0015737   0.0006986  -0.0002149   0.0008524  -0.0001428
    3   0.0000846  -0.0000286   0.0013862   0.0000050  -0.0001356  -0.0013141
            7           8           9          10          11          12
    1   0.0002516   0.0001352   0.0001877   0.0002660   0.0002785  -0.0002719
    2  -0.0007870  -0.0001839  -0.0002442  -0.0000301   0.0016521  -0.0006627
    3  -0.0003431  -0.0001539   0.0001755   0.0000706   0.0003795  -0.0000352
           13
    1   0.0000426
    2  -0.0003479
    3  -0.0000910
 Gradient of SCF Energy
            1           2           3           4           5           6
    1  -0.0031357   0.0011329   0.2992252  -0.0018122   0.0014378   0.0111940
    2   0.0006468  -0.0026579   0.4283930   0.0036641  -0.0016993  -0.0028245
    3  -0.0014231  -0.0008562  -0.0183536   0.0007015  -0.0008382   0.0106828
            7           8           9          10          11          12
    1  -0.2612196  -0.0122029  -0.0000002  -0.0121663  -0.0080389  -0.0101666
    2  -0.4146952   0.0044568   0.0105102  -0.0057120  -0.0381451   0.0016635
    3  -0.0004005   0.0137232  -0.0057785  -0.0027747  -0.0051437   0.0052299
           13
    1  -0.0042475
    2   0.0163996
    3   0.0052310
 Max gradient component =       4.284E-01
 RMS gradient           =       1.151E-01
 Computing fast CPCM-SWIG gradient
 Updating gradient with PCM contributions...
 -- total gradient after adding PCM contribution --
---------------------------------------------------
  Atom         X              Y              Z     
---------------------------------------------------
   1      -0.004474       0.001479      -0.001249
   2      -0.001152       0.001114      -0.000982
   3       0.296645       0.442592      -0.011657
   4       0.001508      -0.000650       0.000711
   5      -0.000043      -0.000299      -0.000332
   6      -0.000119       0.000207       0.000080
   7      -0.274277      -0.433371       0.004264
   8       0.000314       0.005681       0.004952
   9       0.000335      -0.000232       0.001096
  10       0.000040       0.000016      -0.001495
  11       0.004538      -0.023971      -0.006201
  12      -0.020179       0.008297       0.009965
  13      -0.003136      -0.000862       0.000848
---------------------------------------------------
 Number of fixed atoms: 0
 Gradient time:  CPU 605.65 s  wall 25.87 s
 Geometry Optimization Parameters
   NAtoms,    NIC,     NZ,  NCons,   NDum,   NFix, NCnnct, MaxDiis
       13      84       0       0       0       0       0       0


** GEOMETRY OPTIMIZATION IN DELOCALIZED INTERNAL COORDINATES **
   Searching for a Minimum

   Optimization Cycle:   1

                       Coordinates (Angstroms)
     ATOM                X               Y               Z
      1  O        -1.9303170103   -4.3252774174    1.3388474306
      2  C        -1.5697825504   -4.9674915330    0.2179949447
      3  C        -2.7895166195   -3.2252228285    0.9967650609
      4  O        -0.7308331758   -5.8233507995    0.1729347022
      5  O        -2.2730140125   -4.5382521363   -0.8398508077
      6  C        -3.2750933425   -3.5930799742   -0.4003280389
      7  H        -2.3720006406   -2.5610404594    0.9863319203
      8  H        -3.5771902237   -3.1380144473    1.7550117190
      9  H        -3.2581638000   -2.7365641132   -1.0731409980
     10  H        -4.2486590539   -4.0822056370   -0.4368719689
     11  C        -0.9119052060   -1.3549295518    0.6330771153
     12  O         0.0252758643   -1.8465715526    0.1458350598
     13  H        -1.0438202290   -0.2775395498    0.9148738605
   Point Group: c1    Number of degrees of freedom:    33


   Energy is   -456.199515732


 Attempting to generate delocalized internal coordinates
 Initial Hessian constructed with Jon Baker's OPTIMIZE code

 33 Hessian modes will be used to form the next step
  Hessian Eigenvalues:
     0.002000    0.002003    0.008603    0.017024    0.023453    0.041498
     0.047279    0.048757    0.054335    0.055359    0.058747    0.096575
     0.101910    0.110294    0.117696    0.160000    0.160000    0.160000
     0.207544    0.240965    0.249993    0.290182    0.314203    0.340383
     0.347962    0.348932    0.369022    0.390127    0.525613    0.555777
     1.051669    1.199702    1.245224

 Minimum search - taking simple RFO step
 Searching for Lamda that Minimizes Along All modes
 Value Taken    Lamda =  -0.20811252
 Calculated Step too Large.  Step scaled by  0.757625
 Step Taken.  Stepsize is  0.300000

                             Maximum     Tolerance    Cnvgd?
         Gradient           0.309772      0.000300      NO
         Displacement       0.200965      0.001200      NO
         Energy change     *********      0.000001      NO


 New Cartesian Coordinates Obtained by Inverse Iteration

 Displacement from previous Coordinates is:  0.568780
 ----------------------------------------------------------------
             Standard Nuclear Orientation (Angstroms)
    I     Atom           X                Y                Z
 ----------------------------------------------------------------
    1      O      -1.9625794192    -4.3721492676     1.3369287845
    2      C      -1.5944387723    -5.0053327337     0.2134190221
    3      C      -2.8288756789    -3.2740492685     0.9954577353
    4      O      -0.7520246776    -5.8568954300     0.1644047200
    5      O      -2.2975941241    -4.5746171313    -0.8441493171
    6      C      -3.3065873936    -3.6367778744    -0.4048857987
    7      H      -2.3294718875    -2.4806655491     0.9903827247
    8      H      -3.6238924467    -3.2012834446     1.7436427437
    9      H      -3.2925389787    -2.7779070423    -1.0757518987
   10      H      -4.2776687956    -4.1306280302    -0.4438016088
   11      C      -0.8365458708    -1.2485146284     0.6455960059
   12      O       0.1093298162    -1.7394334067     0.1586144855
   13      H      -0.9621317711    -0.1712861932     0.9316224015
 ----------------------------------------------------------------
 Nuclear Repulsion Energy =         371.63589462 hartrees
 There are       31 alpha and       30 beta electrons
 Discretize the solute cavity surface with Lebedev spheres
	Using 110 Lebedev grid points for each H atom
	Using 194 Lebedev grid points for other atoms
	Atomic van der Waals radii will be scaled by 1.20
 Remove points where switching function is < 1.0e-08
 Keep 939 surface tesserae and discard 1163 interior tesserae
 Molecular Surface Area = 180.789 Angst**2
 Applying Cartesian multipole field
    Component          Value
    ---------          -----
     (2,0,0)        1.00000E-11
     (0,2,0)        2.00000E-12
     (0,0,2)       -3.00000E-11
 Nucleus-field energy     =     0.0000000122 hartrees
 Requested basis set is def2-TZVPPD
 There are 143 shells and 393 basis functions
 A cutoff of  1.0D-14 yielded   9655 shell pairs
 There are     73589 function pairs (     94646 Cartesian)
 Smallest overlap matrix eigenvalue = 1.78E-06
 Guess MOs from SCF MO coefficient file

 -----------------------------------------------------------------------
  General SCF calculation program by
  Eric Jon Sundstrom, Paul Horn, Yuezhi Mao, Dmitri Zuev, Alec White,
  David Stuck, Shaama M.S., Shane Yost, Joonho Lee, David Small,
  Daniel Levine, Susi Lehtola, Hugh Burton, Evgeny Epifanovsky,
  Bang C. Huynh
 -----------------------------------------------------------------------
 Exchange:     0.1670 Hartree-Fock + 1.0000 wB97X-V + LR-HF
 Correlation:  1.0000 wB97X-V
 Using SG-3 standard quadrature grid
 Nonlocal Correlation:  VV10 with C = 0.0100 and b = 6.00 and scale = 1.00000
 Grid used for NLC:  SG-1 standard quadrature
 
 Citation of the SMD model:
 Marenich, A.V.; Cramer, C.J.; Truhlar, D.G.
 J. Phys. Chem. B 2009, 113, 6378-6396.
 iSolventCode=           0
 Solvent: other                                                           
 
 vradii
            1           2           3           4           5           6
    1   2.2940000   1.8500000   1.8500000   2.2940000   2.2940000   1.8500000
            7           8           9          10          11          12
    1   1.2000000   1.2000000   1.2000000   1.2000000   1.8500000   2.2940000
           13
    1   1.2000000
 using 40 threads for integral computing
 -------------------------------------------------------
 OpenMP Integral computing Module                
 Release: version 1.0, May 2013, Q-Chem Inc. Pittsburgh 
 -------------------------------------------------------
 using 40 threads for integral computing
 -------------------------------------------------------
 OpenMP Integral computing Module                
 Release: version 1.0, May 2013, Q-Chem Inc. Pittsburgh 
 -------------------------------------------------------
 -------------------------------------------------------
 OpenMP BLAS3 based DFT computing Module                
 Release: version 1.0, May 2013, Q-Chem Inc. Pittsburgh 
 -------------------------------------------------------
 -------------------------------------------------------
 OpenMP BLAS3 based DFT computing Module                
 Release: version 1.0, May 2013, Q-Chem Inc. Pittsburgh 
 -------------------------------------------------------
 -------------------------------------------------------
 OpenMP BLAS3 based DFT computing Module                
 Release: version 1.0, May 2013, Q-Chem Inc. Pittsburgh 
 -------------------------------------------------------
 A unrestricted SCF calculation will be
 performed using Roothaan-Hall, DIIS
 SCF converges when DIIS error is below 1.0e-08
 ---------------------------------------
  Cycle       Energy         DIIS error
 ---------------------------------------
    1    -456.7552772368      8.94e-04  Roothaan Step
 ---------------------------------------
  Cycle       Energy         DIIS error
 ---------------------------------------
    1    -456.2861033484      2.24e-04  
    2    -456.2884870811      2.51e-04  
    3    -456.2916659750      3.64e-05  
    4    -456.2917972716      1.70e-05  
    5    -456.2918240487      5.23e-06  
    6    -456.2918277459      2.46e-06  
    7    -456.2918283575      9.81e-07  
    8    -456.2918285459      4.68e-07  
    9    -456.2918285999      2.80e-07  
   10    -456.2918286335      1.36e-07  
   11    -456.2918286455      8.54e-08  
   12    -456.2918286532      4.84e-08  
   13    -456.2918286565      2.24e-08  
   14    -456.2918286571      1.29e-08  
   15    -456.2918286571      7.14e-09  Convergence criterion met
 ---------------------------------------
 SCF time:   CPU 3396.62s  wall 136.00s 
<S^2> =          0.753425367
(3)  G-ENP(liq) elect-nuc-pol free energy of system     -456.291828657 a.u.
(4)  G-CDS(liq) cavity-dispersion-solvent structure 
     free energy                                               -2.5084 kcal/mol
(6)  G-S(liq) free energy of system                     -456.295826116 a.u.
 SCF   energy in the final basis set =     -456.2918286571
 Total energy in the final basis set =     -456.2958261156
 
 --------------------------------------------------------------
 
                    Orbital Energies (a.u.)
 --------------------------------------------------------------
 
 Alpha MOs
 -- Occupied --
-19.2735 -19.2699 -19.2690 -19.1995 -10.4447 -10.3658 -10.3336 -10.3122
 -1.2955  -1.2407  -1.1774  -1.1689  -0.9123  -0.8051  -0.7357  -0.7241
 -0.6710  -0.6336  -0.6164  -0.6136  -0.5702  -0.5546  -0.5499  -0.5451
 -0.5365  -0.4890  -0.4756  -0.4214  -0.4149  -0.4079  -0.3056
 -- Virtual --
  0.0451   0.0567   0.0748   0.0806   0.0815   0.1033   0.1077   0.1144
  0.1178   0.1228   0.1290   0.1467   0.1527   0.1578   0.1635   0.1659
  0.1734   0.1909   0.1958   0.2122   0.2184   0.2262   0.2332   0.2367
  0.2459   0.2623   0.2730   0.2798   0.2833   0.2857   0.2926   0.3051
  0.3093   0.3172   0.3258   0.3310   0.3364   0.3447   0.3547   0.3559
  0.3629   0.3650   0.3774   0.3861   0.3900   0.3944   0.4005   0.4051
  0.4141   0.4275   0.4382   0.4417   0.4443   0.4498   0.4584   0.4614
  0.4737   0.4771   0.4860   0.4961   0.5032   0.5128   0.5197   0.5376
  0.5422   0.5456   0.5509   0.5551   0.5648   0.5691   0.5755   0.5913
  0.6007   0.6160   0.6247   0.6274   0.6321   0.6423   0.6505   0.6635
  0.6717   0.6749   0.6807   0.6947   0.6968   0.7108   0.7213   0.7269
  0.7308   0.7411   0.7598   0.7638   0.7722   0.7739   0.7839   0.7902
  0.7993   0.8227   0.8329   0.8343   0.8413   0.8545   0.8769   0.8879
  0.8993   0.9045   0.9259   0.9326   0.9423   0.9629   0.9634   0.9779
  0.9829   1.0015   1.0170   1.0205   1.0311   1.0454   1.0620   1.0992
  1.1129   1.1205   1.1248   1.1489   1.1582   1.1777   1.2032   1.2185
  1.2262   1.2267   1.2500   1.2608   1.2874   1.2967   1.3102   1.3228
  1.3422   1.3460   1.3615   1.3706   1.3934   1.4028   1.4197   1.4328
  1.4469   1.4666   1.4838   1.4941   1.5266   1.5430   1.5842   1.6007
  1.6397   1.6458   1.6494   1.6836   1.7081   1.7348   1.7556   1.7834
  1.7981   1.8137   1.8561   1.8736   1.8989   1.9115   1.9366   1.9503
  1.9678   1.9886   1.9942   2.0117   2.0676   2.1009   2.1175   2.1236
  2.1673   2.2087   2.2356   2.2581   2.2922   2.3049   2.3315   2.3614
  2.3905   2.4072   2.4218   2.4506   2.4588   2.4751   2.4980   2.5649
  2.6030   2.6196   2.7193   2.7400   2.7600   2.7811   2.8163   2.8597
  2.8835   2.9093   2.9443   2.9542   2.9658   2.9756   2.9928   3.0074
  3.0282   3.0364   3.0506   3.0747   3.0927   3.1475   3.1602   3.1875
  3.1922   3.2138   3.2224   3.2471   3.2609   3.2752   3.2823   3.3072
  3.3240   3.3354   3.3582   3.3697   3.3987   3.4125   3.4182   3.4368
  3.4436   3.4812   3.4970   3.5221   3.5308   3.5335   3.5456   3.5579
  3.5728   3.6076   3.6191   3.6447   3.6505   3.6697   3.6895   3.7084
  3.7554   3.7809   3.8115   3.8349   3.8594   3.8648   3.8799   3.8924
  3.9177   3.9267   3.9992   4.0268   4.0372   4.0446   4.0811   4.1311
  4.1678   4.1986   4.2394   4.2620   4.3239   4.3452   4.3674   4.4056
  4.4156   4.4635   4.4994   4.5075   4.5210   4.5826   4.6246   4.6540
  4.7013   4.7087   4.7579   4.8260   4.8706   4.8942   4.9329   4.9570
  4.9699   4.9841   5.0080   5.0285   5.0418   5.1054   5.1836   5.2563
  5.2593   5.2735   5.2885   5.3173   5.3476   5.3735   5.4394   5.4679
  5.4969   5.5440   5.5985   5.6228   5.6738   5.6766   5.7160   5.7439
  5.7577   5.8032   5.8476   5.9135   5.9628   5.9985   6.0139   6.0797
  6.1306   6.1657   6.2070   6.2437   6.2765   6.2952   6.3644   6.4171
  6.5168   6.5520   6.5564   6.5674   6.5953   6.6450   6.6827   6.6984
  6.7180   6.8677   6.8822   6.8917   6.9276   7.0159   7.0738   7.1012
  7.1480   7.1650   7.1915   7.2852   7.3160   7.4045   7.4828   7.5999
  7.6694   7.6775  23.2923  23.4377  23.7650  23.9975  44.1022  44.4127
 44.4559  44.5784
 
 Beta MOs
 -- Occupied --
-19.2699 -19.2690 -19.2667 -19.1995 -10.4447 -10.3574 -10.3336 -10.3112
 -1.2954  -1.2254  -1.1773  -1.1689  -0.9108  -0.8036  -0.7245  -0.7047
 -0.6668  -0.6329  -0.6134  -0.5911  -0.5586  -0.5535  -0.5481  -0.5376
 -0.4964  -0.4880  -0.4751  -0.4191  -0.4129  -0.4075
 -- Virtual --
  0.0210   0.0565   0.0576   0.0768   0.0817   0.0824   0.1037   0.1098
  0.1153   0.1181   0.1242   0.1300   0.1482   0.1540   0.1593   0.1640
  0.1689   0.1740   0.1918   0.1973   0.2140   0.2199   0.2276   0.2357
  0.2378   0.2469   0.2637   0.2749   0.2817   0.2839   0.2891   0.2935
  0.3060   0.3120   0.3186   0.3269   0.3353   0.3386   0.3461   0.3552
  0.3587   0.3647   0.3674   0.3788   0.3884   0.3914   0.3947   0.4011
  0.4075   0.4162   0.4288   0.4414   0.4423   0.4449   0.4515   0.4592
  0.4618   0.4743   0.4777   0.4885   0.4968   0.5045   0.5145   0.5207
  0.5417   0.5457   0.5472   0.5551   0.5577   0.5665   0.5708   0.5793
  0.5920   0.6024   0.6164   0.6254   0.6281   0.6340   0.6432   0.6519
  0.6642   0.6729   0.6753   0.6825   0.6957   0.6980   0.7119   0.7220
  0.7314   0.7344   0.7454   0.7623   0.7670   0.7725   0.7755   0.7849
  0.7927   0.8031   0.8240   0.8356   0.8370   0.8419   0.8602   0.8792
  0.8882   0.9007   0.9070   0.9266   0.9349   0.9453   0.9646   0.9662
  0.9803   0.9848   1.0022   1.0179   1.0224   1.0328   1.0476   1.0642
  1.0996   1.1183   1.1261   1.1284   1.1514   1.1610   1.1807   1.2067
  1.2189   1.2266   1.2312   1.2512   1.2634   1.2885   1.3012   1.3124
  1.3248   1.3433   1.3504   1.3661   1.3711   1.3979   1.4041   1.4209
  1.4340   1.4483   1.4675   1.4850   1.4990   1.5283   1.5448   1.5903
  1.6014   1.6453   1.6470   1.6507   1.6876   1.7106   1.7367   1.7564
  1.7902   1.8047   1.8165   1.8662   1.8760   1.9004   1.9177   1.9406
  1.9599   1.9689   1.9916   1.9963   2.0154   2.0712   2.1030   2.1188
  2.1255   2.1726   2.2121   2.2383   2.2598   2.2930   2.3086   2.3330
  2.3642   2.3930   2.4178   2.4247   2.4516   2.4659   2.4780   2.4991
  2.5675   2.6040   2.6208   2.7205   2.7424   2.7634   2.7961   2.8303
  2.8648   2.8892   2.9171   2.9454   2.9640   2.9679   2.9855   2.9961
  3.0164   3.0347   3.0386   3.0607   3.0797   3.0963   3.1506   3.1668
  3.1960   3.2009   3.2163   3.2258   3.2550   3.2717   3.2878   3.2947
  3.3267   3.3323   3.3399   3.3608   3.3734   3.4015   3.4134   3.4238
  3.4441   3.4496   3.4835   3.5029   3.5274   3.5357   3.5396   3.5552
  3.5620   3.5779   3.6119   3.6270   3.6456   3.6572   3.6736   3.6926
  3.7115   3.7573   3.7895   3.8144   3.8368   3.8707   3.8807   3.8814
  3.8935   3.9182   3.9305   3.9996   4.0285   4.0447   4.0598   4.0825
  4.1336   4.1864   4.1999   4.2399   4.2623   4.3249   4.3460   4.3817
  4.4111   4.4173   4.4638   4.4994   4.5106   4.5268   4.5829   4.6264
  4.6548   4.7085   4.7181   4.7588   4.8276   4.8761   4.9062   4.9354
  4.9591   4.9844   4.9895   5.0097   5.0288   5.0428   5.1058   5.1842
  5.2623   5.2732   5.2859   5.2891   5.3219   5.3590   5.3739   5.4399
  5.4687   5.4974   5.5444   5.5990   5.6232   5.6746   5.6769   5.7296
  5.7442   5.7588   5.8037   5.8597   5.9145   5.9632   5.9994   6.0146
  6.0801   6.1318   6.1689   6.2077   6.2450   6.2840   6.2957   6.3650
  6.4173   6.5170   6.5617   6.5788   6.5863   6.6116   6.6454   6.6829
  6.7019   6.7353   6.8725   6.8824   6.8918   6.9278   7.0188   7.0832
  7.1094   7.1494   7.1651   7.1918   7.2954   7.3163   7.4046   7.4829
  7.5999   7.6695   7.6775  23.3029  23.4380  23.7656  23.9978  44.1105
 44.4127  44.4559  44.5784
 --------------------------------------------------------------
 
          Ground-State Mulliken Net Atomic Charges

     Atom                 Charge (a.u.)    Spin (a.u.)
  --------------------------------------------------------
      1 O                    -0.282611      -0.000771
      2 C                     0.479105       0.001302
      3 C                     0.173535       0.150385
      4 O                    -0.467612       0.000272
      5 O                    -0.268420      -0.000012
      6 C                     0.149371       0.003117
      7 H                    -0.049531      -0.100681
      8 H                     0.054910       0.000481
      9 H                     0.087859      -0.001755
     10 H                     0.053059       0.000050
     11 C                     0.271923       0.566633
     12 O                    -0.265272       0.252503
     13 H                     0.063685       0.128478
  --------------------------------------------------------
  Sum of atomic charges =     0.000000
  Sum of spin   charges =     1.000000

  Building new vdw surfaces
         Merz-Kollman RESP Net Atomic Charges

     Atom                 Charge (a.u.)
  ----------------------------------------
      1 O                    -0.420470
      2 C                     0.853293
      3 C                     0.249175
      4 O                    -0.616848
      5 O                    -0.370367
      6 C                    -0.089384
      7 H                    -0.124868
      8 H                     0.094703
      9 H                     0.143312
     10 H                     0.143312
     11 C                     0.372256
     12 O                    -0.335427
     13 H                     0.101312
  ----------------------------------------
  Sum of atomic charges =     0.000000

  Related Dipole Moment =     9.3307 (X -5.8243 Y  7.2122 Z  1.0598)

 -----------------------------------------------------------------
                    Cartesian Multipole Moments
 -----------------------------------------------------------------
    Charge (ESU x 10^10)
                 0.0000
    Dipole Moment (Debye)
         X      -5.7977      Y       7.1810      Z       1.0865
       Tot       9.2930
    Quadrupole Moments (Debye-Ang)
        XX     -25.0358     XY      12.0237     YY     -96.8212
        XZ      -2.3847     YZ      -0.1174     ZZ     -46.4372
    Octopole Moments (Debye-Ang^2)
       XXX     160.2530    XXY     101.6699    XYY      57.8052
       YYY     832.0364    XXZ      -6.6224    XYZ       6.0270
       YYZ     -16.7438    XZZ      78.5146    YZZ     179.5391
       ZZZ     -39.1022
    Hexadecapole Moments (Debye-Ang^3)
      XXXX    -920.3541   XXXY    -657.3154   XXYY    -706.6815
      XYYY    -943.9903   YYYY   -6399.6044   XXXZ      35.6425
      XXYZ      16.7096   XYYZ      -3.4505   YYYZ     142.4292
      XXZZ    -222.6799   XYZZ    -321.7051   YYZZ    -830.7400
      XZZZ      51.1225   YZZZ     119.9408   ZZZZ    -203.1699
 -----------------------------------------------------------------
 Calculating analytic gradient of the SCF energy
 Gradient of CDS energy
            1           2           3           4           5           6
    1  -0.0003421   0.0010042  -0.0001492   0.0002061  -0.0008185  -0.0008830
    2   0.0009565  -0.0014625   0.0007532  -0.0002140   0.0006066  -0.0001384
    3   0.0001078  -0.0000572   0.0014577  -0.0000049  -0.0001740  -0.0013175
            7           8           9          10          11          12
    1   0.0002598   0.0001274   0.0001728   0.0002601   0.0001495  -0.0000276
    2  -0.0007983  -0.0001872  -0.0002276  -0.0000241   0.0015201  -0.0004370
    3  -0.0004588  -0.0001681   0.0001673   0.0000868   0.0004348   0.0000183
           13
    1   0.0000405
    2  -0.0003473
    3  -0.0000922
 Gradient of SCF Energy
            1           2           3           4           5           6
    1  -0.0015717   0.0029622   0.0986433  -0.0028691   0.0011089   0.0106774
    2  -0.0004898  -0.0027261   0.1244232   0.0041787  -0.0021300  -0.0023969
    3  -0.0003875  -0.0007741  -0.0141570   0.0005469  -0.0003279   0.0113432
            7           8           9          10          11          12
    1  -0.0735400  -0.0095604   0.0001305  -0.0117586  -0.0124930   0.0016548
    2  -0.1190659   0.0049593   0.0108251  -0.0050061  -0.0264115  -0.0036710
    3  -0.0020428   0.0111301  -0.0064324  -0.0024791  -0.0009106  -0.0006981
           13
    1  -0.0033843
    2   0.0175109
    3   0.0051892
 Max gradient component =       1.244E-01
 RMS gradient           =       3.475E-02
 Computing fast CPCM-SWIG gradient
 Updating gradient with PCM contributions...
 -- total gradient after adding PCM contribution --
---------------------------------------------------
  Atom         X              Y              Z     
---------------------------------------------------
   1      -0.003164       0.000671      -0.000345
   2       0.000375       0.000906      -0.000971
   3       0.096433       0.133450      -0.004033
   4       0.000523      -0.000153       0.000524
   5      -0.000374      -0.000604       0.000170
   6      -0.001420      -0.000416       0.000670
   7      -0.080319      -0.127623      -0.001797
   8       0.000015       0.003970       0.003065
   9       0.000530       0.000387       0.000770
  10       0.000158       0.000397      -0.001313
  11      -0.002029      -0.014214      -0.001618
  12      -0.008345       0.002981       0.004062
  13      -0.002384       0.000248       0.000817
---------------------------------------------------
 Number of fixed atoms: 0
 Gradient time:  CPU 589.39 s  wall 25.84 s
 Geometry Optimization Parameters
   NAtoms,    NIC,     NZ,  NCons,   NDum,   NFix, NCnnct, MaxDiis
       13      84       0       0       0       0       0       0

 Cartesian Hessian Update
 Hessian updated using BFGS update


** GEOMETRY OPTIMIZATION IN DELOCALIZED INTERNAL COORDINATES **
   Searching for a Minimum

   Optimization Cycle:   2

                       Coordinates (Angstroms)
     ATOM                X               Y               Z
      1  O        -1.9625794192   -4.3721492676    1.3369287845
      2  C        -1.5944387723   -5.0053327337    0.2134190221
      3  C        -2.8288756789   -3.2740492685    0.9954577353
      4  O        -0.7520246776   -5.8568954300    0.1644047200
      5  O        -2.2975941241   -4.5746171313   -0.8441493171
      6  C        -3.3065873936   -3.6367778744   -0.4048857987
      7  H        -2.3294718875   -2.4806655491    0.9903827247
      8  H        -3.6238924467   -3.2012834446    1.7436427437
      9  H        -3.2925389787   -2.7779070423   -1.0757518987
     10  H        -4.2776687956   -4.1306280302   -0.4438016088
     11  C        -0.8365458708   -1.2485146284    0.6455960059
     12  O         0.1093298162   -1.7394334067    0.1586144855
     13  H        -0.9621317711   -0.1712861932    0.9316224015
   Point Group: c1    Number of degrees of freedom:    33


   Energy is   -456.295826116

 Hessian updated using BFGS update

 32 Hessian modes will be used to form the next step
  Hessian Eigenvalues:
     0.002000    0.002003    0.008603    0.017024    0.023453    0.041498
     0.047279    0.049056    0.054338    0.055359    0.058747    0.096591
     0.101908    0.110294    0.117699    0.159964    0.160023    0.207555
     0.240965    0.249992    0.290184    0.314203    0.340368    0.347962
     0.348934    0.369016    0.390116    0.525613    0.555776    1.051670
     1.244075    1.277493

 Minimum search - taking simple RFO step
 Searching for Lamda that Minimizes Along All modes
 Value Taken    Lamda =  -0.02512932
 Step Taken.  Stepsize is  0.251158

                             Maximum     Tolerance    Cnvgd?
         Gradient           0.102068      0.000300      NO
         Displacement       0.185843      0.001200      NO
         Energy change     -0.096310      0.000001      NO


 New Cartesian Coordinates Obtained by Inverse Iteration

 Displacement from previous Coordinates is:  0.480675
 ----------------------------------------------------------------
             Standard Nuclear Orientation (Angstroms)
    I     Atom           X                Y                Z
 ----------------------------------------------------------------
    1      O      -1.9898190407    -4.3909375522     1.3382177639
    2      C      -1.6056134040    -5.0118932675     0.2134363651
    3      C      -2.8793159377    -3.3060297170     0.9988098521
    4      O      -0.7479404938    -5.8476006298     0.1611682708
    5      O      -2.3062444154    -4.5834539663    -0.8466465524
    6      C      -3.3361528969    -3.6688118262    -0.4085887406
    7      H      -2.3455831523    -2.4555692452     1.0045962944
    8      H      -3.6861561486    -3.2700620703     1.7315147539
    9      H      -3.3407731582    -2.8108687137    -1.0808465366
   10      H      -4.2960654271    -4.1852776728    -0.4468444023
   11      C      -0.7560892072    -1.1717193976     0.6492328056
   12      O       0.1857878364    -1.6719331148     0.1538353005
   13      H      -0.8510545543    -0.0953828265     0.9435948253
 ----------------------------------------------------------------
 Nuclear Repulsion Energy =         368.00020967 hartrees
 There are       31 alpha and       30 beta electrons
 Discretize the solute cavity surface with Lebedev spheres
	Using 110 Lebedev grid points for each H atom
	Using 194 Lebedev grid points for other atoms
	Atomic van der Waals radii will be scaled by 1.20
 Remove points where switching function is < 1.0e-08
 Keep 957 surface tesserae and discard 1145 interior tesserae
 Molecular Surface Area = 183.648 Angst**2
 Applying Cartesian multipole field
    Component          Value
    ---------          -----
     (2,0,0)        1.00000E-11
     (0,2,0)        2.00000E-12
     (0,0,2)       -3.00000E-11
 Nucleus-field energy     =     0.0000000124 hartrees
 Requested basis set is def2-TZVPPD
 There are 143 shells and 393 basis functions
 A cutoff of  1.0D-14 yielded   9613 shell pairs
 There are     73247 function pairs (     94189 Cartesian)
 Smallest overlap matrix eigenvalue = 2.48E-06
 Guess MOs from SCF MO coefficient file

 -----------------------------------------------------------------------
  General SCF calculation program by
  Eric Jon Sundstrom, Paul Horn, Yuezhi Mao, Dmitri Zuev, Alec White,
  David Stuck, Shaama M.S., Shane Yost, Joonho Lee, David Small,
  Daniel Levine, Susi Lehtola, Hugh Burton, Evgeny Epifanovsky,
  Bang C. Huynh
 -----------------------------------------------------------------------
 Exchange:     0.1670 Hartree-Fock + 1.0000 wB97X-V + LR-HF
 Correlation:  1.0000 wB97X-V
 Using SG-3 standard quadrature grid
 Nonlocal Correlation:  VV10 with C = 0.0100 and b = 6.00 and scale = 1.00000
 Grid used for NLC:  SG-1 standard quadrature
 
 Citation of the SMD model:
 Marenich, A.V.; Cramer, C.J.; Truhlar, D.G.
 J. Phys. Chem. B 2009, 113, 6378-6396.
 iSolventCode=           0
 Solvent: other                                                           
 
 vradii
            1           2           3           4           5           6
    1   2.2940000   1.8500000   1.8500000   2.2940000   2.2940000   1.8500000
            7           8           9          10          11          12
    1   1.2000000   1.2000000   1.2000000   1.2000000   1.8500000   2.2940000
           13
    1   1.2000000
 using 40 threads for integral computing
 -------------------------------------------------------
 OpenMP Integral computing Module                
 Release: version 1.0, May 2013, Q-Chem Inc. Pittsburgh 
 -------------------------------------------------------
 using 40 threads for integral computing
 -------------------------------------------------------
 OpenMP Integral computing Module                
 Release: version 1.0, May 2013, Q-Chem Inc. Pittsburgh 
 -------------------------------------------------------
 -------------------------------------------------------
 OpenMP BLAS3 based DFT computing Module                
 Release: version 1.0, May 2013, Q-Chem Inc. Pittsburgh 
 -------------------------------------------------------
 -------------------------------------------------------
 OpenMP BLAS3 based DFT computing Module                
 Release: version 1.0, May 2013, Q-Chem Inc. Pittsburgh 
 -------------------------------------------------------
 -------------------------------------------------------
 OpenMP BLAS3 based DFT computing Module                
 Release: version 1.0, May 2013, Q-Chem Inc. Pittsburgh 
 -------------------------------------------------------
 A unrestricted SCF calculation will be
 performed using Roothaan-Hall, DIIS
 SCF converges when DIIS error is below 1.0e-08
 ---------------------------------------
  Cycle       Energy         DIIS error
 ---------------------------------------
    1    -456.7755979803      3.42e-04  Roothaan Step
 ---------------------------------------
  Cycle       Energy         DIIS error
 ---------------------------------------
    1    -456.3051530597      2.05e-04  
    2    -456.3071145904      2.42e-04  
    3    -456.3100822822      2.98e-05  
    4    -456.3101853668      1.65e-05  
    5    -456.3102083067      5.76e-06  
    6    -456.3102124068      2.40e-06  
    7    -456.3102130695      1.00e-06  
    8    -456.3102133277      5.46e-07  
    9    -456.3102134447      3.69e-07  
   10    -456.3102135524      2.20e-07  
   11    -456.3102136066      1.23e-07  
   12    -456.3102136263      4.48e-08  
   13    -456.3102136282      1.41e-08  
   14    -456.3102136283      4.77e-09  Convergence criterion met
 ---------------------------------------
 SCF time:   CPU 3155.43s  wall 125.00s 
<S^2> =          0.753458730
(3)  G-ENP(liq) elect-nuc-pol free energy of system     -456.310213628 a.u.
(4)  G-CDS(liq) cavity-dispersion-solvent structure 
     free energy                                               -2.4314 kcal/mol
(6)  G-S(liq) free energy of system                     -456.314088372 a.u.
 SCF   energy in the final basis set =     -456.3102136283
 Total energy in the final basis set =     -456.3140883716
 
 --------------------------------------------------------------
 
                    Orbital Energies (a.u.)
 --------------------------------------------------------------
 
 Alpha MOs
 -- Occupied --
-19.2747 -19.2696 -19.2688 -19.1994 -10.4445 -10.3681 -10.3336 -10.3201
 -1.2950  -1.2391  -1.1769  -1.1687  -0.9084  -0.8009  -0.7358  -0.7234
 -0.6655  -0.6319  -0.6161  -0.6112  -0.5678  -0.5540  -0.5493  -0.5449
 -0.5366  -0.4886  -0.4757  -0.4198  -0.4141  -0.4078  -0.3099
 -- Virtual --
  0.0445   0.0566   0.0750   0.0805   0.0814   0.1034   0.1072   0.1136
  0.1177   0.1225   0.1289   0.1451   0.1523   0.1579   0.1628   0.1658
  0.1722   0.1902   0.1947   0.2107   0.2174   0.2242   0.2303   0.2352
  0.2460   0.2616   0.2723   0.2801   0.2835   0.2848   0.2923   0.3029
  0.3063   0.3158   0.3240   0.3298   0.3353   0.3446   0.3523   0.3547
  0.3597   0.3642   0.3761   0.3856   0.3886   0.3936   0.4011   0.4036
  0.4109   0.4237   0.4331   0.4407   0.4428   0.4482   0.4567   0.4575
  0.4709   0.4757   0.4812   0.4921   0.5008   0.5074   0.5176   0.5279
  0.5347   0.5436   0.5474   0.5497   0.5580   0.5664   0.5731   0.5908
  0.5995   0.6141   0.6196   0.6264   0.6293   0.6344   0.6479   0.6624
  0.6690   0.6744   0.6807   0.6924   0.6956   0.7072   0.7177   0.7225
  0.7309   0.7374   0.7558   0.7596   0.7701   0.7710   0.7808   0.7867
  0.7976   0.8183   0.8253   0.8331   0.8393   0.8502   0.8726   0.8871
  0.8972   0.9018   0.9238   0.9328   0.9364   0.9563   0.9604   0.9687
  0.9805   0.9992   1.0010   1.0180   1.0200   1.0392   1.0654   1.0856
  1.0987   1.1077   1.1194   1.1417   1.1580   1.1834   1.1965   1.2137
  1.2176   1.2260   1.2466   1.2528   1.2810   1.2911   1.3037   1.3130
  1.3291   1.3397   1.3541   1.3684   1.3795   1.3960   1.4139   1.4260
  1.4418   1.4585   1.4707   1.4748   1.5165   1.5392   1.5689   1.5990
  1.6257   1.6441   1.6458   1.6695   1.7075   1.7281   1.7505   1.7622
  1.7733   1.8081   1.8519   1.8829   1.8975   1.9003   1.9353   1.9442
  1.9655   1.9896   2.0006   2.0178   2.0587   2.1008   2.1072   2.1153
  2.1549   2.1924   2.2370   2.2570   2.2861   2.2898   2.3258   2.3336
  2.3586   2.3978   2.4197   2.4415   2.4469   2.4610   2.4941   2.5555
  2.6035   2.6156   2.7196   2.7373   2.7524   2.7749   2.7980   2.8516
  2.8781   2.8998   2.9181   2.9460   2.9528   2.9658   2.9741   2.9832
  3.0262   3.0353   3.0385   3.0690   3.0869   3.1348   3.1515   3.1645
  3.1787   3.2048   3.2149   3.2404   3.2561   3.2671   3.2762   3.2904
  3.3075   3.3295   3.3415   3.3619   3.3771   3.4034   3.4096   3.4292
  3.4357   3.4759   3.4914   3.5171   3.5240   3.5296   3.5361   3.5512
  3.5660   3.5938   3.6025   3.6292   3.6442   3.6609   3.6777   3.7005
  3.7549   3.7599   3.7889   3.8285   3.8384   3.8574   3.8653   3.8911
  3.9070   3.9130   3.9895   4.0192   4.0250   4.0327   4.0754   4.1120
  4.1504   4.1778   4.2376   4.2558   4.2718   4.3317   4.3551   4.3978
  4.4025   4.4510   4.4755   4.4793   4.5104   4.5504   4.6028   4.6371
  4.6869   4.7038   4.7376   4.7902   4.8630   4.8829   4.9149   4.9466
  4.9611   4.9803   4.9932   5.0135   5.0271   5.0789   5.1504   5.2365
  5.2557   5.2629   5.2821   5.3075   5.3294   5.3703   5.4000   5.4424
  5.4712   5.5150   5.5530   5.6054   5.6623   5.6700   5.7036   5.7234
  5.7441   5.7753   5.8130   5.8434   5.9362   5.9623   5.9821   6.0169
  6.0392   6.1217   6.1497   6.1937   6.2637   6.2811   6.3362   6.4095
  6.5129   6.5449   6.5479   6.5519   6.5756   6.6434   6.6800   6.6901
  6.7101   6.8624   6.8795   6.8879   6.9246   7.0127   7.0588   7.0966
  7.1321   7.1611   7.1869   7.2755   7.3145   7.4023   7.4813   7.5984
  7.6687   7.6740  23.2353  23.4247  23.7274  23.9805  44.0782  44.4090
 44.4530  44.5719
 
 Beta MOs
 -- Occupied --
-19.2696 -19.2688 -19.2676 -19.1994 -10.4445 -10.3599 -10.3336 -10.3193
 -1.2949  -1.2234  -1.1768  -1.1687  -0.9073  -0.7998  -0.7234  -0.7050
 -0.6626  -0.6312  -0.6107  -0.5906  -0.5560  -0.5532  -0.5469  -0.5368
 -0.4964  -0.4878  -0.4753  -0.4182  -0.4117  -0.4076
 -- Virtual --
  0.0161   0.0562   0.0575   0.0770   0.0815   0.0822   0.1037   0.1092
  0.1146   0.1181   0.1238   0.1298   0.1466   0.1538   0.1593   0.1633
  0.1685   0.1729   0.1909   0.1962   0.2127   0.2187   0.2255   0.2331
  0.2362   0.2471   0.2631   0.2739   0.2820   0.2849   0.2877   0.2933
  0.3040   0.3087   0.3174   0.3248   0.3348   0.3372   0.3460   0.3550
  0.3556   0.3615   0.3657   0.3774   0.3881   0.3900   0.3939   0.4016
  0.4062   0.4128   0.4255   0.4368   0.4415   0.4435   0.4497   0.4575
  0.4582   0.4723   0.4764   0.4826   0.4929   0.5030   0.5094   0.5182
  0.5320   0.5393   0.5439   0.5501   0.5533   0.5591   0.5671   0.5760
  0.5915   0.6014   0.6145   0.6205   0.6268   0.6305   0.6351   0.6488
  0.6631   0.6703   0.6749   0.6820   0.6933   0.6970   0.7084   0.7191
  0.7250   0.7356   0.7421   0.7576   0.7617   0.7715   0.7726   0.7815
  0.7891   0.8012   0.8196   0.8276   0.8362   0.8399   0.8568   0.8740
  0.8875   0.8976   0.9047   0.9245   0.9354   0.9396   0.9582   0.9635
  0.9725   0.9815   1.0014   1.0024   1.0188   1.0217   1.0417   1.0668
  1.0919   1.1006   1.1137   1.1217   1.1430   1.1600   1.1862   1.2016
  1.2162   1.2193   1.2268   1.2471   1.2547   1.2822   1.2952   1.3065
  1.3170   1.3307   1.3422   1.3578   1.3690   1.3830   1.3979   1.4145
  1.4276   1.4431   1.4591   1.4750   1.4772   1.5179   1.5405   1.5748
  1.5998   1.6305   1.6452   1.6464   1.6740   1.7101   1.7299   1.7518
  1.7713   1.7833   1.8103   1.8600   1.8835   1.8986   1.9055   1.9377
  1.9519   1.9662   1.9912   2.0036   2.0206   2.0622   2.1044   2.1098
  2.1169   2.1609   2.1974   2.2389   2.2593   2.2869   2.2962   2.3275
  2.3408   2.3649   2.4001   2.4207   2.4434   2.4528   2.4630   2.4945
  2.5567   2.6043   2.6165   2.7209   2.7389   2.7585   2.7916   2.8111
  2.8562   2.8830   2.9090   2.9296   2.9502   2.9579   2.9761   2.9826
  2.9878   3.0279   3.0390   3.0418   3.0727   3.0896   3.1406   3.1625
  3.1689   3.1843   3.2095   3.2166   3.2527   3.2633   3.2832   3.2952
  3.3012   3.3131   3.3338   3.3485   3.3657   3.3816   3.4076   3.4104
  3.4345   3.4393   3.4777   3.5002   3.5214   3.5306   3.5344   3.5454
  3.5576   3.5673   3.6019   3.6070   3.6345   3.6473   3.6640   3.6817
  3.7025   3.7571   3.7659   3.7926   3.8359   3.8447   3.8658   3.8746
  3.8917   3.9084   3.9137   3.9899   4.0198   4.0279   4.0538   4.0759
  4.1137   4.1694   4.1805   4.2382   4.2561   4.2726   4.3318   4.3701
  4.4012   4.4069   4.4514   4.4759   4.4791   4.5149   4.5540   4.6049
  4.6373   4.6870   4.7203   4.7383   4.7912   4.8686   4.8974   4.9160
  4.9500   4.9760   4.9818   4.9969   5.0138   5.0274   5.0795   5.1510
  5.2379   5.2709   5.2784   5.2837   5.3096   5.3439   5.3704   5.4010
  5.4429   5.4719   5.5152   5.5535   5.6057   5.6628   5.6701   5.7177
  5.7239   5.7445   5.7758   5.8213   5.8498   5.9370   5.9628   5.9829
  6.0190   6.0396   6.1219   6.1502   6.1939   6.2713   6.2813   6.3366
  6.4096   6.5131   6.5515   6.5711   6.5744   6.5929   6.6438   6.6802
  6.6992   6.7223   6.8674   6.8796   6.8880   6.9247   7.0168   7.0711
  7.1008   7.1340   7.1612   7.1871   7.2861   7.3147   7.4023   7.4813
  7.5984   7.6687   7.6741  23.2458  23.4249  23.7279  23.9807  44.0867
 44.4090  44.4530  44.5719
 --------------------------------------------------------------
 
          Ground-State Mulliken Net Atomic Charges

     Atom                 Charge (a.u.)    Spin (a.u.)
  --------------------------------------------------------
      1 O                    -0.282925      -0.000350
      2 C                     0.471074       0.001604
      3 C                     0.303872       0.111315
      4 O                    -0.467650       0.000243
      5 O                    -0.269869      -0.000019
      6 C                     0.138172       0.001455
      7 H                    -0.155614      -0.066992
      8 H                     0.062535       0.001850
      9 H                     0.083734      -0.000889
     10 H                     0.059326       0.000138
     11 C                     0.254071       0.561252
     12 O                    -0.265147       0.259857
     13 H                     0.068422       0.130535
  --------------------------------------------------------
  Sum of atomic charges =    -0.000000
  Sum of spin   charges =     1.000000

  Building new vdw surfaces
         Merz-Kollman RESP Net Atomic Charges

     Atom                 Charge (a.u.)
  ----------------------------------------
      1 O                    -0.426446
      2 C                     0.850456
      3 C                     0.287237
      4 O                    -0.616377
      5 O                    -0.369075
      6 C                    -0.102180
      7 H                    -0.139810
      8 H                     0.087118
      9 H                     0.145564
     10 H                     0.145564
     11 C                     0.356002
     12 O                    -0.327257
     13 H                     0.109205
  ----------------------------------------
  Sum of atomic charges =     0.000000

  Related Dipole Moment =     9.3120 (X -5.8535 Y  7.1615 Z  1.0782)

 -----------------------------------------------------------------
                    Cartesian Multipole Moments
 -----------------------------------------------------------------
    Charge (ESU x 10^10)
                -0.0000
    Dipole Moment (Debye)
         X      -5.8227      Y       7.1362      Z       1.0978
       Tot       9.2754
    Quadrupole Moments (Debye-Ang)
        XX     -24.7237     XY      12.7114     YY     -95.9312
        XZ      -2.2758     YZ      -0.1009     ZZ     -46.5256
    Octopole Moments (Debye-Ang^2)
       XXX     156.8020    XXY      98.1226    XYY      53.6754
       YYY     825.9262    XXZ      -6.5330    XYZ       6.1966
       YYZ     -16.3436    XZZ      78.5706    YZZ     179.5375
       ZZZ     -39.3100
    Hexadecapole Moments (Debye-Ang^3)
      XXXX    -925.7991   XXXY    -649.8931   XXYY    -695.2549
      XYYY    -932.9762   YYYY   -6378.2954   XXXZ      33.7206
      XXYZ      14.5712   XYYZ      -4.8149   YYYZ     139.6396
      XXZZ    -225.8572   XYZZ    -324.4642   YYZZ    -832.9474
      XZZZ      51.7589   YZZZ     119.6269   ZZZZ    -204.5509
 -----------------------------------------------------------------
 Calculating analytic gradient of the SCF energy
 Gradient of CDS energy
            1           2           3           4           5           6
    1  -0.0004202   0.0010326  -0.0001035   0.0002091  -0.0008236  -0.0008478
    2   0.0009179  -0.0014568   0.0006990  -0.0002083   0.0005883  -0.0001403
    3   0.0001245  -0.0000347   0.0015433  -0.0000206  -0.0001779  -0.0013401
            7           8           9          10          11          12
    1   0.0001739   0.0001218   0.0001697   0.0002517   0.0001565   0.0000485
    2  -0.0007126  -0.0001960  -0.0001986  -0.0000168   0.0014289  -0.0003525
    3  -0.0005148  -0.0001843   0.0001592   0.0001122   0.0004623  -0.0000328
           13
    1   0.0000311
    2  -0.0003522
    3  -0.0000963
 Gradient of SCF Energy
            1           2           3           4           5           6
    1   0.0003308   0.0030189   0.0459081  -0.0032547   0.0014624   0.0108607
    2  -0.0002305  -0.0038419   0.0560260   0.0046773  -0.0022187  -0.0014339
    3   0.0001123  -0.0003678  -0.0097240   0.0000041  -0.0002678   0.0108771
            7           8           9          10          11          12
    1  -0.0285515  -0.0094583  -0.0000713  -0.0116044  -0.0157583   0.0085826
    2  -0.0532836   0.0022220   0.0105366  -0.0050523  -0.0179657  -0.0063506
    3  -0.0031393   0.0090324  -0.0071782  -0.0016917   0.0019274  -0.0042189
           13
    1  -0.0014649
    2   0.0169152
    3   0.0046343
 Max gradient component =       5.603E-02
 RMS gradient           =       1.666E-02
 Computing fast CPCM-SWIG gradient
 Updating gradient with PCM contributions...
 -- total gradient after adding PCM contribution --
---------------------------------------------------
  Atom         X              Y              Z     
---------------------------------------------------
   1      -0.001413       0.001018       0.000074
   2       0.000231      -0.000204      -0.000506
   3       0.044102       0.063464       0.000365
   4       0.000232       0.000409      -0.000059
   5      -0.000021      -0.000651       0.000244
   6      -0.001251      -0.000074       0.000683
   7      -0.034526      -0.059799      -0.003331
   8      -0.000141       0.001322       0.001039
   9       0.000489       0.000386       0.000105
  10       0.000022       0.000306      -0.000741
  11      -0.005863      -0.006415       0.001410
  12      -0.000795       0.000217       0.000410
  13      -0.001065       0.000022       0.000307
---------------------------------------------------
 Number of fixed atoms: 0
 Gradient time:  CPU 575.26 s  wall 25.53 s
 Geometry Optimization Parameters
   NAtoms,    NIC,     NZ,  NCons,   NDum,   NFix, NCnnct, MaxDiis
       13      84       0       0       0       0       0       0

 Cartesian Hessian Update
 Hessian updated using BFGS update


** GEOMETRY OPTIMIZATION IN DELOCALIZED INTERNAL COORDINATES **
   Searching for a Minimum

   Optimization Cycle:   3

                       Coordinates (Angstroms)
     ATOM                X               Y               Z
      1  O        -1.9898190407   -4.3909375522    1.3382177639
      2  C        -1.6056134040   -5.0118932675    0.2134363651
      3  C        -2.8793159377   -3.3060297170    0.9988098521
      4  O        -0.7479404938   -5.8476006298    0.1611682708
      5  O        -2.3062444154   -4.5834539663   -0.8466465524
      6  C        -3.3361528969   -3.6688118262   -0.4085887406
      7  H        -2.3455831523   -2.4555692452    1.0045962944
      8  H        -3.6861561486   -3.2700620703    1.7315147539
      9  H        -3.3407731582   -2.8108687137   -1.0808465366
     10  H        -4.2960654271   -4.1852776728   -0.4468444023
     11  C        -0.7560892072   -1.1717193976    0.6492328056
     12  O         0.1857878364   -1.6719331148    0.1538353005
     13  H        -0.8510545543   -0.0953828265    0.9435948253
   Point Group: c1    Number of degrees of freedom:    33


   Energy is   -456.314088372

 Hessian updated using BFGS update

 33 Hessian modes will be used to form the next step
  Hessian Eigenvalues:
     0.002000    0.002003    0.008601    0.017038    0.023448    0.041485
     0.046324    0.047291    0.054315    0.055426    0.058901    0.096715
     0.101872    0.110291    0.117678    0.158682    0.160000    0.160244
     0.207636    0.240960    0.250026    0.290185    0.314184    0.340246
     0.347954    0.348930    0.368858    0.389897    0.525618    0.555667
     0.745103    1.051691    1.247063

 Minimum search - taking simple RFO step
 Searching for Lamda that Minimizes Along All modes
 Value Taken    Lamda =  -0.01113038
 Step Taken.  Stepsize is  0.250429

                             Maximum     Tolerance    Cnvgd?
         Gradient           0.049433      0.000300      NO
         Displacement       0.185482      0.001200      NO
         Energy change     -0.018262      0.000001      NO


 New Cartesian Coordinates Obtained by Inverse Iteration

 Displacement from previous Coordinates is:  0.451834
 ----------------------------------------------------------------
             Standard Nuclear Orientation (Angstroms)
    I     Atom           X                Y                Z
 ----------------------------------------------------------------
    1      O      -2.0183459104    -4.4117011321     1.3388568877
    2      C      -1.6099409564    -5.0107363970     0.2116094964
    3      C      -2.9278509805    -3.3373614480     1.0031553602
    4      O      -0.7475013331    -5.8418505879     0.1615226071
    5      O      -2.3057943680    -4.5816892433    -0.8516753919
    6      C      -3.3604348366    -3.6976472812    -0.4125952017
    7      H      -2.3751787464    -2.4296620283     1.0264502142
    8      H      -3.7435642675    -3.3352945186     1.7231932742
    9      H      -3.3888313782    -2.8380760891    -1.0808379585
   10      H      -4.3056586406    -4.2413856765    -0.4532556469
   11      C      -0.6802746717    -1.1004688784     0.6496367235
   12      O       0.2476976711    -1.6193251054     0.1452431431
   13      H      -0.7393415815    -0.0243416142     0.9501764923
 ----------------------------------------------------------------
 Nuclear Repulsion Energy =         365.07724252 hartrees
 There are       31 alpha and       30 beta electrons
 Discretize the solute cavity surface with Lebedev spheres
	Using 110 Lebedev grid points for each H atom
	Using 194 Lebedev grid points for other atoms
	Atomic van der Waals radii will be scaled by 1.20
 Remove points where switching function is < 1.0e-08
 Keep 961 surface tesserae and discard 1141 interior tesserae
 Molecular Surface Area = 186.008 Angst**2
 Applying Cartesian multipole field
    Component          Value
    ---------          -----
     (2,0,0)        1.00000E-11
     (0,2,0)        2.00000E-12
     (0,0,2)       -3.00000E-11
 Nucleus-field energy     =     0.0000000125 hartrees
 Requested basis set is def2-TZVPPD
 There are 143 shells and 393 basis functions
 A cutoff of  1.0D-14 yielded   9568 shell pairs
 There are     72810 function pairs (     93582 Cartesian)
 Smallest overlap matrix eigenvalue = 3.42E-06
 Guess MOs from SCF MO coefficient file

 -----------------------------------------------------------------------
  General SCF calculation program by
  Eric Jon Sundstrom, Paul Horn, Yuezhi Mao, Dmitri Zuev, Alec White,
  David Stuck, Shaama M.S., Shane Yost, Joonho Lee, David Small,
  Daniel Levine, Susi Lehtola, Hugh Burton, Evgeny Epifanovsky,
  Bang C. Huynh
 -----------------------------------------------------------------------
 Exchange:     0.1670 Hartree-Fock + 1.0000 wB97X-V + LR-HF
 Correlation:  1.0000 wB97X-V
 Using SG-3 standard quadrature grid
 Nonlocal Correlation:  VV10 with C = 0.0100 and b = 6.00 and scale = 1.00000
 Grid used for NLC:  SG-1 standard quadrature
 
 Citation of the SMD model:
 Marenich, A.V.; Cramer, C.J.; Truhlar, D.G.
 J. Phys. Chem. B 2009, 113, 6378-6396.
 iSolventCode=           0
 Solvent: other                                                           
 
 vradii
            1           2           3           4           5           6
    1   2.2940000   1.8500000   1.8500000   2.2940000   2.2940000   1.8500000
            7           8           9          10          11          12
    1   1.2000000   1.2000000   1.2000000   1.2000000   1.8500000   2.2940000
           13
    1   1.2000000
 using 40 threads for integral computing
 -------------------------------------------------------
 OpenMP Integral computing Module                
 Release: version 1.0, May 2013, Q-Chem Inc. Pittsburgh 
 -------------------------------------------------------
 using 40 threads for integral computing
 -------------------------------------------------------
 OpenMP Integral computing Module                
 Release: version 1.0, May 2013, Q-Chem Inc. Pittsburgh 
 -------------------------------------------------------
 -------------------------------------------------------
 OpenMP BLAS3 based DFT computing Module                
 Release: version 1.0, May 2013, Q-Chem Inc. Pittsburgh 
 -------------------------------------------------------
 -------------------------------------------------------
 OpenMP BLAS3 based DFT computing Module                
 Release: version 1.0, May 2013, Q-Chem Inc. Pittsburgh 
 -------------------------------------------------------
 -------------------------------------------------------
 OpenMP BLAS3 based DFT computing Module                
 Release: version 1.0, May 2013, Q-Chem Inc. Pittsburgh 
 -------------------------------------------------------
 A unrestricted SCF calculation will be
 performed using Roothaan-Hall, DIIS
 SCF converges when DIIS error is below 1.0e-08
 ---------------------------------------
  Cycle       Energy         DIIS error
 ---------------------------------------
    1    -456.7566669880      3.10e-04  Roothaan Step
 ---------------------------------------
  Cycle       Energy         DIIS error
 ---------------------------------------
    1    -456.3126141241      2.04e-04  
    2    -456.3145600441      2.40e-04  
    3    -456.3174791495      2.97e-05  
    4    -456.3175808088      1.68e-05  
    5    -456.3176040381      5.68e-06  
    6    -456.3176079897      2.41e-06  
    7    -456.3176086116      9.82e-07  
    8    -456.3176088359      5.25e-07  
    9    -456.3176089309      3.39e-07  
   10    -456.3176090126      1.96e-07  
   11    -456.3176090529      1.13e-07  
   12    -456.3176090691      4.61e-08  
   13    -456.3176090713      1.94e-08  
   14    -456.3176090714      1.20e-08  
   15    -456.3176090715      4.91e-09  Convergence criterion met
 ---------------------------------------
 SCF time:   CPU 3289.02s  wall 133.00s 
<S^2> =          0.753466573
(3)  G-ENP(liq) elect-nuc-pol free energy of system     -456.317609071 a.u.
(4)  G-CDS(liq) cavity-dispersion-solvent structure 
     free energy                                               -2.3628 kcal/mol
(6)  G-S(liq) free energy of system                     -456.321374475 a.u.
 SCF   energy in the final basis set =     -456.3176090715
 Total energy in the final basis set =     -456.3213744752
 
 --------------------------------------------------------------
 
                    Orbital Energies (a.u.)
 --------------------------------------------------------------
 
 Alpha MOs
 -- Occupied --
-19.2753 -19.2697 -19.2692 -19.1994 -10.4445 -10.3691 -10.3338 -10.3274
 -1.2950  -1.2391  -1.1768  -1.1686  -0.9061  -0.7982  -0.7357  -0.7231
 -0.6616  -0.6310  -0.6163  -0.6094  -0.5651  -0.5539  -0.5493  -0.5451
 -0.5362  -0.4886  -0.4763  -0.4188  -0.4134  -0.4078  -0.3122
 -- Virtual --
  0.0448   0.0566   0.0752   0.0803   0.0813   0.1034   0.1068   0.1128
  0.1176   0.1223   0.1288   0.1431   0.1522   0.1580   0.1623   0.1657
  0.1712   0.1897   0.1937   0.2094   0.2169   0.2215   0.2278   0.2336
  0.2462   0.2603   0.2716   0.2799   0.2803   0.2856   0.2919   0.3008
  0.3048   0.3137   0.3223   0.3277   0.3337   0.3433   0.3490   0.3543
  0.3580   0.3632   0.3756   0.3845   0.3882   0.3931   0.4012   0.4022
  0.4081   0.4178   0.4284   0.4395   0.4412   0.4468   0.4528   0.4554
  0.4658   0.4762   0.4798   0.4879   0.4969   0.5038   0.5144   0.5205
  0.5293   0.5388   0.5428   0.5492   0.5551   0.5676   0.5721   0.5883
  0.5992   0.6110   0.6163   0.6234   0.6282   0.6318   0.6452   0.6619
  0.6641   0.6718   0.6798   0.6895   0.6954   0.7019   0.7140   0.7179
  0.7290   0.7339   0.7511   0.7594   0.7685   0.7711   0.7799   0.7861
  0.7967   0.8145   0.8205   0.8321   0.8377   0.8468   0.8688   0.8861
  0.8930   0.8992   0.9211   0.9271   0.9317   0.9501   0.9528   0.9599
  0.9747   0.9824   0.9980   1.0165   1.0194   1.0350   1.0634   1.0746
  1.0965   1.1009   1.1165   1.1355   1.1552   1.1851   1.1884   1.2068
  1.2158   1.2252   1.2439   1.2500   1.2730   1.2827   1.2961   1.3020
  1.3207   1.3360   1.3474   1.3637   1.3686   1.3874   1.4104   1.4169
  1.4371   1.4517   1.4559   1.4624   1.5112   1.5351   1.5604   1.5983
  1.6107   1.6387   1.6464   1.6603   1.7081   1.7181   1.7403   1.7456
  1.7600   1.8029   1.8423   1.8848   1.8975   1.9024   1.9339   1.9409
  1.9644   1.9864   1.9981   2.0253   2.0515   2.0790   2.1063   2.1162
  2.1419   2.1679   2.2297   2.2480   2.2591   2.2799   2.3090   2.3232
  2.3523   2.3980   2.4207   2.4341   2.4434   2.4559   2.4927   2.5505
[...]
         X      -5.8277      Y       2.5057      Z      -0.5686
       Tot       6.3690
    Quadrupole Moments (Debye-Ang)
        XX     -19.3912     XY      20.2594     YY     -65.9821
        XZ      -4.2237     YZ      -2.5371     ZZ     -50.0579
    Octopole Moments (Debye-Ang^2)
       XXX     126.0381    XXY      60.7400    XYY       2.3460
       YYY     587.3360    XXZ      -3.1142    XYZ      13.2147
       YYZ      -2.3188    XZZ      74.6084    YZZ     166.8411
       ZZZ     -49.7322
    Hexadecapole Moments (Debye-Ang^3)
      XXXX    -921.0301   XXXY    -496.3606   XXYY    -468.7754
      XYYY    -591.0445   YYYY   -4272.7627   XXXZ      10.7483
      XXYZ     -13.9790   XYYZ     -22.8856   YYYZ      52.8047
      XXZZ    -245.2400   XYZZ    -289.3069   YYZZ    -694.8960
      XZZZ      40.0230   YZZZ      97.1676   ZZZZ    -285.0894
 -----------------------------------------------------------------
 Calculating analytic gradient of the SCF energy
 Gradient of CDS energy
            1           2           3           4           5           6
    1  -0.0005861   0.0007034  -0.0002465   0.0003163  -0.0007577  -0.0007874
    2   0.0007257  -0.0018935  -0.0000452   0.0003712   0.0005088   0.0001180
    3   0.0003431  -0.0005036   0.0015717   0.0000079   0.0001376  -0.0013592
            7           8           9          10          11          12
    1   0.0001279   0.0001700   0.0002550   0.0002427   0.0007836  -0.0000151
    2  -0.0002639  -0.0000883  -0.0000950   0.0000283   0.0006983   0.0000703
    3  -0.0003012  -0.0002420   0.0001450   0.0001397  -0.0005250   0.0003121
           13
    1  -0.0002060
    2  -0.0001347
    3   0.0002739
 Gradient of SCF Energy
            1           2           3           4           5           6
    1   0.0015713   0.0027245   0.0045045  -0.0019338   0.0004366   0.0137744
    2  -0.0003213  -0.0005811  -0.0061268  -0.0009445  -0.0007334   0.0003207
    3   0.0015631  -0.0010633  -0.0125872   0.0006753  -0.0015459   0.0098548
            7           8           9          10          11          12
    1   0.0008825  -0.0084747  -0.0049705  -0.0091522  -0.0055844   0.0012736
    2   0.0097218  -0.0046636   0.0109643  -0.0085778  -0.0002670   0.0003214
    3   0.0038186   0.0068882  -0.0046939  -0.0028720   0.0026485   0.0036532
           13
    1   0.0049481
    2   0.0008874
    3  -0.0063393
 Max gradient component =       1.377E-02
 RMS gradient           =       5.610E-03
 Computing fast CPCM-SWIG gradient
 Updating gradient with PCM contributions...
 -- total gradient after adding PCM contribution --
---------------------------------------------------
  Atom         X              Y              Z     
---------------------------------------------------
   1       0.000001      -0.000003      -0.000004
   2       0.000000       0.000001      -0.000007
   3       0.000002      -0.000001       0.000003
   4      -0.000003       0.000003      -0.000010
   5      -0.000004       0.000005      -0.000002
   6      -0.000004       0.000002       0.000004
   7       0.000020       0.000006       0.000010
   8       0.000004      -0.000004       0.000002
   9      -0.000002       0.000004       0.000007
  10      -0.000003       0.000004       0.000003
  11       0.000015       0.000000      -0.000009
  12      -0.000021      -0.000017       0.000005
  13      -0.000005      -0.000000      -0.000003
---------------------------------------------------
 Number of fixed atoms: 0
 Gradient time:  CPU 585.96 s  wall 26.22 s
 Geometry Optimization Parameters
   NAtoms,    NIC,     NZ,  NCons,   NDum,   NFix, NCnnct, MaxDiis
       13      84       0       0       0       0       0       0

 Cartesian Hessian Update
 Hessian updated using BFGS update


** GEOMETRY OPTIMIZATION IN DELOCALIZED INTERNAL COORDINATES **
   Searching for a Minimum

   Optimization Cycle: 106

                       Coordinates (Angstroms)
     ATOM                X               Y               Z
      1  O        -1.9995034827   -4.3066815566    1.2149558113
      2  C        -1.4689382355   -4.3670984148   -0.0149256852
      3  C        -3.2221965281   -3.5418068806    1.1653146181
      4  O        -0.3800508564   -4.8066033736   -0.2596803588
      5  O        -2.3139473256   -3.8886428533   -0.9387014583
      6  C        -3.5786508593   -3.5796102918   -0.3147270525
      7  H        -3.0108960571   -2.5329133883    1.5244588294
      8  H        -3.9604866911   -4.0247448626    1.8025973929
      9  H        -3.9330918474   -2.6254362993   -0.7002520427
     10  H        -4.2850668945   -4.3744923988   -0.5606065435
     11  C        -0.2528925470   -1.6151044464    0.4581211522
     12  O         0.0845957341   -1.2120517346    1.5096060147
     13  H         0.3661055906   -1.5943534992   -0.4746806779
   Point Group: c1    Number of degrees of freedom:    33


   Energy is   -456.327435785

 Hessian updated using BFGS update

 33 Hessian modes will be used to form the next step
  Hessian Eigenvalues:
     0.002221    0.002629    0.005329    0.008549    0.014456    0.019906
     0.028922    0.050384    0.053796    0.054589    0.059726    0.095314
     0.098825    0.108624    0.118915    0.135603    0.212648    0.246515
     0.260498    0.279873    0.310958    0.326304    0.342985    0.347413
     0.349096    0.362826    0.363611    0.406644    0.453031    0.520192
     0.623240    1.110308    1.257580

 Minimum search - taking simple RFO step
 Searching for Lamda that Minimizes Along All modes
 Value Taken    Lamda =  -0.00000012
 Step Taken.  Stepsize is  0.003365

                             Maximum     Tolerance    Cnvgd?
         Gradient           0.000031      0.000300     YES
         Displacement       0.001543      0.001200      NO
         Energy change      0.000000      0.000001     YES


                       Distance Matrix (Angstroms)
             O (  1)   C (  2)   C (  3)   O (  4)   O (  5)   C (  6)
   C (  2)  1.340805
   C (  3)  1.443079  2.268918
   O (  4)  2.246575  1.199477  3.421712
   O (  5)  2.216274  1.340269  2.317778  2.245813
   C (  6)  2.315657  2.271763  1.522830  3.426308  1.443717
   H (  7)  2.065178  2.848082  1.091558  3.908218  2.896705  2.191010
   H (  8)  2.066462  3.102968  1.088316  4.205213  3.200677  2.197045
   H (  9)  3.198964  3.094368  2.196690  4.192337  2.067408  1.088442
   H ( 10)  2.894999  2.868519  2.191315  3.940359  2.065022  1.091475
   C ( 11)  3.296670  3.045654  3.609580  3.273694  3.371652  3.939194
   O ( 12)  3.742596  3.833012  4.059701  4.033246  4.348719  4.727885
   H ( 13)  3.975890  3.356617  4.399781  3.304773  3.558337  4.419042
             H (  7)   H (  8)   H (  9)   H ( 10)   C ( 11)   O ( 12)
   H (  8)  1.790152
   H (  9)  2.410051  2.867590
   H ( 10)  3.059808  2.410894  1.789577
   C ( 11)  3.096132  4.621714  3.988291  4.991038
   O ( 12)  3.365556  4.935563  4.798223  5.777609  1.175572
   H ( 13)  4.035046  5.460055  4.426863  5.419406  1.119691  2.040293

 
 Final energy is   -456.327435784657     


 ******************************
 **  OPTIMIZATION CONVERGED  **
 ******************************

                       Coordinates (Angstroms)
     ATOM                X               Y               Z
      1  O        -1.9995034827   -4.3066815566    1.2149558113
      2  C        -1.4689382355   -4.3670984148   -0.0149256852
      3  C        -3.2221965281   -3.5418068806    1.1653146181
      4  O        -0.3800508564   -4.8066033736   -0.2596803588
      5  O        -2.3139473256   -3.8886428533   -0.9387014583
      6  C        -3.5786508593   -3.5796102918   -0.3147270525
      7  H        -3.0108960571   -2.5329133883    1.5244588294
      8  H        -3.9604866911   -4.0247448626    1.8025973929
      9  H        -3.9330918474   -2.6254362993   -0.7002520427
     10  H        -4.2850668945   -4.3744923988   -0.5606065435
     11  C        -0.2528925470   -1.6151044464    0.4581211522
     12  O         0.0845957341   -1.2120517346    1.5096060147
     13  H         0.3661055906   -1.5943534992   -0.4746806779

Z-matrix Print:
$molecule
0 2
O 
C  1 1.340805
O  2 1.199477 1 124.256860
O  2 1.340269 1 111.509533 3 179.298724 0
C  1 1.443079 2 109.123420 3 171.309212 0
H  5 1.088316 1 108.628725 2 139.511565 0
H  5 1.091558 1 108.334140 2 -100.523332 0
C  4 1.443717 2 109.318712 1 -5.431805 0
H  8 1.088442 4 108.652419 2 137.250379 0
H  8 1.091475 4 108.283009 2 -102.868183 0
C  2 3.045654 1 88.556564 3 -89.038686 0
H  11 1.119691 2 96.204714 1 172.277626 0
O  11 1.175572 2 124.287604 1 30.983620 0
$end

 
 --------------------------------------------------------------
 
                    Orbital Energies (a.u.)
 --------------------------------------------------------------
 
 Alpha MOs
 -- Occupied --
-19.2737 -19.2705 -19.2703 -19.2009 -10.4460 -10.3674 -10.3347 -10.3343
 -1.2966  -1.2379  -1.1784  -1.1700  -0.9059  -0.7981  -0.7336  -0.7244
 -0.6598  -0.6323  -0.6146  -0.6102  -0.5584  -0.5551  -0.5491  -0.5434
 -0.5391  -0.4902  -0.4776  -0.4195  -0.4121  -0.4090  -0.3140
 -- Virtual --
  0.0479   0.0582   0.0740   0.0813   0.0830   0.1025   0.1075   0.1114
  0.1151   0.1218   0.1283   0.1488   0.1528   0.1556   0.1595   0.1675
  0.1838   0.1857   0.1944   0.2025   0.2124   0.2211   0.2306   0.2348
  0.2447   0.2546   0.2678   0.2737   0.2832   0.2856   0.2931   0.3037
  0.3132   0.3194   0.3251   0.3313   0.3352   0.3458   0.3500   0.3525
  0.3597   0.3644   0.3701   0.3834   0.3859   0.3949   0.4007   0.4035
  0.4108   0.4155   0.4214   0.4347   0.4392   0.4475   0.4493   0.4537
  0.4568   0.4734   0.4774   0.4802   0.4875   0.4937   0.5055   0.5188
  0.5214   0.5352   0.5406   0.5501   0.5560   0.5705   0.5729   0.5825
  0.5877   0.6017   0.6056   0.6253   0.6294   0.6422   0.6442   0.6523
  0.6628   0.6752   0.6831   0.6930   0.7003   0.7042   0.7176   0.7255
  0.7293   0.7383   0.7474   0.7534   0.7589   0.7637   0.7812   0.7855
  0.7993   0.8082   0.8148   0.8212   0.8336   0.8498   0.8559   0.8723
  0.8848   0.9005   0.9087   0.9198   0.9364   0.9454   0.9584   0.9654
  0.9761   0.9956   0.9991   1.0131   1.0282   1.0366   1.0759   1.0902
  1.0993   1.1179   1.1253   1.1359   1.1483   1.1906   1.2045   1.2077
  1.2226   1.2255   1.2356   1.2503   1.2643   1.2850   1.3002   1.3064
  1.3201   1.3481   1.3559   1.3640   1.3785   1.3863   1.4075   1.4244
  1.4381   1.4523   1.4844   1.4919   1.5058   1.5364   1.5509   1.5986
  1.6172   1.6348   1.6404   1.6575   1.7131   1.7249   1.7473   1.7598
  1.7743   1.8100   1.8504   1.8806   1.9077   1.9101   1.9188   1.9370
  1.9641   1.9866   1.9947   2.0036   2.0685   2.0912   2.1036   2.1216
  2.1408   2.1415   2.2102   2.2413   2.2469   2.2622   2.3024   2.3167
  2.3492   2.3920   2.4296   2.4316   2.4436   2.4730   2.5019   2.5676
  2.6089   2.6172   2.7151   2.7234   2.7554   2.7776   2.8026   2.8115
  2.8574   2.8855   2.8972   2.9225   2.9403   2.9716   2.9857   3.0000
  3.0082   3.0260   3.0396   3.0442   3.0781   3.0999   3.1308   3.1593
  3.1916   3.1987   3.2042   3.2181   3.2531   3.2648   3.2755   3.2814
  3.2949   3.3128   3.3285   3.3433   3.3628   3.3882   3.4046   3.4187
  3.4291   3.4333   3.4571   3.5126   3.5304   3.5375   3.5445   3.5517
  3.5808   3.5932   3.6016   3.6153   3.6304   3.6602   3.6670   3.6889
  3.7154   3.7305   3.7557   3.7681   3.8409   3.8536   3.8665   3.8753
  3.8927   3.9046   3.9099   4.0032   4.0142   4.0384   4.0517   4.0668
  4.1212   4.1551   4.2100   4.2299   4.2476   4.3209   4.3225   4.3610
  4.3758   4.4338   4.4399   4.4499   4.4794   4.5340   4.5798   4.6157
  4.6598   4.7079   4.7188   4.7314   4.8539   4.8598   4.8935   4.9313
  4.9366   4.9434   4.9854   4.9860   5.0236   5.0470   5.1086   5.1555
  5.2544   5.2575   5.2763   5.2935   5.2977   5.3256   5.3550   5.3743
  5.4071   5.4870   5.5005   5.5706   5.6084   5.6529   5.6648   5.7024
  5.7337   5.7371   5.7882   5.8109   5.8299   5.8800   5.9492   5.9588
  6.0199   6.1055   6.1232   6.1891   6.2728   6.2780   6.3153   6.4091
  6.5123   6.5251   6.5394   6.5467   6.5754   6.6431   6.6797   6.6837
  6.7134   6.8765   6.8837   6.8990   6.9309   7.0078   7.0292   7.0967
  7.1095   7.1604   7.1953   7.2752   7.3140   7.4001   7.4974   7.5934
  7.6631   7.6699  23.1354  23.3859  23.6045  23.9555  44.0627  44.4180
 44.4740  44.6224
 
 Beta MOs
 -- Occupied --
-19.2704 -19.2703 -19.2663 -19.2009 -10.4460 -10.3596 -10.3347 -10.3343
 -1.2964  -1.2216  -1.1782  -1.1699  -0.9058  -0.7980  -0.7245  -0.7030
 -0.6588  -0.6322  -0.6101  -0.5889  -0.5554  -0.5523  -0.5427  -0.5340
 -0.4962  -0.4898  -0.4776  -0.4191  -0.4116  -0.4088
 -- Virtual --
  0.0132   0.0588   0.0602   0.0746   0.0826   0.0853   0.1032   0.1085
  0.1131   0.1161   0.1233   0.1292   0.1502   0.1538   0.1561   0.1612
  0.1682   0.1846   0.1883   0.1964   0.2043   0.2138   0.2213   0.2319
  0.2383   0.2469   0.2557   0.2689   0.2759   0.2838   0.2862   0.2938
  0.3057   0.3138   0.3202   0.3269   0.3317   0.3384   0.3478   0.3527
  0.3535   0.3607   0.3659   0.3719   0.3851   0.3869   0.3955   0.4021
  0.4073   0.4118   0.4168   0.4223   0.4353   0.4409   0.4478   0.4500
  0.4547   0.4595   0.4741   0.4775   0.4816   0.4895   0.4953   0.5061
  0.5192   0.5258   0.5375   0.5429   0.5505   0.5572   0.5710   0.5735
  0.5835   0.5884   0.6020   0.6059   0.6262   0.6298   0.6433   0.6455
  0.6537   0.6633   0.6768   0.6841   0.6937   0.7027   0.7048   0.7190
  0.7264   0.7335   0.7403   0.7494   0.7554   0.7596   0.7651   0.7842
  0.7869   0.8005   0.8112   0.8197   0.8221   0.8374   0.8505   0.8588
  0.8734   0.8858   0.9011   0.9105   0.9208   0.9382   0.9499   0.9606
  0.9663   0.9809   0.9973   1.0005   1.0171   1.0308   1.0375   1.0791
  1.0936   1.1000   1.1216   1.1263   1.1372   1.1519   1.1959   1.2057
  1.2103   1.2235   1.2286   1.2375   1.2515   1.2649   1.2879   1.3031
  1.3084   1.3213   1.3497   1.3571   1.3667   1.3802   1.3877   1.4092
  1.4269   1.4412   1.4528   1.4846   1.4944   1.5063   1.5383   1.5564
  1.6003   1.6217   1.6359   1.6419   1.6583   1.7138   1.7263   1.7482
  1.7603   1.7845   1.8156   1.8565   1.8838   1.9106   1.9150   1.9249
  1.9413   1.9668   1.9876   1.9955   2.0066   2.0783   2.0977   2.1071
  2.1245   2.1431   2.1472   2.2112   2.2465   2.2491   2.2674   2.3028
  2.3178   2.3494   2.3921   2.4299   2.4326   2.4505   2.4742   2.5026
  2.5680   2.6096   2.6175   2.7156   2.7237   2.7587   2.7932   2.8091
  2.8277   2.8743   2.8944   2.9006   2.9325   2.9417   2.9730   2.9924
  3.0041   3.0166   3.0297   3.0408   3.0467   3.0921   3.1106   3.1403
  3.1638   3.1974   3.2078   3.2089   3.2197   3.2587   3.2675   3.2900
  3.2984   3.3028   3.3162   3.3357   3.3468   3.3636   3.3944   3.4076
  3.4212   3.4342   3.4430   3.4602   3.5191   3.5340   3.5400   3.5510
  3.5569   3.5843   3.5961   3.6070   3.6277   3.6331   3.6623   3.6691
  3.6898   3.7157   3.7339   3.7622   3.7806   3.8421   3.8572   3.8720
  3.8797   3.8932   3.9071   3.9112   4.0035   4.0144   4.0387   4.0523
  4.0904   4.1217   4.1782   4.2104   4.2300   4.2476   4.3218   4.3234
  4.3758   4.3811   4.4339   4.4400   4.4500   4.4803   4.5434   4.5799
  4.6158   4.6599   4.7158   4.7270   4.7317   4.8569   4.8771   4.8956
  4.9319   4.9425   4.9595   4.9855   4.9873   5.0237   5.0472   5.1086
  5.1555   5.2708   5.2725   5.2793   5.2942   5.3139   5.3264   5.3552
  5.3744   5.4071   5.4872   5.5006   5.5706   5.6085   5.6530   5.6649
  5.7171   5.7339   5.7372   5.7886   5.8257   5.8300   5.8802   5.9493
  5.9589   6.0201   6.1057   6.1233   6.1893   6.2781   6.2806   6.3154
  6.4092   6.5129   6.5407   6.5562   6.5704   6.5920   6.6443   6.6824
  6.7020   6.7142   6.8790   6.8840   6.9030   6.9315   7.0281   7.0305
  7.0972   7.1099   7.1608   7.1956   7.2865   7.3141   7.4002   7.4975
  7.5934   7.6632   7.6699  23.1457  23.3860  23.6045  23.9555  44.0716
 44.4181  44.4741  44.6226
 --------------------------------------------------------------
 
          Ground-State Mulliken Net Atomic Charges

     Atom                 Charge (a.u.)    Spin (a.u.)
  --------------------------------------------------------
      1 O                    -0.267179       0.005197
      2 C                     0.413101      -0.006904
      3 C                     0.158782       0.011544
      4 O                    -0.469322       0.004044
      5 O                    -0.262718       0.009885
      6 C                     0.128831      -0.003805
      7 H                     0.056884      -0.003982
      8 H                     0.077508       0.000454
      9 H                     0.070336      -0.000076
     10 H                     0.074560       0.000449
     11 C                     0.220289       0.572452
     12 O                    -0.279662       0.267174
     13 H                     0.078590       0.143567
  --------------------------------------------------------
  Sum of atomic charges =    -0.000000
  Sum of spin   charges =     1.000000

         Merz-Kollman RESP Net Atomic Charges

     Atom                 Charge (a.u.)
  ----------------------------------------
      1 O                    -0.401419
      2 C                     0.939128
      3 C                    -0.030956
      4 O                    -0.636770
      5 O                    -0.455946
      6 C                     0.014819
      7 H                     0.094042
      8 H                     0.158192
      9 H                     0.133041
     10 H                     0.133041
     11 C                     0.129120
     12 O                    -0.258575
     13 H                     0.182282
  ----------------------------------------
  Sum of atomic charges =     0.000000

  Related Dipole Moment =     6.4188 (X -5.8789 Y  2.5260 Z -0.5094)

 -----------------------------------------------------------------
                    Cartesian Multipole Moments
 -----------------------------------------------------------------
    Charge (ESU x 10^10)
                -0.0000
    Dipole Moment (Debye)
         X      -5.8277      Y       2.5057      Z      -0.5686
       Tot       6.3690
    Quadrupole Moments (Debye-Ang)
        XX     -19.3912     XY      20.2594     YY     -65.9821
        XZ      -4.2237     YZ      -2.5371     ZZ     -50.0579
    Octopole Moments (Debye-Ang^2)
       XXX     126.0381    XXY      60.7400    XYY       2.3460
       YYY     587.3360    XXZ      -3.1142    XYZ      13.2147
       YYZ      -2.3188    XZZ      74.6084    YZZ     166.8411
       ZZZ     -49.7322
    Hexadecapole Moments (Debye-Ang^3)
      XXXX    -921.0301   XXXY    -496.3606   XXYY    -468.7754
      XYYY    -591.0445   YYYY   -4272.7627   XXXZ      10.7483
      XXYZ     -13.9790   XYYZ     -22.8856   YYYZ      52.8047
      XXZZ    -245.2400   XYZZ    -289.3069   YYZZ    -694.8960
      XZZZ      40.0230   YZZZ      97.1676   ZZZZ    -285.0894
 -----------------------------------------------------------------
Archival summary:
1\1\n0081.lr6\OPT\ProcedureUnspecified\BasisUnspecified\445(2)\ewcspott\ThuNov1212:12:172020ThuNov1212:12:172020\0\\#,OPT,ProcedureUnspecified,BasisUnspecified,\\0,2\O\C,1,1.34081\O,2,1.19948,1,124.257\O,2,1.34027,1,111.51,3,179.299,0\C,1,1.44308,2,109.123,3,171.309,0\H,5,1.08832,1,108.629,2,139.512,0\H,5,1.09156,1,108.334,2,-100.523,0\C,4,1.44372,2,109.319,1,-5.4318,0\H,8,1.08844,4,108.652,2,137.25,0\H,8,1.09148,4,108.283,2,-102.868,0\C,2,3.04565,1,88.5566,3,-89.0387,0\H,11,1.11969,2,96.2047,1,172.278,0\O,11,1.17557,2,124.288,1,30.9836,0\\\@

 Total job time:  16870.79s(wall), 415723.70s(cpu) 
 Thu Nov 12 12:12:17 2020

        *************************************************************
        *                                                           *
        *  Thank you very much for using Q-Chem.  Have a nice day.  *
        *                                                           *
        *************************************************************


