
Running Job 1 of 1 mol.qin
qchem mol.qin_109247.0 /tmp/scratch/ 0
/clusterfs/mp/software/qchem/exe/qcprog.exe_s mol.qin_109247.0 /tmp/scratch/
                  Welcome to Q-Chem
     A Quantum Leap Into The Future Of Chemistry


 Q-Chem 5.2, Q-Chem, Inc., Pleasanton, CA (2019)

 Yihan Shao,  Zhengting Gan,  E. Epifanovsky,  A. T. B. Gilbert,  M. Wormit,  
 J. Kussmann,  A. W. Lange,  A. Behn,  Jia Deng,  Xintian Feng,  D. Ghosh,  
 M. Goldey,  P. R. Horn,  L. D. Jacobson,  I. Kaliman,  T. Kus,  A. Landau,  
 Jie Liu,  E. I. Proynov,  R. M. Richard,  R. P. Steele,  E. J. Sundstrom,  
 H. L. Woodcock III,  P. M. Zimmerman,  D. Zuev,  B. Alam,  B. Albrecht,  
 E. Alguire,  S. A. Baeppler,  D. Barton,  Z. Benda,  Y. A. Bernard,  
 E. J. Berquist,  K. B. Bravaya,  H. Burton,  K. Carter-Fenk,  D. Casanova,  
 Chun-Min Chang,  Yunqing Chen,  A. Chien,  K. D. Closser,  M. P. Coons,  
 S. Coriani,  S. Dasgupta,  A. L. Dempwolff,  M. Diedenhofen,  Hainam Do,  
 R. G. Edgar,  Po-Tung Fang,  S. Faraji,  S. Fatehi,  Qingguo Feng,  
 J. Fosso-Tande,  J. Gayvert,  Qinghui Ge,  A. Ghysels,  G. Gidofalvi,  
 J. Gomes,  J. Gonthier,  A. Gunina,  D. Hait,  M. W. D. Hanson-Heine,  
 P. H. P. Harbach,  A. W. Hauser,  M. F. Herbst,  J. E. Herr,  
 E. G. Hohenstein,  Z. C. Holden,  Kerwin Hui,  B. C. Huynh,  T.-C. Jagau,  
 Hyunjun Ji,  B. Kaduk,  K. Khistyaev,  Jaehoon Kim,  P. Klunzinger,  K. Koh,  
 D. Kosenkov,  L. Koulias,  T. Kowalczyk,  C. M. Krauter,  A. Kunitsa,  
 Ka Un Lao,  A. Laurent,  K. V. Lawler,  Joonho Lee,  D. Lefrancois,  
 S. Lehtola,  D. S. Levine,  Yi-Pei Li,  You-Sheng Lin,  Fenglai Liu,  
 Kuan-Yu Liu,  E. Livshits,  M. Loipersberger,  A. Luenser,  P. Manohar,  
 E. Mansoor,  S. F. Manzer,  Shan-Ping Mao,  Yuezhi Mao,  N. Mardirossian,  
 A. V. Marenich,  T. Markovich,  L. A. Martinez-Martinez,  S. A. Maurer,  
 N. J. Mayhall,  S. C. McKenzie,  J.-M. Mewes,  P. Morgante,  A. F. Morrison,  
 J. W. Mullinax,  K. Nanda,  T. S. Nguyen-Beck,  R. Olivares-Amaya,  
 J. A. Parkhill,  S. K. Paul,  Zheng Pei,  T. M. Perrine,  F. Plasser,  
 P. Pokhilko,  S. Prager,  A. Prociuk,  E. Ramos,  B. Rana,  D. R. Rehn,  
 F. Rob,  M. Scheurer,  M. Schneider,  N. Sergueev,  S. M. Sharada,  
 S. Sharma,  D. W. Small,  T. Stauch,  C. J. Stein,  T. Stein,  Yu-Chuan Su,  
 S. P. Veccham,  A. J. W. Thom,  A. Tkatchenko,  T. Tsuchimochi,  
 N. M. Tubman,  L. Vogt,  M. L. Vidal,  O. Vydrov,  M. A. Watson,  J. Wenzel,  
 M. de Wergifosse,  T. A. Wesolowski,  A. White,  J. Witte,  A. Yamada,  
 Jun Yang,  K. Yao,  S. Yeganeh,  S. R. Yost,  Zhi-Qiang You,  A. Zech,  
 Igor Ying Zhang,  Xing Zhang,  Yan Zhao,  Ying Zhu,  B. R. Brooks,  
 G. K. L. Chan,  C. J. Cramer,  M. S. Gordon,  W. J. Hehre,  A. Klamt,  
 M. W. Schmidt,  C. D. Sherrill,  D. G. Truhlar,  A. Aspuru-Guzik,  R. Baer,  
 A. T. Bell,  N. A. Besley,  Jeng-Da Chai,  A. E. DePrince, III,  
 R. A. DiStasio Jr.,  A. Dreuw,  B. D. Dunietz,  T. R. Furlani,  
 Chao-Ping Hsu,  Yousung Jung,  Jing Kong,  D. S. Lambrecht,  WanZhen Liang,  
 C. Ochsenfeld,  V. A. Rassolov,  L. V. Slipchenko,  J. E. Subotnik,  
 T. Van Voorhis,  J. M. Herbert,  A. I. Krylov,  P. M. W. Gill,  M. Head-Gordon

 Contributors to earlier versions of Q-Chem not listed above: 
 R. D. Adamson,  B. Austin,  J. Baker,  G. J. O. Beran,  K. Brandhorst,  
 S. T. Brown,  E. F. C. Byrd,  A. K. Chakraborty,  C.-L. Cheng,  
 Siu Hung Chien,  D. M. Chipman,  D. L. Crittenden,  H. Dachsel,  
 R. J. Doerksen,  A. D. Dutoi,  L. Fusti-Molnar,  W. A. Goddard III,  
 A. Golubeva-Zadorozhnaya,  S. R. Gwaltney,  G. Hawkins,  A. Heyden,  
 S. Hirata,  G. Kedziora,  F. J. Keil,  C. Kelley,  Jihan Kim,  R. A. King,  
 R. Z. Khaliullin,  P. P. Korambath,  W. Kurlancheek,  A. M. Lee,  M. S. Lee,  
 S. V. Levchenko,  Ching Yeh Lin,  D. Liotard,  R. C. Lochan,  I. Lotan,  
 P. E. Maslen,  N. Nair,  D. P. O'Neill,  D. Neuhauser,  E. Neuscamman,  
 C. M. Oana,  R. Olson,  B. Peters,  R. Peverati,  P. A. Pieniazek,  
 Y. M. Rhee,  J. Ritchie,  M. A. Rohrdanz,  E. Rosta,  N. J. Russ,  
 H. F. Schaefer III,  N. E. Schultz,  N. Shenvi,  A. C. Simmonett,  A. Sodt,  
 D. Stuck,  K. S. Thanthiriwatte,  V. Vanovschi,  Tao Wang,  A. Warshel,  
 C. F. Williams,  Q. Wu,  X. Xu,  W. Zhang

 Please cite Q-Chem as follows:
 Y. Shao et al., Mol. Phys. 113, 184-215 (2015)
 DOI: 10.1080/00268976.2014.952696

 Q-Chem 5.2.2 for Intel X86 EM64T Linux

 Parts of Q-Chem use Armadillo 8.300.2 (Tropical Shenanigans).
 http://arma.sourceforge.net/

 Q-Chem begins on Thu Nov 12 12:12:23 2020  

Host: 
0

     Scratch files written to /tmp/scratch//
 Nov2519 |scratch|qcdevops|jenkins|workspace|build_RNUM 6829   
Processing $rem in /clusterfs/mp/software/qchem/config/preferences:
	 MEM_TOTAL  96000 
NAlpha2: 62
NElect   61
Mult     2
Symmetry turned off for PCM/SM12/SMD calculation

Checking the input file for inconsistencies... 	...done.

--------------------------------------------------------------
User input:
--------------------------------------------------------------
$molecule
0 2
O     -1.9995034827     -4.3066815566      1.2149558113
C     -1.4689382355     -4.3670984148     -0.0149256852
C     -3.2221965281     -3.5418068806      1.1653146181
O     -0.3800508564     -4.8066033736     -0.2596803588
O     -2.3139473256     -3.8886428533     -0.9387014583
C     -3.5786508593     -3.5796102918     -0.3147270525
H     -3.0108960571     -2.5329133883      1.5244588294
H     -3.9604866911     -4.0247448626      1.8025973929
H     -3.9330918474     -2.6254362993     -0.7002520427
H     -4.2850668945     -4.3744923988     -0.5606065435
C     -0.2528925470     -1.6151044464      0.4581211522
O      0.0845957341     -1.2120517346      1.5096060147
H      0.3661055906     -1.5943534992     -0.4746806779
$end

$rem
job_type = freq
basis = def2-tzvppd
max_scf_cycles = 100
gen_scfman = true
xc_grid = 3
scf_algorithm = diis
resp_charges = true
symmetry = false
sym_ignore = true
method = wb97xv
geom_opt_max_cycles = 200
solvent_method = smd
ideriv = 1
thresh = 14
s2thresh = 16
$end

$smx
solvent other
$end
--------------------------------------------------------------
 ----------------------------------------------------------------
             Standard Nuclear Orientation (Angstroms)
    I     Atom           X                Y                Z
 ----------------------------------------------------------------
    1      O      -1.9995034827    -4.3066815566     1.2149558113
    2      C      -1.4689382355    -4.3670984148    -0.0149256852
    3      C      -3.2221965281    -3.5418068806     1.1653146181
    4      O      -0.3800508564    -4.8066033736    -0.2596803588
    5      O      -2.3139473256    -3.8886428533    -0.9387014583
    6      C      -3.5786508593    -3.5796102918    -0.3147270525
    7      H      -3.0108960571    -2.5329133883     1.5244588294
    8      H      -3.9604866911    -4.0247448626     1.8025973929
    9      H      -3.9330918474    -2.6254362993    -0.7002520427
   10      H      -4.2850668945    -4.3744923988    -0.5606065435
   11      C      -0.2528925470    -1.6151044464     0.4581211522
   12      O       0.0845957341    -1.2120517346     1.5096060147
   13      H       0.3661055906    -1.5943534992    -0.4746806779
 ----------------------------------------------------------------
 Nuclear Repulsion Energy =         369.41656165 hartrees
 There are       31 alpha and       30 beta electrons
 Requested basis set is def2-TZVPPD
 There are 143 shells and 393 basis functions

 Total QAlloc Memory Limit  96000 MB
 Mega-Array Size       188 MB
 MEM_STATIC part       192 MB
 
 Citation of the SMD model:
 Marenich, A.V.; Cramer, C.J.; Truhlar, D.G.
 J. Phys. Chem. B 2009, 113, 6378-6396.
 iSolventCode=           0
 Solvent: other                                                           
 
 vradii
            1           2           3           4           5           6
    1   2.2940000   1.8500000   1.8500000   2.2940000   2.2940000   1.8500000
            7           8           9          10          11          12
    1   1.2000000   1.2000000   1.2000000   1.2000000   1.8500000   2.2940000
           13
    1   1.2000000
 Changing PCM_VDW_RADII to SMD_RADIUS
 Discretize the solute cavity surface with Lebedev spheres
	Using 110 Lebedev grid points for each H atom
	Using 194 Lebedev grid points for other atoms
	Atomic van der Waals radii will be scaled by 1.20
 Remove points where switching function is < 1.0e-08
 Keep 940 surface tesserae and discard 1162 interior tesserae
 Molecular Surface Area = 183.243 Angst**2

                       Distance Matrix (Angstroms)
             O (  1)   C (  2)   C (  3)   O (  4)   O (  5)   C (  6)
   C (  2)  1.340805
   C (  3)  1.443079  2.268918
   O (  4)  2.246575  1.199477  3.421712
   O (  5)  2.216274  1.340269  2.317778  2.245813
   C (  6)  2.315657  2.271763  1.522830  3.426308  1.443717
   H (  7)  2.065178  2.848082  1.091558  3.908218  2.896705  2.191010
   H (  8)  2.066462  3.102968  1.088316  4.205213  3.200677  2.197045
   H (  9)  3.198964  3.094368  2.196690  4.192337  2.067408  1.088442
   H ( 10)  2.894999  2.868519  2.191315  3.940359  2.065022  1.091475
   C ( 11)  3.296670  3.045654  3.609580  3.273694  3.371652  3.939194
   O ( 12)  3.742596  3.833012  4.059701  4.033246  4.348719  4.727885
   H ( 13)  3.975890  3.356617  4.399781  3.304773  3.558337  4.419042
             H (  7)   H (  8)   H (  9)   H ( 10)   C ( 11)   O ( 12)
   H (  8)  1.790152
   H (  9)  2.410051  2.867590
   H ( 10)  3.059808  2.410894  1.789577
   C ( 11)  3.096132  4.621714  3.988291  4.991038
   O ( 12)  3.365556  4.935563  4.798223  5.777609  1.175572
   H ( 13)  4.035046  5.460055  4.426863  5.419406  1.119691  2.040293

 
 A cutoff of  1.0D-14 yielded   9635 shell pairs
 There are     73445 function pairs (     94472 Cartesian)
 Smallest overlap matrix eigenvalue = 8.03E-06
 Guess from superposition of atomic densities
 Warning:  Energy on first SCF cycle will be non-variational
 SAD guess density has 61.000000 electrons

 -----------------------------------------------------------------------
  General SCF calculation program by
  Eric Jon Sundstrom, Paul Horn, Yuezhi Mao, Dmitri Zuev, Alec White,
  David Stuck, Shaama M.S., Shane Yost, Joonho Lee, David Small,
  Daniel Levine, Susi Lehtola, Hugh Burton, Evgeny Epifanovsky,
  Bang C. Huynh
 -----------------------------------------------------------------------
 Exchange:     0.1670 Hartree-Fock + 1.0000 wB97X-V + LR-HF
 Correlation:  1.0000 wB97X-V
 Using SG-3 standard quadrature grid
 Nonlocal Correlation:  VV10 with C = 0.0100 and b = 6.00 and scale = 1.00000
 Grid used for NLC:  SG-1 standard quadrature
 
 Citation of the SMD model:
 Marenich, A.V.; Cramer, C.J.; Truhlar, D.G.
 J. Phys. Chem. B 2009, 113, 6378-6396.
 iSolventCode=           0
 Solvent: other                                                           
 
 vradii
            1           2           3           4           5           6
    1   2.2940000   1.8500000   1.8500000   2.2940000   2.2940000   1.8500000
            7           8           9          10          11          12
    1   1.2000000   1.2000000   1.2000000   1.2000000   1.8500000   2.2940000
           13
    1   1.2000000
 using 40 threads for integral computing
 -------------------------------------------------------
 OpenMP Integral computing Module                
 Release: version 1.0, May 2013, Q-Chem Inc. Pittsburgh 
 -------------------------------------------------------
 using 40 threads for integral computing
 -------------------------------------------------------
 OpenMP Integral computing Module                
 Release: version 1.0, May 2013, Q-Chem Inc. Pittsburgh 
 -------------------------------------------------------
 -------------------------------------------------------
 OpenMP BLAS3 based DFT computing Module                
 Release: version 1.0, May 2013, Q-Chem Inc. Pittsburgh 
 -------------------------------------------------------
 -------------------------------------------------------
 OpenMP BLAS3 based DFT computing Module                
 Release: version 1.0, May 2013, Q-Chem Inc. Pittsburgh 
 -------------------------------------------------------
 -------------------------------------------------------
 OpenMP BLAS3 based DFT computing Module                
 Release: version 1.0, May 2013, Q-Chem Inc. Pittsburgh 
 -------------------------------------------------------
 A unrestricted SCF calculation will be
 performed using DIIS
 SCF converges when DIIS error is below 1.0e-08
 ---------------------------------------
  Cycle       Energy         DIIS error
 ---------------------------------------
    1    -457.9551217642      1.19e-02  
    2    -456.1390957285      1.75e-03  
    3    -456.0741005116      2.22e-03  
    4    -456.3198753975      1.95e-04  
    5    -456.3214352572      1.17e-04  
    6    -456.3222028050      1.80e-05  
    7    -456.3222423749      7.08e-06  
    8    -456.3222480312      4.56e-06  
    9    -456.3222506111      1.35e-06  
   10    -456.3222512471      7.55e-07  
   11    -456.3222515602      4.37e-07  
   12    -456.3222517316      2.37e-07  
   13    -456.3222517889      1.24e-07  
   14    -456.3222518036      6.15e-08  
   15    -456.3222518069      2.81e-08  
   16    -456.3222518076      1.45e-08  
   17    -456.3222518077      8.97e-09  Convergence criterion met
 ---------------------------------------
 SCF time:   CPU 3508.45s  wall 140.00s 
<S^2> =          0.753366475
(3)  G-ENP(liq) elect-nuc-pol free energy of system     -456.322251808 a.u.
(4)  G-CDS(liq) cavity-dispersion-solvent structure 
     free energy                                               -3.2530 kcal/mol
(6)  G-S(liq) free energy of system                     -456.327435786 a.u.
 SCF   energy in the final basis set =     -456.3222518077
 Total energy in the final basis set =     -456.3274357855
 
 --------------------------------------------------------------
 
                    Orbital Energies (a.u.)
 --------------------------------------------------------------
 
 Alpha MOs
 -- Occupied --
-19.2737 -19.2705 -19.2703 -19.2009 -10.4460 -10.3674 -10.3347 -10.3343
 -1.2966  -1.2379  -1.1784  -1.1700  -0.9059  -0.7981  -0.7336  -0.7244
 -0.6598  -0.6323  -0.6146  -0.6102  -0.5584  -0.5551  -0.5491  -0.5434
 -0.5391  -0.4902  -0.4776  -0.4195  -0.4121  -0.4090  -0.3140
 -- Virtual --
  0.0479   0.0582   0.0740   0.0813   0.0830   0.1025   0.1075   0.1114
  0.1151   0.1218   0.1283   0.1488   0.1528   0.1556   0.1595   0.1675
  0.1838   0.1857   0.1944   0.2025   0.2124   0.2211   0.2306   0.2348
  0.2447   0.2546   0.2678   0.2737   0.2832   0.2856   0.2931   0.3037
  0.3132   0.3194   0.3251   0.3313   0.3352   0.3458   0.3500   0.3525
  0.3597   0.3644   0.3701   0.3834   0.3859   0.3949   0.4007   0.4035
  0.4108   0.4155   0.4214   0.4347   0.4392   0.4475   0.4493   0.4537
  0.4568   0.4734   0.4774   0.4802   0.4875   0.4937   0.5055   0.5188
  0.5214   0.5352   0.5406   0.5501   0.5560   0.5705   0.5729   0.5825
  0.5877   0.6017   0.6056   0.6253   0.6294   0.6422   0.6442   0.6523
  0.6628   0.6752   0.6831   0.6930   0.7003   0.7042   0.7176   0.7255
  0.7293   0.7383   0.7474   0.7534   0.7589   0.7637   0.7812   0.7855
  0.7993   0.8082   0.8148   0.8212   0.8336   0.8498   0.8559   0.8723
  0.8848   0.9005   0.9087   0.9198   0.9364   0.9454   0.9584   0.9654
  0.9761   0.9956   0.9991   1.0131   1.0282   1.0366   1.0759   1.0902
  1.0993   1.1179   1.1253   1.1359   1.1483   1.1906   1.2045   1.2077
  1.2226   1.2255   1.2356   1.2503   1.2643   1.2850   1.3002   1.3064
  1.3201   1.3481   1.3559   1.3640   1.3785   1.3863   1.4075   1.4244
  1.4381   1.4523   1.4844   1.4919   1.5058   1.5364   1.5509   1.5986
  1.6172   1.6348   1.6404   1.6575   1.7131   1.7249   1.7473   1.7598
  1.7743   1.8100   1.8504   1.8806   1.9077   1.9101   1.9188   1.9370
  1.9641   1.9866   1.9947   2.0036   2.0685   2.0912   2.1036   2.1216
  2.1408   2.1415   2.2102   2.2413   2.2469   2.2622   2.3024   2.3167
  2.3492   2.3920   2.4296   2.4316   2.4436   2.4730   2.5019   2.5676
  2.6089   2.6172   2.7151   2.7234   2.7554   2.7776   2.8026   2.8115
  2.8574   2.8855   2.8972   2.9225   2.9403   2.9716   2.9857   3.0000
  3.0082   3.0260   3.0396   3.0442   3.0781   3.0999   3.1308   3.1593
  3.1916   3.1987   3.2042   3.2181   3.2531   3.2648   3.2755   3.2814
  3.2949   3.3128   3.3285   3.3433   3.3628   3.3882   3.4046   3.4187
  3.4291   3.4333   3.4571   3.5126   3.5304   3.5375   3.5445   3.5517
  3.5808   3.5932   3.6016   3.6153   3.6304   3.6602   3.6670   3.6889
  3.7154   3.7305   3.7557   3.7681   3.8409   3.8536   3.8665   3.8753
  3.8927   3.9046   3.9099   4.0032   4.0142   4.0384   4.0517   4.0668
  4.1212   4.1551   4.2100   4.2299   4.2476   4.3209   4.3225   4.3610
  4.3758   4.4338   4.4399   4.4499   4.4794   4.5340   4.5798   4.6157
  4.6598   4.7079   4.7188   4.7314   4.8539   4.8598   4.8935   4.9313
  4.9366   4.9434   4.9854   4.9860   5.0236   5.0470   5.1086   5.1555
  5.2544   5.2575   5.2763   5.2935   5.2977   5.3256   5.3550   5.3743
  5.4071   5.4870   5.5005   5.5706   5.6084   5.6529   5.6648   5.7024
  5.7337   5.7371   5.7882   5.8109   5.8299   5.8800   5.9492   5.9588
  6.0199   6.1055   6.1232   6.1891   6.2728   6.2780   6.3153   6.4091
  6.5123   6.5251   6.5394   6.5467   6.5754   6.6431   6.6797   6.6837
  6.7134   6.8765   6.8837   6.8990   6.9309   7.0078   7.0292   7.0967
  7.1095   7.1604   7.1953   7.2752   7.3140   7.4001   7.4974   7.5934
  7.6631   7.6699  23.1354  23.3859  23.6045  23.9555  44.0627  44.4180
 44.4740  44.6224
 
 Beta MOs
 -- Occupied --
-19.2704 -19.2703 -19.2663 -19.2009 -10.4460 -10.3596 -10.3347 -10.3343
 -1.2964  -1.2216  -1.1782  -1.1699  -0.9058  -0.7980  -0.7245  -0.7030
 -0.6588  -0.6322  -0.6101  -0.5889  -0.5554  -0.5523  -0.5427  -0.5340
 -0.4962  -0.4898  -0.4776  -0.4191  -0.4116  -0.4088
 -- Virtual --
  0.0132   0.0588   0.0602   0.0746   0.0826   0.0853   0.1032   0.1085
  0.1131   0.1161   0.1233   0.1292   0.1502   0.1538   0.1561   0.1612
  0.1682   0.1846   0.1883   0.1964   0.2043   0.2138   0.2213   0.2319
  0.2383   0.2469   0.2557   0.2689   0.2759   0.2838   0.2862   0.2938
  0.3057   0.3138   0.3202   0.3269   0.3317   0.3384   0.3478   0.3527
  0.3535   0.3607   0.3659   0.3719   0.3851   0.3869   0.3955   0.4021
  0.4073   0.4118   0.4168   0.4223   0.4353   0.4409   0.4478   0.4500
  0.4547   0.4595   0.4741   0.4775   0.4816   0.4895   0.4953   0.5061
  0.5192   0.5258   0.5375   0.5429   0.5505   0.5572   0.5710   0.5735
  0.5835   0.5884   0.6020   0.6059   0.6262   0.6298   0.6433   0.6455
  0.6537   0.6633   0.6768   0.6841   0.6937   0.7027   0.7048   0.7190
  0.7264   0.7335   0.7403   0.7494   0.7554   0.7596   0.7651   0.7842
  0.7869   0.8005   0.8112   0.8197   0.8221   0.8374   0.8505   0.8588
  0.8734   0.8858   0.9011   0.9105   0.9208   0.9382   0.9499   0.9606
  0.9663   0.9809   0.9973   1.0005   1.0171   1.0308   1.0375   1.0791
  1.0936   1.1000   1.1216   1.1263   1.1372   1.1519   1.1959   1.2057
  1.2103   1.2235   1.2286   1.2375   1.2515   1.2649   1.2879   1.3031
  1.3084   1.3213   1.3497   1.3571   1.3667   1.3802   1.3877   1.4092
  1.4269   1.4412   1.4528   1.4846   1.4944   1.5063   1.5383   1.5564
  1.6003   1.6217   1.6359   1.6419   1.6583   1.7138   1.7263   1.7482
  1.7603   1.7845   1.8156   1.8565   1.8838   1.9106   1.9150   1.9249
  1.9413   1.9668   1.9876   1.9955   2.0066   2.0783   2.0977   2.1071
  2.1245   2.1431   2.1472   2.2112   2.2465   2.2491   2.2674   2.3028
  2.3178   2.3494   2.3921   2.4299   2.4326   2.4505   2.4742   2.5026
  2.5680   2.6096   2.6175   2.7156   2.7237   2.7587   2.7932   2.8091
  2.8277   2.8743   2.8944   2.9006   2.9325   2.9417   2.9730   2.9924
  3.0041   3.0166   3.0297   3.0408   3.0467   3.0921   3.1106   3.1403
  3.1638   3.1974   3.2078   3.2089   3.2197   3.2587   3.2675   3.2900
  3.2984   3.3028   3.3162   3.3357   3.3468   3.3636   3.3944   3.4076
  3.4212   3.4342   3.4430   3.4602   3.5191   3.5340   3.5400   3.5510
  3.5569   3.5843   3.5961   3.6070   3.6277   3.6331   3.6623   3.6691
  3.6898   3.7157   3.7339   3.7622   3.7806   3.8421   3.8572   3.8720
  3.8797   3.8932   3.9071   3.9112   4.0035   4.0144   4.0387   4.0523
  4.0904   4.1217   4.1782   4.2104   4.2300   4.2476   4.3218   4.3234
  4.3758   4.3811   4.4339   4.4400   4.4500   4.4803   4.5434   4.5799
  4.6158   4.6599   4.7158   4.7270   4.7317   4.8569   4.8771   4.8956
  4.9319   4.9425   4.9595   4.9855   4.9873   5.0237   5.0472   5.1086
  5.1555   5.2708   5.2725   5.2793   5.2942   5.3139   5.3264   5.3552
  5.3744   5.4071   5.4872   5.5006   5.5706   5.6085   5.6530   5.6649
  5.7171   5.7339   5.7372   5.7886   5.8257   5.8300   5.8802   5.9493
  5.9589   6.0201   6.1057   6.1233   6.1893   6.2781   6.2806   6.3154
  6.4092   6.5129   6.5407   6.5562   6.5704   6.5920   6.6443   6.6824
  6.7020   6.7142   6.8790   6.8840   6.9030   6.9315   7.0281   7.0305
  7.0972   7.1099   7.1608   7.1956   7.2865   7.3141   7.4002   7.4975
  7.5934   7.6632   7.6699  23.1457  23.3860  23.6045  23.9555  44.0716
 44.4181  44.4741  44.6226
 --------------------------------------------------------------
 
          Ground-State Mulliken Net Atomic Charges

     Atom                 Charge (a.u.)    Spin (a.u.)
  --------------------------------------------------------
      1 O                    -0.267178       0.005197
      2 C                     0.413101      -0.006903
      3 C                     0.158782       0.011544
      4 O                    -0.469322       0.004044
      5 O                    -0.262719       0.009885
      6 C                     0.128831      -0.003805
      7 H                     0.056884      -0.003982
      8 H                     0.077508       0.000454
      9 H                     0.070336      -0.000076
     10 H                     0.074560       0.000449
     11 C                     0.220290       0.572455
     12 O                    -0.279662       0.267169
     13 H                     0.078589       0.143568
  --------------------------------------------------------
  Sum of atomic charges =     0.000000
  Sum of spin   charges =     1.000000

  Building new vdw surfaces
         Merz-Kollman RESP Net Atomic Charges

     Atom                 Charge (a.u.)
  ----------------------------------------
      1 O                    -0.401420
      2 C                     0.939129
      3 C                    -0.030955
      4 O                    -0.636771
      5 O                    -0.455946
      6 C                     0.014820
      7 H                     0.094041
      8 H                     0.158192
      9 H                     0.133041
     10 H                     0.133041
     11 C                     0.129126
     12 O                    -0.258577
     13 H                     0.182279
  ----------------------------------------
  Sum of atomic charges =     0.000000

  Related Dipole Moment =     6.4188 (X -5.8789 Y  2.5260 Z -0.5094)

 -----------------------------------------------------------------
                    Cartesian Multipole Moments
 -----------------------------------------------------------------
    Charge (ESU x 10^10)
                 0.0000
    Dipole Moment (Debye)
         X      -5.8277      Y       2.5057      Z      -0.5686
       Tot       6.3690
    Quadrupole Moments (Debye-Ang)
        XX     -19.3913     XY      20.2594     YY     -65.9821
        XZ      -4.2237     YZ      -2.5371     ZZ     -50.0579
    Octopole Moments (Debye-Ang^2)
       XXX     126.0382    XXY      60.7401    XYY       2.3461
       YYY     587.3362    XXZ      -3.1142    XYZ      13.2147
       YYZ      -2.3188    XZZ      74.6084    YZZ     166.8411
       ZZZ     -49.7322
    Hexadecapole Moments (Debye-Ang^3)
      XXXX    -921.0305   XXXY    -496.3610   XXYY    -468.7756
      XYYY    -591.0448   YYYY   -4272.7635   XXXZ      10.7484
      XXYZ     -13.9790   XYYZ     -22.8856   YYYZ      52.8046
      XXZZ    -245.2400   XYZZ    -289.3069   YYZZ    -694.8960
      XZZZ      40.0231   YZZZ      97.1676   ZZZZ    -285.0895
 -----------------------------------------------------------------
 Calculating analytic gradient of the SCF energy
 Gradient of CDS energy
            1           2           3           4           5           6
    1  -0.0005861   0.0007034  -0.0002465   0.0003163  -0.0007577  -0.0007874
    2   0.0007257  -0.0018935  -0.0000452   0.0003712   0.0005088   0.0001180
    3   0.0003431  -0.0005036   0.0015717   0.0000079   0.0001376  -0.0013592
            7           8           9          10          11          12
    1   0.0001279   0.0001700   0.0002550   0.0002427   0.0007836  -0.0000151
    2  -0.0002639  -0.0000883  -0.0000950   0.0000283   0.0006983   0.0000703
    3  -0.0003012  -0.0002420   0.0001450   0.0001397  -0.0005250   0.0003121
           13
    1  -0.0002060
    2  -0.0001347
    3   0.0002739
 Gradient of SCF Energy
            1           2           3           4           5           6
    1   0.0015714   0.0027244   0.0045044  -0.0019337   0.0004367   0.0137745
    2  -0.0003213  -0.0005811  -0.0061268  -0.0009444  -0.0007334   0.0003207
    3   0.0015632  -0.0010634  -0.0125872   0.0006753  -0.0015459   0.0098547
            7           8           9          10          11          12
    1   0.0008825  -0.0084747  -0.0049705  -0.0091522  -0.0055849   0.0012738
    2   0.0097218  -0.0046636   0.0109643  -0.0085778  -0.0002653   0.0003207
    3   0.0038186   0.0068883  -0.0046939  -0.0028720   0.0026478   0.0036536
           13
    1   0.0049484
    2   0.0008863
    3  -0.0063390
 Max gradient component =       1.377E-02
 RMS gradient           =       5.610E-03
 Computing fast CPCM-SWIG gradient
 Updating gradient with PCM contributions...
 -- total gradient after adding PCM contribution --
---------------------------------------------------
  Atom         X              Y              Z     
---------------------------------------------------
   1       0.000001      -0.000003      -0.000004
   2       0.000000       0.000001      -0.000007
   3       0.000002      -0.000001       0.000003
   4      -0.000003       0.000003      -0.000010
   5      -0.000004       0.000005      -0.000002
   6      -0.000004       0.000002       0.000004
   7       0.000020       0.000006       0.000010
   8       0.000004      -0.000004       0.000002
   9      -0.000002       0.000004       0.000007
  10      -0.000003       0.000004       0.000003
  11       0.000015       0.000002      -0.000009
  12      -0.000021      -0.000017       0.000006
  13      -0.000005      -0.000001      -0.000002
---------------------------------------------------
 Number of fixed atoms: 0
 Gradient time:  CPU 589.63 s  wall 24.98 s
 ######################################################
 ######################################################
 # Starting finite difference calculation for IDERIV  #
 Finite diff step size:  1.88973e-03 a.u.
 ----------------------------------------------------------------
             Standard Nuclear Orientation (Angstroms)
    I     Atom           X                Y                Z
 ----------------------------------------------------------------
    1      O      -1.9985034827    -4.3066815566     1.2149558113
    2      C      -1.4689382355    -4.3670984148    -0.0149256852
    3      C      -3.2221965281    -3.5418068806     1.1653146181
    4      O      -0.3800508564    -4.8066033736    -0.2596803588
    5      O      -2.3139473256    -3.8886428533    -0.9387014583
    6      C      -3.5786508593    -3.5796102918    -0.3147270525
    7      H      -3.0108960571    -2.5329133883     1.5244588294
    8      H      -3.9604866911    -4.0247448626     1.8025973929
    9      H      -3.9330918474    -2.6254362993    -0.7002520427
   10      H      -4.2850668945    -4.3744923988    -0.5606065435
   11      C      -0.2528925470    -1.6151044464     0.4581211522
   12      O       0.0845957341    -1.2120517346     1.5096060147
   13      H       0.3661055906    -1.5943534992    -0.4746806779
 ----------------------------------------------------------------
 Nuclear Repulsion Energy =         369.41311714 hartrees
 There are       31 alpha and       30 beta electrons
 Discretize the solute cavity surface with Lebedev spheres
	Using 110 Lebedev grid points for each H atom
	Using 194 Lebedev grid points for other atoms
	Atomic van der Waals radii will be scaled by 1.20
 Remove points where switching function is < 1.0e-08
 Keep 940 surface tesserae and discard 1162 interior tesserae
 Molecular Surface Area = 183.242 Angst**2

                       Distance Matrix (Angstroms)
             O (  1)   C (  2)   C (  3)   O (  4)   O (  5)   C (  6)
   C (  2)  1.340410
   C (  3)  1.443926  2.268918
   O (  4)  2.245855  1.199477  3.421712
   O (  5)  2.216416  1.340269  2.317778  2.245813
   C (  6)  2.316339  2.271763  1.522830  3.426308  1.443717
   H (  7)  2.065668  2.848082  1.091558  3.908218  2.896705  2.191010
   H (  8)  2.067411  3.102968  1.088316  4.205213  3.200677  2.197045
   H (  9)  3.199569  3.094368  2.196690  4.192337  2.067408  1.088442
   H ( 10)  2.895789  2.868519  2.191315  3.940359  2.065022  1.091475
   C ( 11)  3.296141  3.045654  3.609580  3.273694  3.371652  3.939194
   O ( 12)  3.742039  3.833012  4.059701  4.033246  4.348719  4.727885
   H ( 13)  3.975295  3.356617  4.399781  3.304773  3.558337  4.419042
             H (  7)   H (  8)   H (  9)   H ( 10)   C ( 11)   O ( 12)
   H (  8)  1.790152
   H (  9)  2.410051  2.867590
   H ( 10)  3.059808  2.410894  1.789577
   C ( 11)  3.096132  4.621714  3.988291  4.991038
   O ( 12)  3.365556  4.935563  4.798223  5.777609  1.175572
   H ( 13)  4.035046  5.460055  4.426863  5.419406  1.119691  2.040293

 
 Requested basis set is def2-TZVPPD
 There are 143 shells and 393 basis functions
 A cutoff of  1.0D-14 yielded   9635 shell pairs
 There are     73445 function pairs (     94472 Cartesian)
 Smallest overlap matrix eigenvalue = 8.03E-06
 Guess MOs from SCF MO coefficient file

 -----------------------------------------------------------------------
  General SCF calculation program by
  Eric Jon Sundstrom, Paul Horn, Yuezhi Mao, Dmitri Zuev, Alec White,
  David Stuck, Shaama M.S., Shane Yost, Joonho Lee, David Small,
  Daniel Levine, Susi Lehtola, Hugh Burton, Evgeny Epifanovsky,
  Bang C. Huynh
 -----------------------------------------------------------------------
 Exchange:     0.1670 Hartree-Fock + 1.0000 wB97X-V + LR-HF
 Correlation:  1.0000 wB97X-V
 Using SG-3 standard quadrature grid
 Nonlocal Correlation:  VV10 with C = 0.0100 and b = 6.00 and scale = 1.00000
 Grid used for NLC:  SG-1 standard quadrature
 
 Citation of the SMD model:
 Marenich, A.V.; Cramer, C.J.; Truhlar, D.G.
 J. Phys. Chem. B 2009, 113, 6378-6396.
 iSolventCode=           0
 Solvent: other                                                           
 
 vradii
            1           2           3           4           5           6
    1   2.2940000   1.8500000   1.8500000   2.2940000   2.2940000   1.8500000
            7           8           9          10          11          12
    1   1.2000000   1.2000000   1.2000000   1.2000000   1.8500000   2.2940000
           13
    1   1.2000000
 using 40 threads for integral computing
 -------------------------------------------------------
 OpenMP Integral computing Module                
 Release: version 1.0, May 2013, Q-Chem Inc. Pittsburgh 
 -------------------------------------------------------
 using 40 threads for integral computing
 -------------------------------------------------------
 OpenMP Integral computing Module                
 Release: version 1.0, May 2013, Q-Chem Inc. Pittsburgh 
 -------------------------------------------------------
 -------------------------------------------------------
 OpenMP BLAS3 based DFT computing Module                
 Release: version 1.0, May 2013, Q-Chem Inc. Pittsburgh 
 -------------------------------------------------------
 -------------------------------------------------------
 OpenMP BLAS3 based DFT computing Module                
 Release: version 1.0, May 2013, Q-Chem Inc. Pittsburgh 
 -------------------------------------------------------
 -------------------------------------------------------
 OpenMP BLAS3 based DFT computing Module                
 Release: version 1.0, May 2013, Q-Chem Inc. Pittsburgh 
 -------------------------------------------------------
 A unrestricted SCF calculation will be
 performed using Roothaan-Hall, DIIS
 SCF converges when DIIS error is below 1.0e-08
 ---------------------------------------
  Cycle       Energy         DIIS error
 ---------------------------------------
    1    -456.8278945182      1.30e-04  Roothaan Step
 ---------------------------------------
  Cycle       Energy         DIIS error
 ---------------------------------------
    1    -456.3193350264      1.51e-04  
    2    -456.3210008577      1.52e-04  
    3    -456.3221618815      2.84e-05  
    4    -456.3222309716      1.48e-05  
    5    -456.3222471861      4.71e-06  
    6    -456.3222496351      1.98e-06  
    7    -456.3222499629      7.13e-07  
    8    -456.3222500339      3.30e-07  
    9    -456.3222500509      1.70e-07  
   10    -456.3222500601      7.32e-08  
   11    -456.3222500634      4.35e-08  
   12    -456.3222500649      2.79e-08  
   13    -456.3222500655      1.73e-08  
   14    -456.3222500657      8.15e-09  Convergence criterion met
 ---------------------------------------
 SCF time:   CPU 3158.07s  wall 125.00s 
<S^2> =          0.753366352
(3)  G-ENP(liq) elect-nuc-pol free energy of system     -456.322250066 a.u.
(4)  G-CDS(liq) cavity-dispersion-solvent structure 
     free energy                                               -3.2537 kcal/mol
(6)  G-S(liq) free energy of system                     -456.327435147 a.u.
 SCF   energy in the final basis set =     -456.3222500657
 Total energy in the final basis set =     -456.3274351472
 
 --------------------------------------------------------------
 
                    Orbital Energies (a.u.)
 --------------------------------------------------------------
 
 Alpha MOs
 -- Occupied --
-19.2737 -19.2705 -19.2704 -19.2008 -10.4459 -10.3674 -10.3348 -10.3344
 -1.2966  -1.2379  -1.1784  -1.1699  -0.9059  -0.7981  -0.7336  -0.7243
 -0.6598  -0.6322  -0.6146  -0.6102  -0.5584  -0.5550  -0.5491  -0.5434
 -0.5391  -0.4902  -0.4777  -0.4194  -0.4122  -0.4089  -0.3140
 -- Virtual --
  0.0479   0.0582   0.0740   0.0813   0.0830   0.1025   0.1075   0.1115
  0.1151   0.1218   0.1284   0.1489   0.1528   0.1556   0.1595   0.1675
  0.1838   0.1857   0.1944   0.2025   0.2124   0.2211   0.2305   0.2348
  0.2447   0.2546   0.2678   0.2737   0.2832   0.2856   0.2930   0.3037
  0.3132   0.3194   0.3251   0.3313   0.3352   0.3458   0.3500   0.3525
  0.3597   0.3644   0.3701   0.3834   0.3859   0.3948   0.4007   0.4035
  0.4108   0.4154   0.4214   0.4347   0.4392   0.4475   0.4493   0.4538
  0.4568   0.4734   0.4774   0.4802   0.4875   0.4937   0.5055   0.5189
  0.5214   0.5352   0.5406   0.5501   0.5560   0.5705   0.5729   0.5825
  0.5877   0.6017   0.6056   0.6253   0.6294   0.6422   0.6442   0.6523
  0.6628   0.6752   0.6831   0.6930   0.7003   0.7042   0.7176   0.7255
  0.7293   0.7383   0.7474   0.7535   0.7589   0.7637   0.7812   0.7855
  0.7993   0.8081   0.8148   0.8212   0.8337   0.8498   0.8559   0.8723
  0.8848   0.9005   0.9087   0.9199   0.9364   0.9454   0.9585   0.9654
  0.9761   0.9956   0.9991   1.0132   1.0281   1.0366   1.0759   1.0902
  1.0993   1.1179   1.1253   1.1358   1.1483   1.1906   1.2046   1.2077
  1.2226   1.2256   1.2356   1.2503   1.2643   1.2850   1.3003   1.3064
  1.3200   1.3481   1.3559   1.3641   1.3785   1.3862   1.4076   1.4245
  1.4381   1.4524   1.4843   1.4919   1.5058   1.5363   1.5509   1.5986
  1.6171   1.6349   1.6404   1.6575   1.7130   1.7249   1.7473   1.7598
  1.7743   1.8101   1.8504   1.8806   1.9077   1.9101   1.9188   1.9370
  1.9641   1.9865   1.9947   2.0036   2.0685   2.0912   2.1036   2.1216
  2.1408   2.1415   2.2100   2.2413   2.2468   2.2622   2.3022   2.3166
  2.3493   2.3921   2.4297   2.4315   2.4436   2.4730   2.5020   2.5674
  2.6088   2.6170   2.7153   2.7233   2.7554   2.7776   2.8026   2.8115
  2.8574   2.8854   2.8971   2.9225   2.9401   2.9715   2.9857   3.0000
  3.0082   3.0261   3.0395   3.0441   3.0782   3.0999   3.1308   3.1593
  3.1916   3.1988   3.2042   3.2180   3.2531   3.2648   3.2755   3.2815
  3.2949   3.3128   3.3284   3.3433   3.3629   3.3882   3.4046   3.4187
  3.4290   3.4332   3.4571   3.5126   3.5305   3.5376   3.5446   3.5517
  3.5810   3.5931   3.6016   3.6154   3.6304   3.6600   3.6671   3.6888
  3.7153   3.7305   3.7557   3.7682   3.8409   3.8536   3.8664   3.8753
  3.8925   3.9046   3.9097   4.0031   4.0141   4.0383   4.0516   4.0668
  4.1212   4.1551   4.2100   4.2299   4.2475   4.3207   4.3225   4.3610
  4.3757   4.4338   4.4398   4.4497   4.4793   4.5340   4.5797   4.6156
  4.6598   4.7079   4.7187   4.7314   4.8539   4.8597   4.8934   4.9313
  4.9367   4.9434   4.9851   4.9860   5.0237   5.0468   5.1083   5.1555
  5.2544   5.2575   5.2764   5.2935   5.2977   5.3255   5.3550   5.3744
  5.4070   5.4872   5.5005   5.5706   5.6083   5.6529   5.6647   5.7025
  5.7334   5.7371   5.7882   5.8109   5.8298   5.8798   5.9489   5.9579
  6.0196   6.1054   6.1225   6.1889   6.2728   6.2780   6.3152   6.4092
  6.5124   6.5251   6.5393   6.5465   6.5754   6.6432   6.6797   6.6837
  6.7136   6.8764   6.8838   6.8990   6.9308   7.0078   7.0293   7.0963
  7.1094   7.1604   7.1954   7.2752   7.3140   7.4000   7.4973   7.5936
  7.6636   7.6698  23.1354  23.3857  23.6039  23.9565  44.0627  44.4178
 44.4740  44.6221
 
 Beta MOs
 -- Occupied --
-19.2704 -19.2703 -19.2663 -19.2008 -10.4459 -10.3596 -10.3348 -10.3344
 -1.2964  -1.2216  -1.1782  -1.1698  -0.9058  -0.7980  -0.7244  -0.7030
 -0.6588  -0.6321  -0.6101  -0.5889  -0.5553  -0.5523  -0.5426  -0.5340
 -0.4962  -0.4898  -0.4777  -0.4191  -0.4117  -0.4087
 -- Virtual --
  0.0132   0.0588   0.0602   0.0746   0.0826   0.0853   0.1032   0.1085
  0.1131   0.1161   0.1233   0.1292   0.1502   0.1538   0.1561   0.1612
  0.1682   0.1846   0.1882   0.1964   0.2043   0.2138   0.2213   0.2319
  0.2383   0.2469   0.2557   0.2689   0.2759   0.2838   0.2862   0.2937
  0.3056   0.3137   0.3202   0.3270   0.3317   0.3384   0.3478   0.3527
  0.3535   0.3607   0.3659   0.3719   0.3851   0.3869   0.3955   0.4021
  0.4073   0.4118   0.4167   0.4223   0.4353   0.4410   0.4478   0.4500
  0.4547   0.4595   0.4741   0.4775   0.4816   0.4895   0.4953   0.5061
  0.5193   0.5258   0.5375   0.5429   0.5505   0.5572   0.5710   0.5735
  0.5835   0.5885   0.6020   0.6059   0.6262   0.6297   0.6433   0.6456
  0.6536   0.6633   0.6768   0.6841   0.6937   0.7027   0.7048   0.7190
  0.7264   0.7335   0.7404   0.7494   0.7555   0.7596   0.7651   0.7842
  0.7869   0.8005   0.8112   0.8197   0.8221   0.8374   0.8505   0.8588
  0.8734   0.8858   0.9011   0.9105   0.9208   0.9383   0.9499   0.9606
  0.9663   0.9809   0.9973   1.0005   1.0171   1.0308   1.0375   1.0791
  1.0936   1.1000   1.1215   1.1263   1.1371   1.1518   1.1959   1.2057
  1.2103   1.2235   1.2286   1.2375   1.2515   1.2649   1.2879   1.3031
  1.3084   1.3212   1.3496   1.3571   1.3667   1.3802   1.3877   1.4093
  1.4269   1.4412   1.4529   1.4845   1.4944   1.5063   1.5382   1.5564
  1.6003   1.6217   1.6360   1.6419   1.6583   1.7138   1.7263   1.7481
  1.7603   1.7845   1.8156   1.8565   1.8838   1.9107   1.9150   1.9248
  1.9413   1.9668   1.9876   1.9955   2.0066   2.0783   2.0978   2.1070
  2.1245   2.1431   2.1472   2.2110   2.2465   2.2490   2.2674   2.3026
  2.3178   2.3495   2.3922   2.4299   2.4325   2.4505   2.4742   2.5027
  2.5679   2.6095   2.6173   2.7157   2.7236   2.7587   2.7931   2.8090
  2.8277   2.8742   2.8944   2.9005   2.9324   2.9415   2.9729   2.9924
  3.0041   3.0166   3.0298   3.0408   3.0466   3.0921   3.1106   3.1403
  3.1638   3.1973   3.2078   3.2089   3.2197   3.2587   3.2675   3.2900
  3.2984   3.3028   3.3162   3.3355   3.3468   3.3636   3.3945   3.4077
  3.4212   3.4341   3.4430   3.4602   3.5191   3.5341   3.5401   3.5510
  3.5570   3.5845   3.5961   3.6070   3.6277   3.6332   3.6622   3.6691
  3.6898   3.7156   3.7339   3.7623   3.7807   3.8421   3.8572   3.8720
  3.8796   3.8929   3.9070   3.9110   4.0034   4.0143   4.0385   4.0521
  4.0904   4.1217   4.1782   4.2103   4.2300   4.2475   4.3216   4.3234
  4.3757   4.3811   4.4338   4.4398   4.4499   4.4802   4.5434   4.5798
  4.6158   4.6599   4.7158   4.7270   4.7317   4.8568   4.8771   4.8955
  4.9320   4.9425   4.9595   4.9852   4.9872   5.0237   5.0470   5.1084
  5.1555   5.2708   5.2726   5.2794   5.2942   5.3139   5.3264   5.3552
  5.3745   5.4070   5.4873   5.5006   5.5707   5.6084   5.6530   5.6648
  5.7171   5.7336   5.7372   5.7885   5.8257   5.8299   5.8799   5.9490
  5.9580   6.0198   6.1055   6.1226   6.1891   6.2782   6.2806   6.3153
  6.4093   6.5130   6.5404   6.5562   6.5704   6.5920   6.6444   6.6823
  6.7020   6.7144   6.8788   6.8841   6.9030   6.9314   7.0281   7.0305
  7.0968   7.1098   7.1608   7.1957   7.2865   7.3141   7.4002   7.4974
  7.5937   7.6636   7.6699  23.1457  23.3857  23.6039  23.9564  44.0716
 44.4180  44.4741  44.6222
 --------------------------------------------------------------
 
          Ground-State Mulliken Net Atomic Charges

     Atom                 Charge (a.u.)    Spin (a.u.)
  --------------------------------------------------------
      1 O                    -0.267127       0.005196
      2 C                     0.413179      -0.006914
      3 C                     0.158663       0.011542
      4 O                    -0.469549       0.004039
      5 O                    -0.262700       0.009883
      6 C                     0.128987      -0.003799
      7 H                     0.056934      -0.003981
      8 H                     0.077522       0.000454
      9 H                     0.070352      -0.000073
     10 H                     0.074533       0.000449
     11 C                     0.220301       0.572473
     12 O                    -0.279669       0.267161
     13 H                     0.078574       0.143570
  --------------------------------------------------------
  Sum of atomic charges =    -0.000000
  Sum of spin   charges =     1.000000

  Building new vdw surfaces
         Merz-Kollman RESP Net Atomic Charges

     Atom                 Charge (a.u.)
  ----------------------------------------
      1 O                    -0.401348
      2 C                     0.939238
      3 C                    -0.031175
      4 O                    -0.637037
      5 O                    -0.456130
      6 C                     0.015206
      7 H                     0.094191
      8 H                     0.158266
      9 H                     0.132984
     10 H                     0.132984
     11 C                     0.129155
     12 O                    -0.258599
     13 H                     0.182264
  ----------------------------------------
  Sum of atomic charges =     0.000000

  Related Dipole Moment =     6.4243 (X -5.8844 Y  2.5276 Z -0.5076)

 -----------------------------------------------------------------
                    Cartesian Multipole Moments
 -----------------------------------------------------------------
    Charge (ESU x 10^10)
                -0.0000
    Dipole Moment (Debye)
         X      -5.8333      Y       2.5073      Z      -0.5667
       Tot       6.3745
    Quadrupole Moments (Debye-Ang)
        XX     -19.3691     XY      20.2784     YY     -65.9956
        XZ      -4.2300     YZ      -2.5448     ZZ     -50.0560
    Octopole Moments (Debye-Ang^2)
       XXX     125.9344    XXY      60.6630    XYY       2.2711
       YYY     587.4221    XXZ      -3.0909    XYZ      13.2378
       YYZ      -2.2852    XZZ      74.5901    YZZ     166.8362
       ZZZ     -49.7267
    Hexadecapole Moments (Debye-Ang^3)
      XXXX    -920.5531   XXXY    -495.9868   XXYY    -468.4693
      XYYY    -590.7070   YYYY   -4273.2691   XXXZ      10.6430
      XXYZ     -14.0639   XYYZ     -22.9827   YYYZ      52.6497
      XXZZ    -245.1683   XYZZ    -289.2402   YYZZ    -694.8849
      XZZZ      39.9853   YZZZ      97.1457   ZZZZ    -285.0816
 -----------------------------------------------------------------
 Calculating analytic gradient of the SCF energy
 Gradient of CDS energy
            1           2           3           4           5           6
    1  -0.0005819   0.0006996  -0.0002465   0.0003163  -0.0007577  -0.0007875
    2   0.0007256  -0.0018928  -0.0000465   0.0003711   0.0005088   0.0001182
    3   0.0003396  -0.0005025   0.0015723   0.0000099   0.0001376  -0.0013594
            7           8           9          10          11          12
    1   0.0001281   0.0001695   0.0002550   0.0002427   0.0007836  -0.0000151
    2  -0.0002639  -0.0000875  -0.0000950   0.0000283   0.0006982   0.0000703
    3  -0.0003011  -0.0002423   0.0001450   0.0001397  -0.0005249   0.0003121
           13
    1  -0.0002060
    2  -0.0001347
    3   0.0002739
 Gradient of SCF Energy
            1           2           3           4           5           6
    1   0.0022537   0.0025254   0.0042346  -0.0020285   0.0004569   0.0137188
    2  -0.0006113  -0.0005526  -0.0060258  -0.0009083  -0.0007227   0.0003704
    3   0.0014277  -0.0009599  -0.0126454   0.0008055  -0.0015544   0.0098354
            7           8           9          10          11          12
    1   0.0008693  -0.0085391  -0.0049719  -0.0091564  -0.0055803   0.0012729
    2   0.0097567  -0.0046279   0.0109663  -0.0085857  -0.0002687   0.0003206
    3   0.0038231   0.0068874  -0.0047058  -0.0028768   0.0026505   0.0036488
           13
    1   0.0049446
    2   0.0008888
    3  -0.0063360
 Max gradient component =       1.372E-02
 RMS gradient           =       5.609E-03
 Computing fast CPCM-SWIG gradient
 Updating gradient with PCM contributions...
 -- total gradient after adding PCM contribution --
---------------------------------------------------
  Atom         X              Y              Z     
---------------------------------------------------
   1       0.000674      -0.000290      -0.000140
   2      -0.000199       0.000029       0.000095
   3      -0.000277       0.000115      -0.000043
   4      -0.000100       0.000041       0.000123
   5       0.000016       0.000015      -0.000010
   6      -0.000063       0.000045      -0.000023
   7       0.000009       0.000027       0.000011
   8      -0.000046       0.000034      -0.000006
   9      -0.000002       0.000001      -0.000001
  10      -0.000001       0.000001      -0.000000
  11       0.000017      -0.000003      -0.000006
  12      -0.000022      -0.000016       0.000004
  13      -0.000006       0.000001      -0.000003
---------------------------------------------------
 Number of fixed atoms: 0
 Gradient time:  CPU 584.03 s  wall 25.82 s
 ----------------------------------------------------------------
             Standard Nuclear Orientation (Angstroms)
    I     Atom           X                Y                Z
 ----------------------------------------------------------------
    1      O      -2.0005034827    -4.3066815566     1.2149558113
    2      C      -1.4689382355    -4.3670984148    -0.0149256852
    3      C      -3.2221965281    -3.5418068806     1.1653146181
    4      O      -0.3800508564    -4.8066033736    -0.2596803588
    5      O      -2.3139473256    -3.8886428533    -0.9387014583
    6      C      -3.5786508593    -3.5796102918    -0.3147270525
    7      H      -3.0108960571    -2.5329133883     1.5244588294
    8      H      -3.9604866911    -4.0247448626     1.8025973929
    9      H      -3.9330918474    -2.6254362993    -0.7002520427
   10      H      -4.2850668945    -4.3744923988    -0.5606065435
   11      C      -0.2528925470    -1.6151044464     0.4581211522
   12      O       0.0845957341    -1.2120517346     1.5096060147
   13      H       0.3661055906    -1.5943534992    -0.4746806779
 ----------------------------------------------------------------
 Nuclear Repulsion Energy =         369.42001057 hartrees
 There are       31 alpha and       30 beta electrons
 Discretize the solute cavity surface with Lebedev spheres
	Using 110 Lebedev grid points for each H atom
	Using 194 Lebedev grid points for other atoms
	Atomic van der Waals radii will be scaled by 1.20
 Remove points where switching function is < 1.0e-08
 Keep 940 surface tesserae and discard 1162 interior tesserae
 Molecular Surface Area = 183.245 Angst**2

                       Distance Matrix (Angstroms)
             O (  1)   C (  2)   C (  3)   O (  4)   O (  5)   C (  6)
   C (  2)  1.341201
   C (  3)  1.442231  2.268918
   O (  4)  2.247296  1.199477  3.421712
   O (  5)  2.216132  1.340269  2.317778  2.245813
   C (  6)  2.314975  2.271763  1.522830  3.426308  1.443717
   H (  7)  2.064689  2.848082  1.091558  3.908218  2.896705  2.191010
   H (  8)  2.065513  3.102968  1.088316  4.205213  3.200677  2.197045
   H (  9)  3.198360  3.094368  2.196690  4.192337  2.067408  1.088442
   H ( 10)  2.894210  2.868519  2.191315  3.940359  2.065022  1.091475
   C ( 11)  3.297200  3.045654  3.609580  3.273694  3.371652  3.939194
   O ( 12)  3.743153  3.833012  4.059701  4.033246  4.348719  4.727885
   H ( 13)  3.976485  3.356617  4.399781  3.304773  3.558337  4.419042
             H (  7)   H (  8)   H (  9)   H ( 10)   C ( 11)   O ( 12)
   H (  8)  1.790152
   H (  9)  2.410051  2.867590
   H ( 10)  3.059808  2.410894  1.789577
   C ( 11)  3.096132  4.621714  3.988291  4.991038
   O ( 12)  3.365556  4.935563  4.798223  5.777609  1.175572
   H ( 13)  4.035046  5.460055  4.426863  5.419406  1.119691  2.040293

 
 Requested basis set is def2-TZVPPD
 There are 143 shells and 393 basis functions
 A cutoff of  1.0D-14 yielded   9635 shell pairs
 There are     73445 function pairs (     94472 Cartesian)
 Smallest overlap matrix eigenvalue = 8.03E-06
 Guess MOs from SCF MO coefficient file

 -----------------------------------------------------------------------
  General SCF calculation program by
  Eric Jon Sundstrom, Paul Horn, Yuezhi Mao, Dmitri Zuev, Alec White,
  David Stuck, Shaama M.S., Shane Yost, Joonho Lee, David Small,
  Daniel Levine, Susi Lehtola, Hugh Burton, Evgeny Epifanovsky,
  Bang C. Huynh
 -----------------------------------------------------------------------
 Exchange:     0.1670 Hartree-Fock + 1.0000 wB97X-V + LR-HF
 Correlation:  1.0000 wB97X-V
 Using SG-3 standard quadrature grid
 Nonlocal Correlation:  VV10 with C = 0.0100 and b = 6.00 and scale = 1.00000
 Grid used for NLC:  SG-1 standard quadrature
 
 Citation of the SMD model:
 Marenich, A.V.; Cramer, C.J.; Truhlar, D.G.
 J. Phys. Chem. B 2009, 113, 6378-6396.
 iSolventCode=           0
 Solvent: other                                                           
 
 vradii
            1           2           3           4           5           6
    1   2.2940000   1.8500000   1.8500000   2.2940000   2.2940000   1.8500000
            7           8           9          10          11          12
    1   1.2000000   1.2000000   1.2000000   1.2000000   1.8500000   2.2940000
           13
    1   1.2000000
 using 40 threads for integral computing
 -------------------------------------------------------
 OpenMP Integral computing Module                
 Release: version 1.0, May 2013, Q-Chem Inc. Pittsburgh 
 -------------------------------------------------------
 using 40 threads for integral computing
 -------------------------------------------------------
 OpenMP Integral computing Module                
 Release: version 1.0, May 2013, Q-Chem Inc. Pittsburgh 
 -------------------------------------------------------
 -------------------------------------------------------
 OpenMP BLAS3 based DFT computing Module                
 Release: version 1.0, May 2013, Q-Chem Inc. Pittsburgh 
 -------------------------------------------------------
 -------------------------------------------------------
 OpenMP BLAS3 based DFT computing Module                
 Release: version 1.0, May 2013, Q-Chem Inc. Pittsburgh 
 -------------------------------------------------------
 -------------------------------------------------------
 OpenMP BLAS3 based DFT computing Module                
 Release: version 1.0, May 2013, Q-Chem Inc. Pittsburgh 
 -------------------------------------------------------
 A unrestricted SCF calculation will be
 performed using Roothaan-Hall, DIIS
 SCF converges when DIIS error is below 1.0e-08
 ---------------------------------------
  Cycle       Energy         DIIS error
 ---------------------------------------
    1    -456.8280173432      1.31e-04  Roothaan Step
 ---------------------------------------
  Cycle       Energy         DIIS error
 ---------------------------------------
    1    -456.3193483679      1.50e-04  
    2    -456.3210130431      1.51e-04  
    3    -456.3221641930      2.85e-05  
    4    -456.3222332299      1.47e-05  
    5    -456.3222494232      4.68e-06  
    6    -456.3222518537      1.97e-06  
    7    -456.3222521801      7.12e-07  
    8    -456.3222522517      3.29e-07  
    9    -456.3222522688      1.71e-07  
   10    -456.3222522785      7.48e-08  
   11    -456.3222522820      4.45e-08  
   12    -456.3222522837      2.84e-08  
   13    -456.3222522842      1.77e-08  
   14    -456.3222522845      8.26e-09  Convergence criterion met
 ---------------------------------------
 SCF time:   CPU 3186.19s  wall 126.00s 
<S^2> =          0.753366390
(3)  G-ENP(liq) elect-nuc-pol free energy of system     -456.322252284 a.u.
(4)  G-CDS(liq) cavity-dispersion-solvent structure 
     free energy                                               -3.2523 kcal/mol
(6)  G-S(liq) free energy of system                     -456.327435151 a.u.
 SCF   energy in the final basis set =     -456.3222522845
 Total energy in the final basis set =     -456.3274351509
 
 --------------------------------------------------------------
 
                    Orbital Energies (a.u.)
 --------------------------------------------------------------
 
 Alpha MOs
 -- Occupied --
-19.2737 -19.2705 -19.2703 -19.2010 -10.4461 -10.3674 -10.3347 -10.3342
 -1.2966  -1.2379  -1.1784  -1.1701  -0.9059  -0.7981  -0.7336  -0.7245
 -0.6599  -0.6323  -0.6146  -0.6102  -0.5584  -0.5552  -0.5491  -0.5435
 -0.5391  -0.4902  -0.4776  -0.4196  -0.4121  -0.4090  -0.3140
 -- Virtual --
  0.0479   0.0582   0.0740   0.0813   0.0830   0.1025   0.1075   0.1114
  0.1151   0.1218   0.1283   0.1488   0.1528   0.1556   0.1595   0.1675
  0.1838   0.1857   0.1944   0.2025   0.2124   0.2211   0.2306   0.2348
  0.2447   0.2546   0.2678   0.2737   0.2832   0.2856   0.2931   0.3037
  0.3132   0.3195   0.3250   0.3313   0.3353   0.3458   0.3500   0.3525
  0.3596   0.3644   0.3700   0.3835   0.3859   0.3949   0.4007   0.4035
  0.4108   0.4155   0.4214   0.4347   0.4392   0.4475   0.4493   0.4537
  0.4568   0.4734   0.4774   0.4801   0.4875   0.4937   0.5055   0.5187
  0.5214   0.5352   0.5406   0.5501   0.5560   0.5705   0.5728   0.5825
  0.5877   0.6017   0.6056   0.6253   0.6294   0.6422   0.6442   0.6523
  0.6629   0.6752   0.6831   0.6930   0.7003   0.7042   0.7176   0.7254
  0.7293   0.7383   0.7474   0.7534   0.7589   0.7637   0.7812   0.7855
  0.7992   0.8082   0.8148   0.8212   0.8336   0.8498   0.8559   0.8723
  0.8848   0.9004   0.9087   0.9198   0.9363   0.9454   0.9584   0.9654
  0.9761   0.9956   0.9991   1.0131   1.0283   1.0366   1.0759   1.0902
  1.0993   1.1180   1.1252   1.1360   1.1483   1.1905   1.2045   1.2077
  1.2225   1.2255   1.2356   1.2504   1.2643   1.2849   1.3002   1.3064
  1.3202   1.3482   1.3559   1.3640   1.3785   1.3864   1.4075   1.4244
  1.4381   1.4523   1.4844   1.4920   1.5058   1.5365   1.5509   1.5986
  1.6172   1.6348   1.6404   1.6576   1.7131   1.7249   1.7474   1.7598
  1.7743   1.8100   1.8504   1.8806   1.9077   1.9100   1.9189   1.9371
  1.9641   1.9866   1.9947   2.0036   2.0684   2.0911   2.1036   2.1217
  2.1409   2.1415   2.2103   2.2413   2.2470   2.2622   2.3026   2.3168
  2.3491   2.3919   2.4296   2.4318   2.4437   2.4730   2.5018   2.5678
  2.6090   2.6174   2.7150   2.7236   2.7553   2.7777   2.8026   2.8115
  2.8574   2.8855   2.8972   2.9226   2.9406   2.9718   2.9858   3.0001
  3.0081   3.0259   3.0397   3.0442   3.0781   3.0999   3.1308   3.1593
  3.1916   3.1986   3.2042   3.2181   3.2531   3.2648   3.2754   3.2814
  3.2949   3.3128   3.3286   3.3433   3.3628   3.3882   3.4045   3.4187
  3.4291   3.4334   3.4571   3.5126   3.5304   3.5375   3.5443   3.5517
  3.5806   3.5932   3.6016   3.6153   3.6304   3.6603   3.6670   3.6889
  3.7156   3.7306   3.7556   3.7680   3.8408   3.8537   3.8666   3.8754
  3.8930   3.9047   3.9102   4.0033   4.0144   4.0386   4.0519   4.0667
  4.1213   4.1551   4.2101   4.2299   4.2476   4.3211   4.3226   4.3610
  4.3759   4.4338   4.4401   4.4501   4.4795   4.5340   4.5799   4.6157
  4.6599   4.7079   4.7188   4.7314   4.8539   4.8598   4.8936   4.9313
  4.9366   4.9434   4.9855   4.9862   5.0236   5.0472   5.1088   5.1555
  5.2544   5.2574   5.2763   5.2936   5.2977   5.3256   5.3550   5.3742
  5.4071   5.4869   5.5005   5.5705   5.6085   5.6529   5.6649   5.7024
  5.7341   5.7370   5.7883   5.8109   5.8300   5.8802   5.9494   5.9597
  6.0202   6.1057   6.1239   6.1893   6.2728   6.2779   6.3154   6.4090
  6.5123   6.5251   6.5395   6.5469   6.5754   6.6430   6.6797   6.6838
  6.7132   6.8767   6.8837   6.8990   6.9310   7.0078   7.0291   7.0970
  7.1096   7.1604   7.1952   7.2752   7.3140   7.4002   7.4975   7.5931
  7.6627   7.6699  23.1353  23.3862  23.6051  23.9545  44.0627  44.4182
 44.4741  44.6228
 
 Beta MOs
 -- Occupied --
-19.2704 -19.2702 -19.2663 -19.2010 -10.4461 -10.3596 -10.3347 -10.3342
 -1.2965  -1.2216  -1.1782  -1.1700  -0.9058  -0.7980  -0.7245  -0.7030
 -0.6589  -0.6322  -0.6100  -0.5889  -0.5555  -0.5523  -0.5427  -0.5340
 -0.4962  -0.4898  -0.4775  -0.4192  -0.4116  -0.4088
 -- Virtual --
  0.0132   0.0588   0.0602   0.0746   0.0826   0.0853   0.1032   0.1085
  0.1131   0.1161   0.1233   0.1291   0.1502   0.1538   0.1561   0.1612
  0.1682   0.1847   0.1883   0.1964   0.2043   0.2138   0.2213   0.2319
  0.2383   0.2469   0.2557   0.2689   0.2759   0.2838   0.2862   0.2938
  0.3057   0.3138   0.3203   0.3269   0.3317   0.3384   0.3478   0.3526
  0.3535   0.3607   0.3659   0.3718   0.3852   0.3869   0.3955   0.4021
  0.4073   0.4117   0.4168   0.4223   0.4353   0.4409   0.4478   0.4500
  0.4546   0.4594   0.4741   0.4775   0.4815   0.4895   0.4953   0.5061
  0.5191   0.5258   0.5375   0.5429   0.5506   0.5572   0.5710   0.5735
  0.5835   0.5884   0.6020   0.6059   0.6262   0.6298   0.6433   0.6455
  0.6537   0.6633   0.6768   0.6842   0.6937   0.7027   0.7047   0.7190
  0.7264   0.7335   0.7403   0.7494   0.7554   0.7597   0.7651   0.7842
  0.7870   0.8005   0.8112   0.8197   0.8221   0.8374   0.8505   0.8588
  0.8734   0.8858   0.9011   0.9105   0.9208   0.9382   0.9499   0.9606
  0.9663   0.9809   0.9973   1.0005   1.0171   1.0309   1.0375   1.0791
  1.0936   1.1000   1.1216   1.1263   1.1373   1.1519   1.1958   1.2056
  1.2103   1.2235   1.2286   1.2375   1.2515   1.2649   1.2879   1.3031
  1.3084   1.3213   1.3498   1.3571   1.3667   1.3802   1.3878   1.4092
  1.4268   1.4412   1.4528   1.4846   1.4944   1.5064   1.5384   1.5564
  1.6003   1.6218   1.6359   1.6419   1.6584   1.7138   1.7263   1.7482
  1.7603   1.7845   1.8156   1.8565   1.8838   1.9106   1.9150   1.9249
  1.9413   1.9667   1.9877   1.9956   2.0066   2.0783   2.0976   2.1072
  2.1245   2.1432   2.1472   2.2113   2.2465   2.2493   2.2675   2.3029
  2.3179   2.3493   2.3920   2.4298   2.4328   2.4505   2.4742   2.5026
  2.5682   2.6097   2.6177   2.7155   2.7239   2.7587   2.7932   2.8092
  2.8277   2.8743   2.8944   2.9007   2.9325   2.9419   2.9731   2.9925
  3.0041   3.0166   3.0296   3.0409   3.0468   3.0920   3.1106   3.1403
  3.1638   3.1974   3.2077   3.2089   3.2198   3.2587   3.2676   3.2900
  3.2985   3.3027   3.3162   3.3358   3.3467   3.3636   3.3944   3.4075
  3.4213   3.4344   3.4430   3.4602   3.5191   3.5339   3.5399   3.5509
  3.5569   3.5841   3.5961   3.6069   3.6278   3.6331   3.6625   3.6691
  3.6898   3.7159   3.7339   3.7621   3.7806   3.8421   3.8573   3.8721
  3.8798   3.8935   3.9072   3.9113   4.0036   4.0146   4.0388   4.0524
  4.0904   4.1217   4.1782   4.2104   4.2301   4.2476   4.3220   4.3234
  4.3759   4.3811   4.4339   4.4402   4.4502   4.4804   4.5434   4.5800
  4.6159   4.6600   4.7159   4.7270   4.7317   4.8569   4.8771   4.8957
  4.9319   4.9425   4.9595   4.9857   4.9874   5.0237   5.0474   5.1089
  5.1555   5.2708   5.2725   5.2793   5.2942   5.3139   5.3264   5.3552
  5.3743   5.4072   5.4870   5.5005   5.5706   5.6086   5.6530   5.6650
  5.7171   5.7342   5.7372   5.7886   5.8257   5.8301   5.8804   5.9496
  5.9598   6.0204   6.1059   6.1240   6.1895   6.2781   6.2806   6.3155
  6.4091   6.5129   6.5411   6.5562   6.5704   6.5920   6.6442   6.6825
  6.7020   6.7140   6.8791   6.8839   6.9030   6.9316   7.0281   7.0304
  7.0975   7.1100   7.1607   7.1955   7.2865   7.3141   7.4003   7.4976
  7.5932   7.6627   7.6700  23.1456  23.3863  23.6051  23.9545  44.0715
 44.4183  44.4741  44.6230
 --------------------------------------------------------------
 
          Ground-State Mulliken Net Atomic Charges

     Atom                 Charge (a.u.)    Spin (a.u.)
  --------------------------------------------------------
      1 O                    -0.267232       0.005197
      2 C                     0.413022      -0.006892
      3 C                     0.158903       0.011546
      4 O                    -0.469094       0.004049
      5 O                    -0.262736       0.009888
      6 C                     0.128674      -0.003811
      7 H                     0.056834      -0.003984
      8 H                     0.077495       0.000455
      9 H                     0.070321      -0.000078
     10 H                     0.074587       0.000450
     11 C                     0.220277       0.572440
     12 O                    -0.279655       0.267177
     13 H                     0.078606       0.143563
  --------------------------------------------------------
  Sum of atomic charges =     0.000000
  Sum of spin   charges =     1.000000

  Building new vdw surfaces
         Merz-Kollman RESP Net Atomic Charges

     Atom                 Charge (a.u.)
  ----------------------------------------
      1 O                    -0.401491
      2 C                     0.939018
      3 C                    -0.030738
      4 O                    -0.636503
      5 O                    -0.455761
      6 C                     0.014433
      7 H                     0.093892
      8 H                     0.158119
      9 H                     0.133098
     10 H                     0.133098
     11 C                     0.129089
     12 O                    -0.258552
     13 H                     0.182298
  ----------------------------------------
  Sum of atomic charges =     0.000000

  Related Dipole Moment =     6.4133 (X -5.8734 Y  2.5244 Z -0.5112)

 -----------------------------------------------------------------
                    Cartesian Multipole Moments
 -----------------------------------------------------------------
    Charge (ESU x 10^10)
                 0.0000
    Dipole Moment (Debye)
         X      -5.8221      Y       2.5040      Z      -0.5705
       Tot       6.3634
    Quadrupole Moments (Debye-Ang)
        XX     -19.4134     XY      20.2404     YY     -65.9685
        XZ      -4.2175     YZ      -2.5293     ZZ     -50.0597
    Octopole Moments (Debye-Ang^2)
       XXX     126.1419    XXY      60.8171    XYY       2.4208
       YYY     587.2498    XXZ      -3.1375    XYZ      13.1917
       YYZ      -2.3525    XZZ      74.6267    YZZ     166.8460
       ZZZ     -49.7378
    Hexadecapole Moments (Debye-Ang^3)
      XXXX    -921.5070   XXXY    -496.7344   XXYY    -469.0815
      XYYY    -591.3819   YYYY   -4272.2557   XXXZ      10.8538
      XXYZ     -13.8939   XYYZ     -22.7883   YYYZ      52.9598
      XXZZ    -245.3117   XYZZ    -289.3736   YYZZ    -694.9070
      XZZZ      40.0608   YZZZ      97.1894   ZZZZ    -285.0974
 -----------------------------------------------------------------
 Calculating analytic gradient of the SCF energy
 Gradient of CDS energy
            1           2           3           4           5           6
    1  -0.0005903   0.0007072  -0.0002465   0.0003163  -0.0007577  -0.0007874
    2   0.0007259  -0.0018942  -0.0000440   0.0003714   0.0005088   0.0001178
    3   0.0003467  -0.0005048   0.0015711   0.0000058   0.0001376  -0.0013591
            7           8           9          10          11          12
    1   0.0001278   0.0001705   0.0002550   0.0002427   0.0007836  -0.0000151
    2  -0.0002639  -0.0000890  -0.0000950   0.0000283   0.0006985   0.0000703
    3  -0.0003013  -0.0002417   0.0001450   0.0001397  -0.0005252   0.0003121
           13
    1  -0.0002060
    2  -0.0001347
    3   0.0002739
 Gradient of SCF Energy
            1           2           3           4           5           6
    1   0.0008874   0.0029234   0.0047760  -0.0018391   0.0004164   0.0138302
    2  -0.0000301  -0.0006096  -0.0062292  -0.0009805  -0.0007441   0.0002710
    3   0.0016977  -0.0011660  -0.0125289   0.0005452  -0.0015375   0.0098743
            7           8           9          10          11          12
    1   0.0008956  -0.0084102  -0.0049691  -0.0091480  -0.0055888   0.0012745
    2   0.0096868  -0.0046994   0.0109622  -0.0085700  -0.0002651   0.0003222
    3   0.0038141   0.0068890  -0.0046821  -0.0028673   0.0026463   0.0036576
           13
    1   0.0049516
    2   0.0008858
    3  -0.0063425
 Max gradient component =       1.383E-02
 RMS gradient           =       5.615E-03
 Computing fast CPCM-SWIG gradient
 Updating gradient with PCM contributions...
 -- total gradient after adding PCM contribution --
---------------------------------------------------
  Atom         X              Y              Z     
---------------------------------------------------
   1      -0.000673       0.000285       0.000132
   2       0.000199      -0.000027      -0.000107
   3       0.000282      -0.000119       0.000048
   4       0.000093      -0.000035      -0.000144
   5      -0.000025      -0.000006       0.000006
   6       0.000055      -0.000041       0.000031
   7       0.000031      -0.000016       0.000009
   8       0.000055      -0.000041       0.000011
   9      -0.000003       0.000008       0.000016
  10      -0.000005       0.000006       0.000006
  11       0.000013       0.000004      -0.000012
  12      -0.000020      -0.000017       0.000007
  13      -0.000004      -0.000001      -0.000002
---------------------------------------------------
 Number of fixed atoms: 0
 Gradient time:  CPU 587.30 s  wall 25.91 s
 ----------------------------------------------------------------
             Standard Nuclear Orientation (Angstroms)
    I     Atom           X                Y                Z
 ----------------------------------------------------------------
    1      O      -1.9995034827    -4.3056815566     1.2149558113
    2      C      -1.4689382355    -4.3670984148    -0.0149256852
    3      C      -3.2221965281    -3.5418068806     1.1653146181
    4      O      -0.3800508564    -4.8066033736    -0.2596803588
    5      O      -2.3139473256    -3.8886428533    -0.9387014583
    6      C      -3.5786508593    -3.5796102918    -0.3147270525
    7      H      -3.0108960571    -2.5329133883     1.5244588294
    8      H      -3.9604866911    -4.0247448626     1.8025973929
    9      H      -3.9330918474    -2.6254362993    -0.7002520427
   10      H      -4.2850668945    -4.3744923988    -0.5606065435
   11      C      -0.2528925470    -1.6151044464     0.4581211522
   12      O       0.0845957341    -1.2120517346     1.5096060147
   13      H       0.3661055906    -1.5943534992    -0.4746806779
 ----------------------------------------------------------------
 Nuclear Repulsion Energy =         369.42895948 hartrees
 There are       31 alpha and       30 beta electrons
 Discretize the solute cavity surface with Lebedev spheres
	Using 110 Lebedev grid points for each H atom
	Using 194 Lebedev grid points for other atoms
	Atomic van der Waals radii will be scaled by 1.20
 Remove points where switching function is < 1.0e-08
 Keep 940 surface tesserae and discard 1162 interior tesserae
 Molecular Surface Area = 183.236 Angst**2

                       Distance Matrix (Angstroms)
             O (  1)   C (  2)   C (  3)   O (  4)   O (  5)   C (  6)
   C (  2)  1.340850
   C (  3)  1.442549  2.268918
   O (  4)  2.246798  1.199477  3.421712
   O (  5)  2.216086  1.340269  2.317778  2.245813
   C (  6)  2.315344  2.271763  1.522830  3.426308  1.443717
   H (  7)  2.064319  2.848082  1.091558  3.908218  2.896705  2.191010
   H (  8)  2.066326  3.102968  1.088316  4.205213  3.200677  2.197045
   H (  9)  3.198439  3.094368  2.196690  4.192337  2.067408  1.088442
   H ( 10)  2.895023  2.868519  2.191315  3.940359  2.065022  1.091475
   C ( 11)  3.295854  3.045654  3.609580  3.273694  3.371652  3.939194
   O ( 12)  3.741769  3.833012  4.059701  4.033246  4.348719  4.727885
   H ( 13)  3.975208  3.356617  4.399781  3.304773  3.558337  4.419042
             H (  7)   H (  8)   H (  9)   H ( 10)   C ( 11)   O ( 12)
   H (  8)  1.790152
   H (  9)  2.410051  2.867590
   H ( 10)  3.059808  2.410894  1.789577
   C ( 11)  3.096132  4.621714  3.988291  4.991038
   O ( 12)  3.365556  4.935563  4.798223  5.777609  1.175572
   H ( 13)  4.035046  5.460055  4.426863  5.419406  1.119691  2.040293

 
 Requested basis set is def2-TZVPPD
 There are 143 shells and 393 basis functions
 A cutoff of  1.0D-14 yielded   9635 shell pairs
 There are     73445 function pairs (     94472 Cartesian)
 Smallest overlap matrix eigenvalue = 8.03E-06
 Guess MOs from SCF MO coefficient file

 -----------------------------------------------------------------------
  General SCF calculation program by
  Eric Jon Sundstrom, Paul Horn, Yuezhi Mao, Dmitri Zuev, Alec White,
  David Stuck, Shaama M.S., Shane Yost, Joonho Lee, David Small,
  Daniel Levine, Susi Lehtola, Hugh Burton, Evgeny Epifanovsky,
  Bang C. Huynh
 -----------------------------------------------------------------------
 Exchange:     0.1670 Hartree-Fock + 1.0000 wB97X-V + LR-HF
 Correlation:  1.0000 wB97X-V
 Using SG-3 standard quadrature grid
 Nonlocal Correlation:  VV10 with C = 0.0100 and b = 6.00 and scale = 1.00000
 Grid used for NLC:  SG-1 standard quadrature
 
 Citation of the SMD model:
 Marenich, A.V.; Cramer, C.J.; Truhlar, D.G.
 J. Phys. Chem. B 2009, 113, 6378-6396.
 iSolventCode=           0
 Solvent: other                                                           
 
 vradii
            1           2           3           4           5           6
    1   2.2940000   1.8500000   1.8500000   2.2940000   2.2940000   1.8500000
            7           8           9          10          11          12
    1   1.2000000   1.2000000   1.2000000   1.2000000   1.8500000   2.2940000
           13
    1   1.2000000
 using 40 threads for integral computing
 -------------------------------------------------------
 OpenMP Integral computing Module                
 Release: version 1.0, May 2013, Q-Chem Inc. Pittsburgh 
 -------------------------------------------------------
 using 40 threads for integral computing
 -------------------------------------------------------
 OpenMP Integral computing Module                
 Release: version 1.0, May 2013, Q-Chem Inc. Pittsburgh 
 -------------------------------------------------------
 -------------------------------------------------------
 OpenMP BLAS3 based DFT computing Module                
 Release: version 1.0, May 2013, Q-Chem Inc. Pittsburgh 
 -------------------------------------------------------
 -------------------------------------------------------
 OpenMP BLAS3 based DFT computing Module                
 Release: version 1.0, May 2013, Q-Chem Inc. Pittsburgh 
 -------------------------------------------------------
 -------------------------------------------------------
 OpenMP BLAS3 based DFT computing Module                
 Release: version 1.0, May 2013, Q-Chem Inc. Pittsburgh 
 -------------------------------------------------------
 A unrestricted SCF calculation will be
 performed using Roothaan-Hall, DIIS
 SCF converges when DIIS error is below 1.0e-08
 ---------------------------------------
  Cycle       Energy         DIIS error
 ---------------------------------------
    1    -456.8278050735      1.30e-04  Roothaan Step
 ---------------------------------------
  Cycle       Energy         DIIS error
 ---------------------------------------
    1    -456.3193440864      1.50e-04  
    2    -456.3210069294      1.52e-04  
    3    -456.3221648254      2.84e-05  
    4    -456.3222338365      1.47e-05  
    5    -456.3222500234      4.70e-06  
    6    -456.3222524646      1.97e-06  
    7    -456.3222527914      7.12e-07  
    8    -456.3222528625      3.30e-07  
    9    -456.3222528794      1.70e-07  
   10    -456.3222528886      7.32e-08  
   11    -456.3222528919      4.34e-08  
   12    -456.3222528934      2.78e-08  
   13    -456.3222528940      1.73e-08  
   14    -456.3222528942      8.16e-09  Convergence criterion met
 ---------------------------------------
 SCF time:   CPU 3171.19s  wall 127.00s 
<S^2> =          0.753366372
(3)  G-ENP(liq) elect-nuc-pol free energy of system     -456.322252894 a.u.
(4)  G-CDS(liq) cavity-dispersion-solvent structure 
     free energy                                               -3.2521 kcal/mol
(6)  G-S(liq) free energy of system                     -456.327435499 a.u.
 SCF   energy in the final basis set =     -456.3222528942
 Total energy in the final basis set =     -456.3274354989
 
 --------------------------------------------------------------
 
                    Orbital Energies (a.u.)
 --------------------------------------------------------------
 
 Alpha MOs
 -- Occupied --
-19.2737 -19.2705 -19.2703 -19.2010 -10.4460 -10.3674 -10.3347 -10.3343
 -1.2966  -1.2379  -1.1784  -1.1701  -0.9059  -0.7982  -0.7336  -0.7244
 -0.6599  -0.6323  -0.6146  -0.6102  -0.5584  -0.5552  -0.5491  -0.5434
 -0.5391  -0.4902  -0.4776  -0.4195  -0.4121  -0.4090  -0.3140
 -- Virtual --
  0.0479   0.0582   0.0740   0.0813   0.0830   0.1025   0.1075   0.1114
  0.1151   0.1218   0.1283   0.1488   0.1528   0.1556   0.1595   0.1675
  0.1838   0.1857   0.1944   0.2025   0.2124   0.2211   0.2306   0.2348
  0.2447   0.2546   0.2678   0.2737   0.2832   0.2857   0.2931   0.3037
  0.3132   0.3195   0.3251   0.3313   0.3352   0.3458   0.3500   0.3525
  0.3597   0.3644   0.3701   0.3835   0.3860   0.3948   0.4007   0.4035
  0.4108   0.4155   0.4214   0.4347   0.4392   0.4475   0.4493   0.4537
  0.4568   0.4734   0.4774   0.4801   0.4875   0.4938   0.5055   0.5188
  0.5214   0.5352   0.5406   0.5501   0.5560   0.5705   0.5728   0.5825
  0.5877   0.6017   0.6056   0.6253   0.6294   0.6422   0.6442   0.6523
  0.6628   0.6752   0.6831   0.6930   0.7003   0.7042   0.7176   0.7255
  0.7293   0.7383   0.7474   0.7535   0.7589   0.7637   0.7812   0.7855
  0.7993   0.8082   0.8148   0.8212   0.8337   0.8497   0.8559   0.8723
  0.8848   0.9005   0.9087   0.9199   0.9364   0.9455   0.9585   0.9654
  0.9761   0.9956   0.9991   1.0131   1.0282   1.0367   1.0759   1.0902
  1.0993   1.1179   1.1253   1.1360   1.1484   1.1905   1.2045   1.2077
  1.2226   1.2255   1.2356   1.2503   1.2643   1.2849   1.3003   1.3064
  1.3201   1.3482   1.3559   1.3640   1.3784   1.3863   1.4075   1.4245
  1.4381   1.4523   1.4844   1.4920   1.5060   1.5365   1.5509   1.5986
  1.6172   1.6349   1.6404   1.6574   1.7130   1.7249   1.7474   1.7598
  1.7743   1.8101   1.8504   1.8807   1.9077   1.9101   1.9188   1.9370
  1.9641   1.9866   1.9947   2.0035   2.0685   2.0912   2.1037   2.1217
  2.1409   2.1415   2.2103   2.2414   2.2469   2.2624   2.3025   2.3168
  2.3491   2.3919   2.4297   2.4316   2.4436   2.4730   2.5019   2.5677
  2.6090   2.6174   2.7151   2.7234   2.7554   2.7777   2.8027   2.8116
  2.8575   2.8855   2.8972   2.9225   2.9405   2.9717   2.9858   3.0002
  3.0082   3.0260   3.0398   3.0442   3.0782   3.0999   3.1309   3.1594
  3.1917   3.1987   3.2042   3.2182   3.2531   3.2648   3.2754   3.2814
  3.2949   3.3128   3.3286   3.3434   3.3628   3.3882   3.4046   3.4187
  3.4291   3.4333   3.4572   3.5126   3.5304   3.5375   3.5445   3.5516
  3.5808   3.5933   3.6017   3.6154   3.6304   3.6602   3.6671   3.6888
  3.7155   3.7305   3.7557   3.7681   3.8409   3.8537   3.8666   3.8754
  3.8928   3.9047   3.9101   4.0033   4.0142   4.0385   4.0518   4.0668
  4.1213   4.1551   4.2100   4.2300   4.2477   4.3210   4.3226   4.3610
  4.3758   4.4338   4.4401   4.4500   4.4795   4.5340   4.5798   4.6157
  4.6599   4.7079   4.7188   4.7313   4.8539   4.8598   4.8935   4.9314
  4.9367   4.9434   4.9854   4.9861   5.0237   5.0470   5.1088   5.1557
  5.2544   5.2575   5.2763   5.2935   5.2977   5.3255   5.3551   5.3743
  5.4070   5.4869   5.5005   5.5707   5.6084   5.6531   5.6647   5.7024
  5.7339   5.7371   5.7884   5.8109   5.8299   5.8801   5.9494   5.9593
  6.0201   6.1058   6.1236   6.1892   6.2728   6.2781   6.3156   6.4091
  6.5123   6.5251   6.5395   6.5469   6.5754   6.6431   6.6797   6.6838
  6.7133   6.8765   6.8837   6.8990   6.9311   7.0078   7.0292   7.0970
  7.1098   7.1605   7.1952   7.2752   7.3140   7.4003   7.4974   7.5934
  7.6631   7.6700  23.1354  23.3862  23.6048  23.9554  44.0627  44.4181
 44.4740  44.6228
 
 Beta MOs
 -- Occupied --
-19.2704 -19.2703 -19.2663 -19.2009 -10.4461 -10.3596 -10.3347 -10.3343
 -1.2965  -1.2216  -1.1782  -1.1699  -0.9058  -0.7981  -0.7245  -0.7030
 -0.6588  -0.6322  -0.6101  -0.5889  -0.5554  -0.5523  -0.5427  -0.5340
 -0.4962  -0.4898  -0.4775  -0.4191  -0.4116  -0.4088
 -- Virtual --
  0.0132   0.0588   0.0602   0.0746   0.0826   0.0853   0.1032   0.1085
  0.1131   0.1161   0.1233   0.1291   0.1502   0.1538   0.1561   0.1612
  0.1682   0.1847   0.1883   0.1964   0.2043   0.2138   0.2213   0.2319
  0.2383   0.2469   0.2557   0.2689   0.2759   0.2838   0.2862   0.2938
  0.3056   0.3138   0.3203   0.3269   0.3317   0.3384   0.3478   0.3526
  0.3535   0.3607   0.3659   0.3719   0.3852   0.3869   0.3955   0.4021
  0.4073   0.4118   0.4168   0.4223   0.4353   0.4409   0.4478   0.4500
  0.4547   0.4594   0.4741   0.4775   0.4815   0.4895   0.4953   0.5061
  0.5192   0.5258   0.5375   0.5429   0.5506   0.5572   0.5710   0.5735
  0.5835   0.5885   0.6020   0.6059   0.6262   0.6298   0.6433   0.6455
  0.6537   0.6633   0.6768   0.6841   0.6937   0.7027   0.7047   0.7190
  0.7264   0.7335   0.7404   0.7494   0.7554   0.7596   0.7651   0.7842
  0.7869   0.8005   0.8112   0.8197   0.8221   0.8374   0.8505   0.8588
  0.8734   0.8858   0.9011   0.9105   0.9208   0.9383   0.9499   0.9607
  0.9663   0.9809   0.9974   1.0005   1.0171   1.0309   1.0376   1.0791
  1.0936   1.1000   1.1215   1.1264   1.1373   1.1519   1.1959   1.2057
  1.2103   1.2235   1.2286   1.2375   1.2515   1.2649   1.2879   1.3031
  1.3084   1.3213   1.3498   1.3571   1.3667   1.3801   1.3878   1.4093
  1.4269   1.4412   1.4528   1.4846   1.4944   1.5065   1.5384   1.5564
  1.6003   1.6217   1.6360   1.6419   1.6582   1.7138   1.7263   1.7482
  1.7603   1.7845   1.8156   1.8565   1.8839   1.9106   1.9151   1.9249
[...]
 H          0.201 -0.121  0.214    0.054  0.134 -0.206   -0.250 -0.262  0.151
 H          0.001 -0.041 -0.049    0.103  0.162  0.115   -0.206 -0.340 -0.099
 H          0.307  0.360  0.159   -0.216 -0.244 -0.089   -0.142 -0.055  0.084
 H         -0.026  0.407 -0.099   -0.045 -0.258  0.185    0.046 -0.116 -0.178
 C         -0.044 -0.069  0.101    0.269 -0.032  0.125    0.297 -0.081 -0.081
 O         -0.105  0.385 -0.053   -0.032  0.200  0.132    0.095  0.139 -0.100
 H         -0.126 -0.133  0.044    0.530 -0.211  0.294    0.445 -0.205  0.016
 TransDip   0.027  0.038  0.019    0.065 -0.048  0.043    0.003 -0.094 -0.006

 Mode:                 4                      5                      6
 Frequency:        94.72                 126.70                 168.43
 Force Cnst:      0.0311                 0.0418                 0.0462
 Red. Mass:       5.8808                 4.4240                 2.7646
 IR Active:          YES                    YES                    YES
 IR Intens:        8.916                  9.574                  1.755
 Raman Active:       YES                    YES                    YES
               X      Y      Z        X      Y      Z        X      Y      Z
 O         -0.096 -0.099 -0.024    0.011 -0.018  0.014   -0.049 -0.099 -0.004
 C         -0.048 -0.076 -0.005   -0.020 -0.068  0.005    0.003 -0.000  0.007
 C         -0.046 -0.017 -0.064   -0.029 -0.083  0.034    0.077  0.118 -0.020
 O         -0.037 -0.062  0.025   -0.040 -0.114 -0.002   -0.034 -0.083 -0.004
 O         -0.017 -0.054 -0.026   -0.010 -0.050  0.011    0.082  0.213  0.037
 C         -0.050 -0.119 -0.055    0.024  0.081  0.008   -0.012 -0.139  0.035
 H          0.045 -0.001 -0.155   -0.116 -0.117  0.174    0.293  0.161 -0.267
 H         -0.072  0.089 -0.014   -0.034 -0.204 -0.062    0.053  0.384  0.152
 H         -0.124 -0.170 -0.110    0.175  0.167  0.079   -0.356 -0.308 -0.062
 H          0.016 -0.193 -0.010   -0.087  0.210 -0.083    0.253 -0.422  0.169
 C         -0.121  0.324  0.133    0.161  0.409 -0.199    0.009  0.052 -0.064
 O          0.391  0.123  0.046   -0.099 -0.091  0.076   -0.078 -0.047  0.002
 H         -0.544  0.423 -0.146    0.642  0.227  0.117    0.107  0.077  0.002
 TransDip  -0.082  0.026 -0.041    0.090  0.033  0.025    0.040  0.015 -0.002

 Mode:                 7                      8                      9
 Frequency:       212.35                 300.82                 537.62
 Force Cnst:      0.1199                 0.0630                 1.4867
 Red. Mass:       4.5141                 1.1814                 8.7300
 IR Active:          YES                    YES                    YES
 IR Intens:        5.501                 73.505                  0.463
 Raman Active:       YES                    YES                    YES
               X      Y      Z        X      Y      Z        X      Y      Z
 O          0.132  0.267  0.031   -0.003  0.008  0.005    0.043  0.030 -0.291
 C          0.025  0.058  0.003    0.001  0.003  0.007   -0.027  0.063 -0.239
 C         -0.131 -0.158  0.005   -0.007 -0.002 -0.001    0.148 -0.082  0.101
 O         -0.095 -0.222 -0.034   -0.008 -0.015  0.001    0.069 -0.095  0.473
 O          0.076  0.180  0.019   -0.004 -0.009  0.002   -0.121  0.081 -0.257
 C         -0.013 -0.100 -0.035   -0.001  0.001 -0.003   -0.114  0.026  0.162
 H         -0.521 -0.134  0.167   -0.020 -0.001  0.004    0.115 -0.113  0.221
 H         -0.017 -0.511 -0.128   -0.007 -0.010 -0.006    0.276 -0.216  0.155
 H         -0.170 -0.138  0.020    0.006  0.004 -0.003   -0.257  0.014  0.275
 H          0.151 -0.211 -0.150   -0.009  0.008 -0.005   -0.083 -0.030  0.273
 C         -0.040 -0.021  0.029    0.095 -0.066 -0.006    0.003 -0.002  0.000
 O          0.048  0.009 -0.011   -0.032  0.005  0.008   -0.002 -0.000  0.001
 H         -0.103 -0.082 -0.015   -0.261  0.931 -0.220   -0.013  0.041 -0.011
 TransDip  -0.050 -0.056 -0.001   -0.050  0.263 -0.061   -0.008 -0.002 -0.020

 Mode:                10                     11                     12
 Frequency:       708.69                 729.06                 790.57
 Force Cnst:      0.7934                 3.4683                 3.9498
 Red. Mass:       2.6811                11.0747                10.7262
 IR Active:          YES                    YES                    YES
 IR Intens:        3.917                 16.631                 56.055
 Raman Active:       YES                    YES                    YES
               X      Y      Z        X      Y      Z        X      Y      Z
 O         -0.135  0.028 -0.046   -0.142  0.056 -0.247   -0.111 -0.148 -0.017
 C         -0.010  0.007 -0.052    0.326 -0.112 -0.068    0.325  0.767  0.105
 C         -0.082  0.097  0.164   -0.306  0.159  0.001    0.013 -0.044  0.012
 O         -0.009  0.013 -0.057    0.441 -0.184 -0.103   -0.109 -0.213 -0.045
 O          0.087 -0.065 -0.098   -0.038  0.002  0.285   -0.036 -0.180 -0.034
 C          0.180 -0.017  0.103   -0.302  0.096  0.139   -0.008 -0.031  0.010
 H         -0.221 -0.008  0.546   -0.244  0.133  0.036    0.129 -0.004 -0.157
 H         -0.190 -0.173 -0.153   -0.100  0.043  0.154    0.017  0.134  0.146
 H         -0.057 -0.228 -0.182   -0.154  0.056 -0.102    0.145  0.071  0.117
 H          0.328 -0.243  0.416   -0.258  0.077  0.087   -0.113  0.099 -0.098
 C          0.001  0.000  0.000   -0.003 -0.001  0.001   -0.006  0.017 -0.001
 O          0.001  0.000  0.000    0.001 -0.000 -0.001    0.002 -0.005  0.000
 H          0.002  0.001  0.001    0.003 -0.009  0.004    0.010 -0.098  0.009
 TransDip   0.016  0.001  0.061   -0.117  0.051  0.028    0.116  0.205  0.044

 Mode:                13                     14                     15
 Frequency:       897.15                 932.88                1004.54
 Force Cnst:      0.7458                 4.5020                 1.3612
 Red. Mass:       1.5726                 8.7800                 2.2895
 IR Active:          YES                    YES                    YES
 IR Intens:        1.146                  3.186                 35.661
 Raman Active:       YES                    YES                    YES
               X      Y      Z        X      Y      Z        X      Y      Z
 O         -0.068  0.063 -0.015   -0.121  0.125 -0.395    0.048 -0.026 -0.075
 C         -0.018 -0.026 -0.036   -0.113  0.036  0.022   -0.037  0.014  0.008
 C         -0.055 -0.050  0.083    0.184 -0.093 -0.160   -0.005  0.034  0.208
 O          0.001  0.010 -0.021   -0.166  0.069  0.038   -0.044  0.018  0.010
 O          0.079  0.000 -0.052   -0.012 -0.057  0.426    0.076 -0.025  0.047
 C          0.028 -0.084  0.064    0.243 -0.091  0.065   -0.104  0.015 -0.182
 H          0.071  0.106 -0.408    0.090 -0.101 -0.078    0.119 -0.001  0.250
 H          0.051  0.282  0.462    0.310 -0.263 -0.162    0.322 -0.077  0.510
 H          0.335  0.161  0.398    0.442 -0.053  0.005    0.060 -0.085 -0.593
 H         -0.116  0.186 -0.364    0.162 -0.001  0.002   -0.012 -0.044 -0.283
 C          0.000 -0.001  0.000    0.000  0.001 -0.000    0.000 -0.001 -0.000
 O         -0.000  0.000 -0.000   -0.000  0.000  0.000   -0.001  0.000  0.000
 H         -0.001  0.004 -0.000   -0.001 -0.003 -0.000    0.001  0.005 -0.000
 TransDip  -0.000 -0.017  0.030    0.049 -0.026 -0.014   -0.176  0.066  0.036

 Mode:                16                     17                     18
 Frequency:      1069.39                1110.71                1128.00
 Force Cnst:      3.8637                 0.9052                 5.6096
 Red. Mass:       5.7343                 1.2454                 7.4828
 IR Active:          YES                    YES                    YES
 IR Intens:        7.368                 64.341                320.837
 Raman Active:       YES                    YES                    YES
               X      Y      Z        X      Y      Z        X      Y      Z
 O          0.230 -0.127 -0.037   -0.006  0.002  0.004    0.286 -0.110 -0.147
 C         -0.011  0.041 -0.124    0.002  0.002 -0.003   -0.108  0.047  0.028
 C         -0.290  0.134  0.073    0.007 -0.003  0.001   -0.286  0.038 -0.152
 O          0.011 -0.021  0.077    0.001 -0.002 -0.000   -0.168  0.065  0.037
 O         -0.244  0.074  0.070   -0.002  0.001  0.001    0.311 -0.139  0.008
 C          0.296 -0.117 -0.063   -0.001 -0.001 -0.003   -0.145  0.146  0.252
 H         -0.075  0.165 -0.159    0.002 -0.003  0.007    0.039  0.024 -0.367
 H         -0.392  0.310  0.087    0.002 -0.000 -0.002   -0.263  0.209 -0.008
 H          0.479 -0.068 -0.115    0.002 -0.000 -0.003   -0.303  0.034  0.136
 H          0.108  0.084 -0.202   -0.002  0.000 -0.004    0.129 -0.095  0.338
 C         -0.004 -0.002  0.002   -0.113 -0.042  0.026   -0.008 -0.006  0.002
 O          0.002  0.000 -0.002    0.041  0.003 -0.053    0.003  0.001 -0.004
 H          0.019  0.020  0.015    0.701  0.455  0.530    0.051  0.051  0.040
 TransDip   0.019  0.072 -0.045    0.100  0.091  0.218   -0.520  0.208  0.125

 Mode:                19                     20                     21
 Frequency:      1163.91                1213.12                1261.14
 Force Cnst:      1.3807                 2.6276                 1.1016
 Red. Mass:       1.7299                 3.0304                 1.1756
 IR Active:          YES                    YES                    YES
 IR Intens:       17.522                336.393                 36.279
 Raman Active:       YES                    YES                    YES
               X      Y      Z        X      Y      Z        X      Y      Z
 O          0.020 -0.056 -0.007    0.022 -0.009 -0.123    0.004  0.032 -0.016
 C         -0.010  0.005  0.007    0.049 -0.067  0.332    0.012 -0.006  0.056
 C          0.041  0.159 -0.023   -0.082  0.057 -0.024   -0.029 -0.057 -0.010
 O         -0.022  0.009  0.005   -0.003  0.007 -0.030   -0.002 -0.001 -0.008
 O          0.052  0.025 -0.012   -0.070  0.027 -0.104    0.010  0.043 -0.029
 C         -0.075 -0.145  0.029    0.087 -0.008 -0.062   -0.011 -0.044  0.006
 H         -0.386  0.135  0.294    0.081 -0.026  0.103    0.393 -0.191  0.096
 H          0.131 -0.328 -0.296    0.461 -0.247  0.363   -0.192  0.170 -0.024
 H          0.420  0.098  0.187   -0.324  0.080  0.513    0.369 -0.054 -0.350
 H         -0.434  0.219 -0.113   -0.028  0.019  0.164   -0.424  0.159  0.503
 C         -0.000 -0.000  0.000   -0.003 -0.001 -0.000    0.000  0.000 -0.000
 O          0.001  0.000 -0.000    0.001 -0.000 -0.001   -0.001 -0.000  0.000
 H          0.001  0.002  0.001    0.021  0.007  0.016    0.002 -0.001  0.001
 TransDip  -0.121  0.046  0.035    0.125 -0.044  0.572    0.022 -0.121  0.148

 Mode:                22                     23                     24
 Frequency:      1268.50                1422.41                1440.25
 Force Cnst:      1.0704                 1.7226                 2.0178
 Red. Mass:       1.1291                 1.4451                 1.6510
 IR Active:          YES                    YES                    YES
 IR Intens:       22.177                  0.005                 66.318
 Raman Active:       YES                    YES                    YES
               X      Y      Z        X      Y      Z        X      Y      Z
 O         -0.018 -0.027  0.034    0.009 -0.010 -0.041    0.015 -0.002 -0.068
 C          0.002  0.001 -0.020    0.005 -0.003 -0.002    0.021 -0.029  0.146
 C         -0.012 -0.022 -0.041    0.050 -0.031  0.119    0.062 -0.021  0.080
 O          0.001  0.000  0.002   -0.008  0.003  0.002   -0.002  0.003 -0.014
 O         -0.009  0.017 -0.014    0.028 -0.006  0.032   -0.037  0.019 -0.058
 C          0.032  0.043  0.040    0.008  0.005 -0.130   -0.024  0.016  0.102
 H         -0.418  0.190 -0.388   -0.399  0.239 -0.351   -0.184  0.191 -0.387
 H          0.440 -0.245  0.299   -0.321  0.133 -0.177   -0.332 -0.006 -0.372
 H          0.177 -0.073 -0.364   -0.230  0.095  0.295    0.075 -0.172 -0.468
 H         -0.048  0.024  0.338   -0.278  0.058  0.490    0.112  0.060 -0.454
 C         -0.000 -0.000  0.001   -0.000  0.000  0.000   -0.001 -0.000 -0.000
 O          0.001  0.000 -0.000    0.001  0.000 -0.000    0.001  0.000 -0.000
 H          0.000  0.000  0.001   -0.000 -0.001  0.000    0.005  0.001  0.005
 TransDip   0.126 -0.020 -0.080   -0.000  0.002  0.001    0.045 -0.038  0.254

 Mode:                25                     26                     27
 Frequency:      1517.41                1520.52                1850.06
 Force Cnst:      1.5158                 1.5046                25.5691
 Red. Mass:       1.1174                 1.1045                12.6793
 IR Active:          YES                    YES                    YES
 IR Intens:       30.548                  9.110               1040.145
 Raman Active:       YES                    YES                    YES
               X      Y      Z        X      Y      Z        X      Y      Z
 O          0.012 -0.007 -0.022    0.002  0.001 -0.005   -0.033  0.015  0.016
 C          0.010 -0.010  0.037   -0.005 -0.001  0.023    0.766 -0.310 -0.172
 C          0.046 -0.038 -0.053   -0.005  0.008  0.029   -0.038  0.018  0.017
 O         -0.005  0.003 -0.002    0.008 -0.003 -0.004   -0.453  0.184  0.102
 O         -0.013  0.006 -0.011   -0.016  0.004 -0.010   -0.038  0.014 -0.000
 C         -0.022  0.006  0.006   -0.072  0.014 -0.035   -0.042  0.015  0.002
 H         -0.547 -0.060  0.400    0.124  0.039 -0.150    0.103  0.007  0.006
 H         -0.099  0.599  0.285   -0.028 -0.157 -0.127   -0.026 -0.060  0.002
 H          0.184  0.065 -0.024    0.562  0.317  0.165    0.028  0.060 -0.003
 H          0.141 -0.136  0.011    0.430 -0.488  0.209    0.054 -0.076 -0.042
 C         -0.000 -0.000  0.000    0.000 -0.000 -0.000    0.002  0.002  0.006
 O          0.001  0.000  0.000   -0.000  0.000  0.000   -0.002 -0.003 -0.004
 H         -0.001 -0.001 -0.001    0.001  0.002  0.001   -0.005 -0.011 -0.009
 TransDip   0.035  0.000  0.173    0.017  0.004  0.095    0.940 -0.375 -0.205

 Mode:                28                     29                     30
 Frequency:      1949.05                2795.92                3108.66
 Force Cnst:     23.7936                 5.0115                 6.0445
 Red. Mass:      10.6308                 1.0881                 1.0616
 IR Active:          YES                    YES                    YES
 IR Intens:      147.239                 28.929                 28.327
 Raman Active:       YES                    YES                    YES
               X      Y      Z        X      Y      Z        X      Y      Z
 O          0.001  0.000 -0.001   -0.000  0.000  0.000    0.000 -0.000 -0.000
 C         -0.008 -0.001  0.002    0.001 -0.000 -0.000    0.001 -0.001  0.001
 C          0.000  0.000 -0.000    0.000  0.000  0.000    0.007 -0.006 -0.011
 O          0.004 -0.000 -0.001   -0.000 -0.000  0.000   -0.000  0.000 -0.000
 O          0.001  0.000 -0.000   -0.000  0.000  0.000   -0.001  0.001  0.001
 C         -0.000 -0.000  0.000    0.000 -0.000 -0.000   -0.058 -0.017 -0.032
 H         -0.003  0.000  0.003   -0.001 -0.002 -0.000    0.033  0.141  0.049
 H         -0.001  0.002  0.001   -0.000  0.000  0.000   -0.103 -0.068  0.084
 H          0.000  0.000 -0.001   -0.000 -0.000  0.000    0.143 -0.424  0.162
 H          0.001 -0.001 -0.001   -0.000  0.000  0.000    0.541  0.628  0.189
 C          0.235  0.249  0.606    0.040 -0.002 -0.075    0.000 -0.000 -0.000
 O         -0.157 -0.184 -0.478    0.003  0.002  0.003   -0.000 -0.000 -0.000
 H         -0.306 -0.033  0.366   -0.528 -0.004  0.845   -0.000  0.000  0.000
 TransDip   0.044  0.123  0.366    0.031 -0.033 -0.166   -0.143 -0.051 -0.077

 Mode:                31                     32                     33
 Frequency:      3110.01                3175.18                3188.05
 Force Cnst:      6.0626                 6.5779                 6.6478
 Red. Mass:       1.0639                 1.1074                 1.1101
 IR Active:          YES                    YES                    YES
 IR Intens:       25.850                  5.059                 14.620
 Raman Active:       YES                    YES                    YES
               X      Y      Z        X      Y      Z        X      Y      Z
 O          0.001 -0.000 -0.000   -0.001 -0.000 -0.000    0.000  0.001 -0.000
 C         -0.002  0.001  0.001   -0.001  0.000  0.000   -0.000 -0.000 -0.000
 C          0.010 -0.049 -0.048    0.040  0.044 -0.024   -0.043 -0.053  0.021
 O          0.001 -0.000 -0.000    0.000 -0.000 -0.000   -0.000 -0.000 -0.000
 O         -0.000 -0.000 -0.000   -0.000  0.001  0.000    0.000  0.000 -0.000
 C          0.012  0.010  0.007    0.002 -0.069  0.015   -0.003 -0.064  0.010
 H          0.180  0.798  0.277   -0.053 -0.244 -0.091    0.075  0.347  0.130
 H         -0.305 -0.212  0.256   -0.412 -0.277  0.360    0.425  0.286 -0.373
 H         -0.011  0.040 -0.017   -0.213  0.590 -0.241   -0.181  0.499 -0.205
 H         -0.133 -0.152 -0.045    0.196  0.221  0.072    0.226  0.254  0.085
 C          0.000  0.000 -0.000   -0.000  0.000  0.000    0.000 -0.000 -0.000
 O         -0.000 -0.000  0.000    0.000  0.000 -0.000   -0.000 -0.000  0.000
 H         -0.001 -0.000  0.001    0.000 -0.000 -0.000   -0.000  0.000  0.001
 TransDip   0.089 -0.102 -0.091    0.064 -0.031 -0.014   -0.049 -0.110  0.021

 STANDARD THERMODYNAMIC QUANTITIES AT   298.15 K  AND     1.00 ATM

   This Molecule has  0 Imaginary Frequencies
   Zero point vibrational energy:       57.087 kcal/mol

   Atom    1 Element O  Has Mass   15.99491
   Atom    2 Element C  Has Mass   12.00000
   Atom    3 Element C  Has Mass   12.00000
   Atom    4 Element O  Has Mass   15.99491
   Atom    5 Element O  Has Mass   15.99491
   Atom    6 Element C  Has Mass   12.00000
   Atom    7 Element H  Has Mass    1.00783
   Atom    8 Element H  Has Mass    1.00783
   Atom    9 Element H  Has Mass    1.00783
   Atom   10 Element H  Has Mass    1.00783
   Atom   11 Element C  Has Mass   12.00000
   Atom   12 Element O  Has Mass   15.99491
   Atom   13 Element H  Has Mass    1.00783
   Molecular Mass:   117.018790 amu
   Principal axes and moments of inertia in amu*Bohr^2:
                             1           2           3
    Eigenvalues --      644.56337  1255.86308  1477.61782
          X               0.70023     0.70672     0.10111
          Y               0.65765    -0.58343    -0.47656
          Z               0.27780    -0.40019     0.87331
   Rotational Symmetry Number is   1
   The Molecule is an Asymmetric Top
   Translational Enthalpy:        0.889 kcal/mol
   Rotational Enthalpy:           0.889 kcal/mol
   Vibrational Enthalpy:         61.055 kcal/mol
   gas constant (RT):             0.592 kcal/mol
   Translational Entropy:        40.186  cal/mol.K
   Rotational Entropy:           28.571  cal/mol.K
   Vibrational Entropy:          30.407  cal/mol.K

   Total Enthalpy:               63.425 kcal/mol
   Total Entropy:                99.165  cal/mol.K
Archival summary:
1\1\n0081.lr6\FREQ\ProcedureUnspecified\BasisUnspecified\445(2)\ewcspott\ThuNov1215:34:382020ThuNov1215:34:382020\0\\#,FREQ,ProcedureUnspecified,BasisUnspecified,\\0,2\O\C,1,1.34081\O,2,1.19948,1,124.257\O,2,1.34027,1,111.51,3,179.299,0\C,1,1.44308,2,109.123,3,171.309,0\H,5,1.08832,1,108.629,2,139.512,0\H,5,1.09156,1,108.334,2,-100.523,0\C,4,1.44372,2,109.319,1,-5.4318,0\H,8,1.08844,4,108.652,2,137.25,0\H,8,1.09148,4,108.283,2,-102.868,0\C,2,3.04565,1,88.5566,3,-89.0387,0\H,11,1.11969,2,96.2047,1,172.278,0\O,11,1.17557,2,124.288,1,30.9836,0\\\@

 Total job time:  12135.31s(wall), 300671.05s(cpu) 
 Thu Nov 12 15:34:38 2020

        *************************************************************
        *                                                           *
        *  Thank you very much for using Q-Chem.  Have a nice day.  *
        *                                                           *
        *************************************************************


