 vasp.5.4.4.18Apr17-6-g9f103f2a35 (build Aug 22 2019 09:35:51) complex          
  
 executed on             LinuxIFC date 2021.04.26  18:52:07
 running on    6 total cores
 distrk:  each k-point on    6 cores,    1 groups
 distr:  one band on NCORES_PER_BAND=   1 cores,    6 groups


--------------------------------------------------------------------------------------------------------


 INCAR:
 POTCAR:   PAW_PBE Li_sv 23Jan2001                
 POTCAR:   PAW_PBE Mn_pv 07Sep2000                
 POTCAR:   PAW_PBE O 08Apr2002                    

 ----------------------------------------------------------------------------- 
|                                                                             |
|           W    W    AA    RRRRR   N    N  II  N    N   GGGG   !!!           |
|           W    W   A  A   R    R  NN   N  II  NN   N  G    G  !!!           |
|           W    W  A    A  R    R  N N  N  II  N N  N  G       !!!           |
|           W WW W  AAAAAA  RRRRR   N  N N  II  N  N N  G  GGG   !            |
|           WW  WW  A    A  R   R   N   NN  II  N   NN  G    G                |
|           W    W  A    A  R    R  N    N  II  N    N   GGGG   !!!           |
|                                                                             |
|      For optimal performance we recommend to set                            |
|        NCORE= 4 - approx SQRT( number of cores)                             |
|      NCORE specifies how many cores store one orbital (NPAR=cpu/NCORE).     |
|      This setting can  greatly improve the performance of VASP for DFT.     |
|      The default,   NCORE=1            might be grossly inefficient         |
|      on modern multi-core architectures or massively parallel machines.     |
|      Do your own testing !!!!                                               |
|      Unfortunately you need to use the default for GW and RPA calculations. |
|      (for HF NCORE is supported but not extensively tested yet)             |
|                                                                             |
 ----------------------------------------------------------------------------- 

 POTCAR:   PAW_PBE Li_sv 23Jan2001                
   VRHFIN =Li: 1s2s2p                                                           
   LEXCH  = PE                                                                  
   EATOM  =   202.7858 eV,   14.9043 Ry                                         
                                                                                
   TITEL  = PAW_PBE Li_sv 23Jan2001                                             
   LULTRA =        F    use ultrasoft PP ?                                      
   IUNSCR =        0    unscreen: 0-lin 1-nonlin 2-no                           
   RPACOR =     .000    partial core radius                                     
   POMASS =    7.010; ZVAL   =    3.000    mass and valenz                      
   RCORE  =    2.050    outmost cutoff radius                                   
   RWIGS  =    2.050; RWIGS  =    1.085    wigner-seitz radius (au A)           
   ENMAX  =  271.649; ENMIN  =  203.737 eV                                      
   ICORE  =        2    local potential                                         
   LCOR   =        T    correct aug charges                                     
   LPAW   =        T    paw PP                                                  
   EAUG   =  428.394                                                            
   RMAX   =    2.797    core radius for proj-oper                               
   RAUG   =    1.300    factor for augmentation sphere                          
   RDEP   =    2.094    radius for radial grids                                 
   RDEPT  =    1.550    core radius for aug-charge                              
   QCUT   =   -4.468; QGAM   =    8.937    optimization parameters              
                                                                                
   Description                                                                  
     l     E      TYP  RCUT    TYP  RCUT                                        
     0   .000     23  1.550                                                     
     0   .000     23  2.050                                                     
     0   .000     23  1.550                                                     
     0   .000     23  2.050                                                     
     1  -.200     23  2.050                                                     
     1  1.500     23  2.050                                                     
     2   .000      7  1.550                                                     
  local pseudopotential read in
  atomic valenz-charges read in
  non local Contribution for L=           0  read in
    real space projection operators read in
  non local Contribution for L=           0  read in
    real space projection operators read in
  non local Contribution for L=           1  read in
    real space projection operators read in
  non local Contribution for L=           1  read in
    real space projection operators read in
    PAW grid and wavefunctions read in
 
   number of l-projection  operators is LMAX  =           4
   number of lm-projection operators is LMMAX =           8
 
 POTCAR:   PAW_PBE Mn_pv 07Sep2000                
   VRHFIN =Mn: 3p4s3d                                                           
   LEXCH  = PE                                                                  
   EATOM  =  2024.8347 eV,  148.8212 Ry                                         
                                                                                
   TITEL  = PAW_PBE Mn_pv 07Sep2000                                             
   LULTRA =        F    use ultrasoft PP ?                                      
   IUNSCR =        1    unscreen: 0-lin 1-nonlin 2-no                           
   RPACOR =    2.080    partial core radius                                     
   POMASS =   54.938; ZVAL   =   13.000    mass and valenz                      
   RCORE  =    2.300    outmost cutoff radius                                   
   RWIGS  =    2.500; RWIGS  =    1.323    wigner-seitz radius (au A)           
   ENMAX  =  269.865; ENMIN  =  202.399 eV                                      
   RCLOC  =    1.725    cutoff for local pot                                    
   LCOR   =        T    correct aug charges                                     
   LPAW   =        T    paw PP                                                  
   EAUG   =  569.085                                                            
   DEXC   =    -.003                                                            
   RMAX   =    2.807    core radius for proj-oper                               
   RAUG   =    1.300    factor for augmentation sphere                          
   RDEP   =    2.338    radius for radial grids                                 
   QCUT   =   -4.454; QGAM   =    8.907    optimization parameters              
                                                                                
   Description                                                                  
     l     E      TYP  RCUT    TYP  RCUT                                        
     1   .000     23  2.000                                                     
     1  -.100     23  2.000                                                     
     2   .000     23  2.300                                                     
     2   .000     23  2.300                                                     
     0   .000     23  2.300                                                     
     0   .000     23  2.300                                                     
     3   .000      7   .000                                                     
  local pseudopotential read in
  partial core-charges read in
  atomic valenz-charges read in
  non local Contribution for L=           1  read in
    real space projection operators read in
  non local Contribution for L=           1  read in
    real space projection operators read in
  non local Contribution for L=           2  read in
    real space projection operators read in
  non local Contribution for L=           2  read in
    real space projection operators read in
  non local Contribution for L=           0  read in
    real space projection operators read in
  non local Contribution for L=           0  read in
    real space projection operators read in
    PAW grid and wavefunctions read in
 
   number of l-projection  operators is LMAX  =           6
   number of lm-projection operators is LMMAX =          18
 
 POTCAR:   PAW_PBE O 08Apr2002                    
   VRHFIN =O: s2p4                                                              
   LEXCH  = PE                                                                  
   EATOM  =   432.3788 eV,   31.7789 Ry                                         
                                                                                
   TITEL  = PAW_PBE O 08Apr2002                                                 
   LULTRA =        F    use ultrasoft PP ?                                      
   IUNSCR =        0    unscreen: 0-lin 1-nonlin 2-no                           
   RPACOR =     .000    partial core radius                                     
   POMASS =   16.000; ZVAL   =    6.000    mass and valenz                      
   RCORE  =    1.520    outmost cutoff radius                                   
   RWIGS  =    1.550; RWIGS  =     .820    wigner-seitz radius (au A)           
   ENMAX  =  400.000; ENMIN  =  300.000 eV                                      
   ICORE  =        2    local potential                                         
   LCOR   =        T    correct aug charges                                     
   LPAW   =        T    paw PP                                                  
   EAUG   =  605.392                                                            
   DEXC   =     .000                                                            
   RMAX   =    2.264    core radius for proj-oper                               
   RAUG   =    1.300    factor for augmentation sphere                          
   RDEP   =    1.550    radius for radial grids                                 
   QCUT   =   -5.520; QGAM   =   11.041    optimization parameters              
                                                                                
   Description                                                                  
     l     E      TYP  RCUT    TYP  RCUT                                        
     0   .000     23  1.200                                                     
     0  -.700     23  1.200                                                     
     1   .000     23  1.520                                                     
     1   .600     23  1.520                                                     
     2   .000      7  1.500                                                     
  local pseudopotential read in
  atomic valenz-charges read in
  non local Contribution for L=           0  read in
    real space projection operators read in
  non local Contribution for L=           0  read in
    real space projection operators read in
  non local Contribution for L=           1  read in
    real space projection operators read in
  non local Contribution for L=           1  read in
    real space projection operators read in
    PAW grid and wavefunctions read in
 
   number of l-projection  operators is LMAX  =           4
   number of lm-projection operators is LMMAX =           8
 
 Optimization of the real space projectors (new method)

 maximal supplied QI-value         = 18.33
 optimisation between [QCUT,QGAM] = [ 11.55, 23.28] = [ 37.34,151.76] Ry 
 Optimized for a Real-space Cutoff    1.32 Angstroem

   l    n(q)    QCUT    max X(q) W(low)/X(q) W(high)/X(q)  e(spline) 
   0      9    11.548     5.519    0.68E-05    0.20E-05    0.27E-07
   0      9    11.548    24.272    0.42E-04    0.24E-04    0.63E-07
   1      9    11.548     4.148    0.83E-04    0.77E-04    0.38E-06
   1      9    11.548    11.842    0.23E-03    0.17E-03    0.54E-06
 Optimization of the real space projectors (new method)

 maximal supplied QI-value         = 16.25
 optimisation between [QCUT,QGAM] = [ 11.54, 23.24] = [ 37.28,151.24] Ry 
 Optimized for a Real-space Cutoff    1.53 Angstroem

   l    n(q)    QCUT    max X(q) W(low)/X(q) W(high)/X(q)  e(spline) 
   1     10    11.539     4.093    0.14E-05    0.94E-06    0.35E-07
   1     10    11.539     5.163    0.38E-04    0.24E-04    0.17E-06
   2     10    11.539     4.144    0.87E-05    0.14E-04    0.48E-07
   2     10    11.539    35.116    0.12E-03    0.13E-03    0.25E-06
   0     11    11.539    20.431    0.20E-04    0.18E-05    0.19E-07
   0     11    11.539    61.159    0.37E-04    0.19E-04    0.29E-06
 Optimization of the real space projectors (new method)

 maximal supplied QI-value         = 24.76
 optimisation between [QCUT,QGAM] = [ 11.64, 23.27] = [ 37.91,151.63] Ry 
 Optimized for a Real-space Cutoff    1.08 Angstroem

   l    n(q)    QCUT    max X(q) W(low)/X(q) W(high)/X(q)  e(spline) 
   0      7    11.635     4.192    0.54E-04    0.80E-04    0.26E-07
   0      7    11.635     8.473    0.70E-04    0.40E-03    0.21E-06
   1      7    11.635     2.474    0.39E-04    0.14E-03    0.23E-07
   1      7    11.635     3.912    0.25E-03    0.37E-03    0.22E-06
 PAW_PBE Li_sv 23Jan2001                :
 energy of atom  1       EATOM= -202.7858
 kinetic energy error for atom=    0.0020 (will be added to EATOM!!)
 PAW_PBE Mn_pv 07Sep2000                :
 energy of atom  2       EATOM=-2024.8347
 kinetic energy error for atom=    0.0058 (will be added to EATOM!!)
 PAW_PBE O 08Apr2002                    :
 energy of atom  3       EATOM= -432.3788
 kinetic energy error for atom=    0.0208 (will be added to EATOM!!)
 
 
 POSCAR: Li1 Mn8 O16                             
  positions in direct lattice
  No initial velocities read in
 exchange correlation table for  LEXCH =        8
   RHO(1)=    0.500       N(1)  =     2000
   RHO(2)=  100.500       N(2)  =     4000
 


--------------------------------------------------------------------------------------------------------


 ion  position               nearest neighbor table
   1  0.262  0.240  0.251-  14 1.77  15 1.77  10 1.81   4 1.82  20 1.82   3 1.83
   2  0.750  0.500  0.375-  10 1.93  13 1.93  14 1.93  16 1.93  12 1.93  17 1.93   4 2.89   4 2.89
                             9 2.89   3 2.89   5 2.89   7 2.89
   3  0.000  0.250  0.125-   1 1.83  15 1.93  17 1.93  19 1.93  20 1.93  14 1.93  24 1.93   5 2.89
                             5 2.89   8 2.89   4 2.89   2 2.89   6 2.89
   4  0.250  0.500  0.375-   1 1.82  10 1.93  13 1.93  14 1.93  16 1.93  15 1.93  11 1.93   2 2.89
                             2 2.89   9 2.89   3 2.89   5 2.89   7 2.89
   5  0.000  0.750  0.125-  15 1.93  17 1.93  19 1.93  20 1.93  13 1.93  18 1.93   3 2.89   3 2.89
                             8 2.89   2 2.89   4 2.89   6 2.89
   6  0.250  0.000  0.875-  18 1.93  21 1.93  22 1.93  24 1.93  20 1.93  25 1.93   8 2.89   8 2.89
                             9 2.89   5 2.89   7 2.89   3 2.89
   7  0.500  0.750  0.625-  11 1.93  12 1.93  23 1.93  25 1.93  16 1.93  22 1.93   9 2.89   9 2.89
                             2 2.89   4 2.89   6 2.89   8 2.89
   8  0.750  0.000  0.875-  18 1.93  21 1.93  22 1.93  24 1.93  23 1.93  19 1.93   6 2.89   6 2.89
                             9 2.89   5 2.89   3 2.89   7 2.89
   9  0.500  0.250  0.625-  11 1.93  12 1.93  23 1.93  25 1.93  10 1.93  21 1.93   7 2.89   7 2.89
                             8 2.89   4 2.89   6 2.89   2 2.89
  10  0.500  0.279  0.391-   1 1.81   2 1.93   4 1.93   9 1.93
  11  0.279  0.500  0.609-   7 1.93   9 1.93   4 1.93
  12  0.721  0.500  0.609-   7 1.93   9 1.93   2 1.93
  13  0.000  0.721  0.359-   2 1.93   4 1.93   5 1.93
  14  0.000  0.279  0.359-   1 1.77   2 1.93   4 1.93   3 1.93
  15  0.221  0.500  0.141-   1 1.77   3 1.93   5 1.93   4 1.93
  16  0.500  0.721  0.391-   2 1.93   4 1.93   7 1.93
  17  0.779  0.500  0.141-   3 1.93   5 1.93   2 1.93
  18  0.000  0.779  0.891-   6 1.93   8 1.93   5 1.93
  19  0.779  0.000  0.109-   3 1.93   5 1.93   8 1.93
  20  0.221  0.000  0.109-   1 1.82   3 1.93   5 1.93   6 1.93
  21  0.500  0.221  0.859-   6 1.93   8 1.93   9 1.93
  22  0.500  0.779  0.859-   6 1.93   8 1.93   7 1.93
  23  0.721  0.000  0.641-   7 1.93   9 1.93   8 1.93
  24  0.000  0.221  0.891-   6 1.93   8 1.93   3 1.93
  25  0.279  0.000  0.641-   7 1.93   9 1.93   6 1.93
 

IMPORTANT INFORMATION: All symmetrisations will be switched off!
NOSYMM: (Re-)initialisation of all symmetry stuff for point group C_1.

 
 
 KPOINTS: pymatgen v2019.10.16 with grid density =

Automatic generation of k-mesh.
Space group operators:
 irot       det(A)        alpha          n_x          n_y          n_z        tau_x        tau_y        tau_z
    1     1.000000     0.000000     1.000000     0.000000     0.000000     0.000000     0.000000     0.000000
 
 Subroutine IBZKPT returns following result:
 ===========================================
 
 Found     26 irreducible k-points:
 
 Following reciprocal coordinates:
            Coordinates               Weight
  0.000000  0.000000  0.000000      1.000000
  0.250000  0.000000  0.000000      2.000000
  0.500000  0.000000  0.000000      1.000000
  0.000000  0.250000  0.000000      2.000000
  0.250000  0.250000  0.000000      2.000000
  0.500000  0.250000  0.000000      2.000000
 -0.250000  0.250000  0.000000      2.000000
  0.000000  0.500000  0.000000      1.000000
  0.250000  0.500000  0.000000      2.000000
  0.500000  0.500000  0.000000      1.000000
  0.000000  0.000000  0.333333      2.000000
  0.250000  0.000000  0.333333      2.000000
  0.500000  0.000000  0.333333      2.000000
 -0.250000  0.000000  0.333333      2.000000
  0.000000  0.250000  0.333333      2.000000
  0.250000  0.250000  0.333333      2.000000
  0.500000  0.250000  0.333333      2.000000
 -0.250000  0.250000  0.333333      2.000000
  0.000000  0.500000  0.333333      2.000000
  0.250000  0.500000  0.333333      2.000000
  0.500000  0.500000  0.333333      2.000000
 -0.250000  0.500000  0.333333      2.000000
  0.000000 -0.250000  0.333333      2.000000
  0.250000 -0.250000  0.333333      2.000000
  0.500000 -0.250000  0.333333      2.000000
 -0.250000 -0.250000  0.333333      2.000000
 
 Following cartesian coordinates:
            Coordinates               Weight
  0.000000  0.000000  0.000000      1.000000
  0.043323  0.000000  0.000000      2.000000
  0.086646  0.000000  0.000000      1.000000
  0.000000  0.043323  0.000000      2.000000
  0.043323  0.043323  0.000000      2.000000
  0.086646  0.043323  0.000000      2.000000
 -0.043323  0.043323  0.000000      2.000000
  0.000000  0.086646  0.000000      1.000000
  0.043323  0.086646  0.000000      2.000000
  0.086646  0.086646  0.000000      1.000000
  0.000000  0.000000  0.040601      2.000000
  0.043323  0.000000  0.040601      2.000000
  0.086646  0.000000  0.040601      2.000000
 -0.043323  0.000000  0.040601      2.000000
  0.000000  0.043323  0.040601      2.000000
  0.043323  0.043323  0.040601      2.000000
  0.086646  0.043323  0.040601      2.000000
 -0.043323  0.043323  0.040601      2.000000
  0.000000  0.086646  0.040601      2.000000
  0.043323  0.086646  0.040601      2.000000
  0.086646  0.086646  0.040601      2.000000
 -0.043323  0.086646  0.040601      2.000000
  0.000000 -0.043323  0.040601      2.000000
  0.043323 -0.043323  0.040601      2.000000
  0.086646 -0.043323  0.040601      2.000000
 -0.043323 -0.043323  0.040601      2.000000
 
 TETIRR: Found    144 inequivalent tetrahedra from      288


--------------------------------------------------------------------------------------------------------




 Dimension of arrays:
   k-points           NKPTS =     26   k-points in BZ     NKDIM =     26   number of bands    NBANDS=    150
   number of dos      NEDOS =    301   number of ions     NIONS =     25
   non local maximal  LDIM  =      6   non local SUM 2l+1 LMDIM =     18
   total plane-waves  NPLWV = 147456
   max r-space proj   IRMAX =   8202   max aug-charges    IRDMAX=  16563
   dimension x,y,z NGX =    48 NGY =   48 NGZ =   64
   dimension x,y,z NGXF=    96 NGYF=   96 NGZF=  128
   support grid    NGXF=    96 NGYF=   96 NGZF=  128
   ions per type =               1   8  16
   NGX,Y,Z   is equivalent  to a cutoff of  13.83, 13.83, 12.96 a.u.
   NGXF,Y,Z  is equivalent  to a cutoff of  27.66, 27.66, 25.92 a.u.

 SYSTEM =  unknown system                          
 POSCAR =  Li1 Mn8 O16                             

 Startparameter for this run:
   NWRITE =      2    write-flag & timer
   PREC   = accura    normal or accurate (medium, high low for compatibility)
   ISTART =      0    job   : 0-new  1-cont  2-samecut
   ICHARG =      1    charge: 1-file 2-atom 10-const
   ISPIN  =      2    spin polarized calculation?
   LNONCOLLINEAR =      F non collinear calculations
   LSORBIT =      F    spin-orbit coupling
   INIWAV =      1    electr: 0-lowe 1-rand  2-diag
   LASPH  =      F    aspherical Exc in radial PAW
   METAGGA=      F    non-selfconsistent MetaGGA calc.

 Electronic Relaxation 1
   ENCUT  =  520.0 eV  38.22 Ry    6.18 a.u.  10.73 10.73 15.27*2*pi/ulx,y,z
   ENINI  =  520.0     initial cutoff
   ENAUG  =  605.4 eV  augmentation charge cutoff
   NELM   =    100;   NELMIN=  1; NELMDL= -5     # of ELM steps 
   EDIFF  = 0.1E-01   stopping-criterion for ELM
   LREAL  =      T    real-space projection
   NLSPLINE    = F    spline interpolate recip. space projectors
   LCOMPAT=      F    compatible to vasp.4.4
   GGA_COMPAT  = T    GGA compatible to vasp.4.4-vasp.4.6
   LMAXPAW     = -100 max onsite density
   LMAXMIX     =    2 max onsite mixed and CHGCAR
   VOSKOWN=      0    Vosko Wilk Nusair interpolation
   ROPT   =   -0.00025  -0.00025  -0.00025
 Ionic relaxation
   EDIFFG = 0.0E+00   stopping-criterion for IOM
   NSW    =      0    number of steps for IOM
   NBLOCK =      1;   KBLOCK =      1    inner block; outer block 
   IBRION =     -1    ionic relax: 0-MD 1-quasi-New 2-CG
   NFREE  =      0    steps in history (QN), initial steepest desc. (CG)
   ISIF   =      2    stress and relaxation
   IWAVPR =     10    prediction:  0-non 1-charg 2-wave 3-comb
   ISYM   =      0    0-nonsym 1-usesym 2-fastsym
   LCORR  =      T    Harris-Foulkes like correction to forces

   POTIM  = 0.5000    time-step for ionic-motion
   TEIN   =    0.0    initial temperature
   TEBEG  =    0.0;   TEEND  =   0.0 temperature during run
   SMASS  =  -3.00    Nose mass-parameter (am)
   estimated Nose-frequenzy (Omega)   =  0.10E-29 period in steps =****** mass=  -0.761E-27a.u.
   SCALEE = 1.0000    scale energy and forces
   NPACO  =    256;   APACO  = 16.0  distance and # of slots for P.C.
   PSTRESS=    0.0 pullay stress

  Mass of Ions in am
   POMASS =   7.01 54.94 16.00
  Ionic Valenz
   ZVAL   =   3.00 13.00  6.00
  Atomic Wigner-Seitz radii
   RWIGS  =  -1.00 -1.00 -1.00
  virtual crystal weights 
   VCA    =   1.00  1.00  1.00
   NELECT =     203.0000    total number of electrons
   NUPDOWN=      -1.0000    fix difference up-down

 DOS related values:
   EMIN   =  10.00;   EMAX   =-10.00  energy-range for DOS
   EFERMI =   0.00
   ISMEAR =    -5;   SIGMA  =   0.05  broadening in eV -4-tet -1-fermi 0-gaus

 Electronic relaxation 2 (details)
   IALGO  =     68    algorithm
   LDIAG  =      T    sub-space diagonalisation (order eigenvalues)
   LSUBROT=      F    optimize rotation matrix (better conditioning)
   TURBO    =      0    0=normal 1=particle mesh
   IRESTART =      0    0=no restart 2=restart with 2 vectors
   NREBOOT  =      0    no. of reboots
   NMIN     =      0    reboot dimension
   EREF     =   0.00    reference energy to select bands
   IMIX   =      4    mixing-type and parameters
     AMIX     =   0.40;   BMIX     =  1.00
     AMIX_MAG =   1.60;   BMIX_MAG =  1.00
     AMIN     =   0.10
     WC   =   100.;   INIMIX=   1;  MIXPRE=   1;  MAXMIX= -45

 Intra band minimization:
   WEIMIN = 0.0000     energy-eigenvalue tresh-hold
   EBREAK =  0.00E+00  absolut break condition
   DEPER  =   0.30     relativ break condition  

   TIME   =   0.40     timestep for ELM

  volume/ion in A,a.u.               =      10.94        73.80
  Fermi-wavevector in a.u.,A,eV,Ry     =   1.482442  2.801409 29.900622  2.197634
  Thomas-Fermi vector in A             =   2.596227
 
 Write flags
   LWAVE        =      F    write WAVECAR
   LDOWNSAMPLE  =      F    k-point downsampling of WAVECAR
   LCHARG       =      T    write CHGCAR
   LVTOT        =      F    write LOCPOT, total local potential
   LVHAR        =      F    write LOCPOT, Hartree potential only
   LELF         =      F    write electronic localiz. function (ELF)
   LORBIT       =     11    0 simple, 1 ext, 2 COOP (PROOUT), +10 PAW based schemes


 Dipole corrections
   LMONO  =      F    monopole corrections only (constant potential shift)
   LDIPOL =      F    correct potential (dipole corrections)
   IDIPOL =      0    1-x, 2-y, 3-z, 4-all directions 
   EPSILON=  1.0000000 bulk dielectric constant

 Exchange correlation treatment:
   GGA     =    --    GGA type
   LEXCH   =     8    internal setting for exchange type
   VOSKOWN=      0    Vosko Wilk Nusair interpolation
   LHFCALC =     F    Hartree Fock is set to
   LHFONE  =     F    Hartree Fock one center treatment
   AEXX    =    0.0000 exact exchange contribution

 Linear response parameters
   LEPSILON=     F    determine dielectric tensor
   LRPA    =     F    only Hartree local field effects (RPA)
   LNABLA  =     F    use nabla operator in PAW spheres
   LVEL    =     F    velocity operator in full k-point grid
   LINTERFAST=   F  fast interpolation
   KINTER  =     0    interpolate to denser k-point grid
   CSHIFT  =0.1000    complex shift for real part using Kramers Kronig
   OMEGAMAX=  -1.0    maximum frequency
   DEG_THRESHOLD= 0.2000000E-02 threshold for treating states as degnerate
   RTIME   =   -0.100 relaxation time in fs
  (WPLASMAI=    0.000 imaginary part of plasma frequency in eV, 0.658/RTIME)
   DFIELD  = 0.0000000 0.0000000 0.0000000 field for delta impulse in time
 
 Orbital magnetization related:
   ORBITALMAG=     F  switch on orbital magnetization
   LCHIMAG   =     F  perturbation theory with respect to B field
   DQ        =  0.001000  dq finite difference perturbation B field
   LLRAUG    =     F  two centre corrections for induced B field



--------------------------------------------------------------------------------------------------------


 Static calculation
 charge density and potential will be updated during run
 spin polarized calculation
 RMM-DIIS sequential band-by-band and
  variant of blocked Davidson during initial phase
 perform sub-space diagonalisation
    before iterative eigenvector-optimisation
 modified Broyden-mixing scheme, WC =      100.0
 initial mixing is a Kerker type mixing with AMIX =  0.4000 and BMIX =      1.0000
 Hartree-type preconditioning will be used
 using additional bands           48
 real space projection scheme for non local part
 use partial core corrections
 calculate Harris-corrections to forces 
   (improved forces if not selfconsistent)
 use gradient corrections 
 use of overlap-Matrix (Vanderbilt PP)
 Fermi weights with tetrahedron method with Bloechl corrections


--------------------------------------------------------------------------------------------------------


  energy-cutoff  :      520.00
  volume of cell :      273.39
      direct lattice vectors                 reciprocal lattice vectors
     5.770635000  0.000000000  0.000000000     0.173291154  0.000000000  0.000000000
     0.000000000  5.770635000  0.000000000     0.000000000  0.173291154  0.000000000
     0.000000000  0.000000000  8.209947000     0.000000000  0.000000000  0.121803466

  length of vectors
     5.770635000  5.770635000  8.209947000     0.173291154  0.173291154  0.121803466


 
 k-points in units of 2pi/SCALE and weight: pymatgen v2019.10.16 with grid density =
   0.00000000  0.00000000  0.00000000       0.021
   0.04332279  0.00000000  0.00000000       0.042
   0.08664558  0.00000000  0.00000000       0.021
   0.00000000  0.04332279  0.00000000       0.042
   0.04332279  0.04332279  0.00000000       0.042
   0.08664558  0.04332279  0.00000000       0.042
  -0.04332279  0.04332279  0.00000000       0.042
   0.00000000  0.08664558  0.00000000       0.021
   0.04332279  0.08664558  0.00000000       0.042
   0.08664558  0.08664558  0.00000000       0.021
   0.00000000  0.00000000  0.04060116       0.042
   0.04332279  0.00000000  0.04060116       0.042
   0.08664558  0.00000000  0.04060116       0.042
  -0.04332279  0.00000000  0.04060116       0.042
   0.00000000  0.04332279  0.04060116       0.042
   0.04332279  0.04332279  0.04060116       0.042
   0.08664558  0.04332279  0.04060116       0.042
  -0.04332279  0.04332279  0.04060116       0.042
   0.00000000  0.08664558  0.04060116       0.042
   0.04332279  0.08664558  0.04060116       0.042
   0.08664558  0.08664558  0.04060116       0.042
  -0.04332279  0.08664558  0.04060116       0.042
   0.00000000 -0.04332279  0.04060116       0.042
   0.04332279 -0.04332279  0.04060116       0.042
   0.08664558 -0.04332279  0.04060116       0.042
  -0.04332279 -0.04332279  0.04060116       0.042
 
 k-points in reciprocal lattice and weights: pymatgen v2019.10.16 with grid density =
   0.00000000  0.00000000  0.00000000       0.021
   0.25000000  0.00000000  0.00000000       0.042
   0.50000000  0.00000000  0.00000000       0.021
   0.00000000  0.25000000  0.00000000       0.042
   0.25000000  0.25000000  0.00000000       0.042
   0.50000000  0.25000000  0.00000000       0.042
  -0.25000000  0.25000000  0.00000000       0.042
   0.00000000  0.50000000  0.00000000       0.021
   0.25000000  0.50000000  0.00000000       0.042
   0.50000000  0.50000000  0.00000000       0.021
   0.00000000  0.00000000  0.33333333       0.042
   0.25000000  0.00000000  0.33333333       0.042
   0.50000000  0.00000000  0.33333333       0.042
  -0.25000000  0.00000000  0.33333333       0.042
   0.00000000  0.25000000  0.33333333       0.042
   0.25000000  0.25000000  0.33333333       0.042
   0.50000000  0.25000000  0.33333333       0.042
  -0.25000000  0.25000000  0.33333333       0.042
   0.00000000  0.50000000  0.33333333       0.042
   0.25000000  0.50000000  0.33333333       0.042
   0.50000000  0.50000000  0.33333333       0.042
  -0.25000000  0.50000000  0.33333333       0.042
   0.00000000 -0.25000000  0.33333333       0.042
   0.25000000 -0.25000000  0.33333333       0.042
   0.50000000 -0.25000000  0.33333333       0.042
  -0.25000000 -0.25000000  0.33333333       0.042
 
 position of ions in fractional coordinates (direct lattice) 
   0.26176200  0.23964000  0.25080100
   0.75000000  0.50000000  0.37500000
   0.00000000  0.25000000  0.12500000
   0.25000000  0.50000000  0.37500000
   0.00000000  0.75000000  0.12500000
   0.25000000  0.00000000  0.87500000
   0.50000000  0.75000000  0.62500000
   0.75000000  0.00000000  0.87500000
   0.50000000  0.25000000  0.62500000
   0.50000000  0.27918000  0.39075200
   0.27918000  0.50000000  0.60924800
   0.72082000  0.50000000  0.60924800
   0.00000000  0.72082000  0.35924800
   0.00000000  0.27918000  0.35924800
   0.22082000  0.50000000  0.14075200
   0.50000000  0.72082000  0.39075200
   0.77918000  0.50000000  0.14075200
   0.00000000  0.77918000  0.89075200
   0.77918000  0.00000000  0.10924800
   0.22082000  0.00000000  0.10924800
   0.50000000  0.22082000  0.85924800
   0.50000000  0.77918000  0.85924800
   0.72082000  0.00000000  0.64075200
   0.00000000  0.22082000  0.89075200
   0.27918000  0.00000000  0.64075200
 
 position of ions in cartesian coordinates  (Angst):
   1.51053296  1.38287497  2.05906292
   4.32797625  2.88531750  3.07873012
   0.00000000  1.44265875  1.02624337
   1.44265875  2.88531750  3.07873012
   0.00000000  4.32797625  1.02624337
   1.44265875  0.00000000  7.18370362
   2.88531750  4.32797625  5.13121687
   4.32797625  0.00000000  7.18370362
   2.88531750  1.44265875  5.13121687
   2.88531750  1.61104588  3.20805321
   1.61104588  2.88531750  5.00189379
   4.15958912  2.88531750  5.00189379
   0.00000000  4.15958912  2.94940704
   0.00000000  1.61104588  2.94940704
   1.27427162  2.88531750  1.15556646
   2.88531750  4.15958912  3.20805321
   4.49636338  2.88531750  1.15556646
   0.00000000  4.49636338  7.31302671
   4.49636338  0.00000000  0.89692029
   1.27427162  0.00000000  0.89692029
   2.88531750  1.27427162  7.05438054
   2.88531750  4.49636338  7.05438054
   4.15958912  0.00000000  5.26053996
   0.00000000  1.27427162  7.31302671
   1.61104588  0.00000000  5.26053996
 


--------------------------------------------------------------------------------------------------------


 k-point  1 :   0.0000 0.0000 0.0000  plane waves:    7395
 k-point  2 :   0.2500 0.0000 0.0000  plane waves:    7381
 k-point  3 :   0.5000 0.0000 0.0000  plane waves:    7382
 k-point  4 :   0.0000 0.2500 0.0000  plane waves:    7381
 k-point  5 :   0.2500 0.2500 0.0000  plane waves:    7355
 k-point  6 :   0.5000 0.2500 0.0000  plane waves:    7358
 k-point  7 :  -0.2500 0.2500 0.0000  plane waves:    7355
 k-point  8 :   0.0000 0.5000 0.0000  plane waves:    7382
 k-point  9 :   0.2500 0.5000 0.0000  plane waves:    7358
 k-point 10 :   0.5000 0.5000 0.0000  plane waves:    7384
 k-point 11 :   0.0000 0.0000 0.3333  plane waves:    7330
 k-point 12 :   0.2500 0.0000 0.3333  plane waves:    7359
 k-point 13 :   0.5000 0.0000 0.3333  plane waves:    7362
 k-point 14 :  -0.2500 0.0000 0.3333  plane waves:    7359
 k-point 15 :   0.0000 0.2500 0.3333  plane waves:    7359
 k-point 16 :   0.2500 0.2500 0.3333  plane waves:    7352
 k-point 17 :   0.5000 0.2500 0.3333  plane waves:    7350
 k-point 18 :  -0.2500 0.2500 0.3333  plane waves:    7352
 k-point 19 :   0.0000 0.5000 0.3333  plane waves:    7362
 k-point 20 :   0.2500 0.5000 0.3333  plane waves:    7350
 k-point 21 :   0.5000 0.5000 0.3333  plane waves:    7356
 k-point 22 :  -0.2500 0.5000 0.3333  plane waves:    7350
 k-point 23 :   0.0000-0.2500 0.3333  plane waves:    7359
 k-point 24 :   0.2500-0.2500 0.3333  plane waves:    7352
 k-point 25 :   0.5000-0.2500 0.3333  plane waves:    7350
 k-point 26 :  -0.2500-0.2500 0.3333  plane waves:    7352

 maximum and minimum number of plane-waves per node :      7395     7330

 maximum number of plane-waves:      7395
 maximum index in each direction: 
   IXMAX=   10   IYMAX=   10   IZMAX=   15
   IXMIN=  -11   IYMIN=  -11   IZMIN=  -15


 serial   3D FFT for wavefunctions
 parallel 3D FFT for charge:
    minimum data exchange during FFTs selected (reduces bandwidth)


 total amount of memory used by VASP MPI-rank0   244218. kBytes
=======================================================================

   base      :      30000. kBytes
   nonlr-proj:      17010. kBytes
   fftplans  :       7295. kBytes
   grid      :      29392. kBytes
   one-center:        777. kBytes
   wavefun   :     159744. kBytes
 
     INWAV:  cpu time    0.0000: real time    0.0000
 Broyden mixing: mesh for mixing (old mesh)
   NGX = 21   NGY = 21   NGZ = 31
  (NGX  = 96   NGY  = 96   NGZ  =128)
  gives a total of  13671 points

 initial charge density was supplied:
 charge density of overlapping atoms calculated
 number of electron     203.0000000 magnetization      50.2000000
 keeping initial charge density in first step


--------------------------------------------------------------------------------------------------------


 Maximum index for non-local projection operator         7951
 Maximum index for augmentation-charges         2679 (set IRDMAX)


--------------------------------------------------------------------------------------------------------


 First call to EWALD:  gamma=   0.273
 Maximum number of real-space cells 3x 3x 2
 Maximum number of reciprocal cells 2x 2x 3

    FEWALD:  cpu time    0.0016: real time    0.0016


--------------------------------------- Iteration      1(   1)  ---------------------------------------


    POTLOK:  cpu time    0.2724: real time    0.2743
    SETDIJ:  cpu time    0.0239: real time    0.0239
     EDDAV:  cpu time   64.8363: real time   65.1722
 BZINTS: Fermi energy: 25.164168;203.000000 electrons
         Band energy: 641.169773;  BLOECHL correction: -0.089758
       DOS:  cpu time    0.0607: real time    0.0610
    --------------------------------------------
      LOOP:  cpu time   65.1933: real time   65.5314

 eigenvalue-minimisations  : 15732
 total energy-change (2. order) : 0.3336425E+04  (-0.1007645E+05)
 number of electron     203.0000000 magnetization      50.2000000
 augmentation part      203.0000000 magnetization      50.2000000

 Free energy of the ion-electron system (eV)
  ---------------------------------------------------
  alpha Z        PSCENC =      1096.51130837
  Ewald energy   TEWEN  =    -13348.55588529
  -Hartree energ DENC   =     -8939.72880143
  -exchange      EXHF   =         0.00000000
  -V(xc)+E(xc)   XCENC  =      1023.90547228
  PAW double counting   =     15913.62944871   -16369.64932519
  entropy T*S    EENTRO =         0.00000000
  eigenvalues    EBANDS =       641.16977327
  atomic energy  EATOM  =     23319.14298724
  Solvation  Ediel_sol  =         0.00000000
  ---------------------------------------------------
  free energy    TOTEN  =      3336.42497794 eV

  energy without entropy =     3336.42497794  energy(sigma->0) =     3336.42497794


--------------------------------------------------------------------------------------------------------




--------------------------------------- Iteration      1(   2)  ---------------------------------------


     EDDAV:  cpu time   65.5320: real time   65.9468
 BZINTS: Fermi energy:  8.793908;203.000000 electrons
         Band energy:***********;  BLOECHL correction: -0.058671
       DOS:  cpu time    0.0574: real time    0.0577
    --------------------------------------------
      LOOP:  cpu time   65.5894: real time   66.0045

 eigenvalue-minimisations  : 15780
 total energy-change (2. order) :-0.2974363E+04  (-0.2714409E+04)
 number of electron     203.0000000 magnetization      50.2000000
 augmentation part      203.0000000 magnetization      50.2000000

 Free energy of the ion-electron system (eV)
  ---------------------------------------------------
  alpha Z        PSCENC =      1096.51130837
  Ewald energy   TEWEN  =    -13348.55588529
  -Hartree energ DENC   =     -8939.72880143
  -exchange      EXHF   =         0.00000000
  -V(xc)+E(xc)   XCENC  =      1023.90547228
  PAW double counting   =     15913.62944871   -16369.64932519
  entropy T*S    EENTRO =         0.00000000
  eigenvalues    EBANDS =     -2333.19357263
  atomic energy  EATOM  =     23319.14298724
  Solvation  Ediel_sol  =         0.00000000
  ---------------------------------------------------
  free energy    TOTEN  =       362.06163205 eV

  energy without entropy =      362.06163205  energy(sigma->0) =      362.06163205


--------------------------------------------------------------------------------------------------------




--------------------------------------- Iteration      1(   3)  ---------------------------------------


     EDDAV:  cpu time   66.9691: real time   67.3570
 BZINTS: Fermi energy:  5.025530;203.000000 electrons
         Band energy:***********;  BLOECHL correction: -0.004307
       DOS:  cpu time    0.0601: real time    0.0601
    --------------------------------------------
      LOOP:  cpu time   67.0292: real time   67.4171

 eigenvalue-minimisations  : 16422
 total energy-change (2. order) :-0.5494157E+03  (-0.4906429E+03)
 number of electron     203.0000000 magnetization      50.2000000
 augmentation part      203.0000000 magnetization      50.2000000

 Free energy of the ion-electron system (eV)
  ---------------------------------------------------
  alpha Z        PSCENC =      1096.51130837
  Ewald energy   TEWEN  =    -13348.55588529
  -Hartree energ DENC   =     -8939.72880143
  -exchange      EXHF   =         0.00000000
  -V(xc)+E(xc)   XCENC  =      1023.90547228
  PAW double counting   =     15913.62944871   -16369.64932519
  entropy T*S    EENTRO =         0.00000000
  eigenvalues    EBANDS =     -2882.60930564
  atomic energy  EATOM  =     23319.14298724
  Solvation  Ediel_sol  =         0.00000000
  ---------------------------------------------------
  free energy    TOTEN  =      -187.35410097 eV

  energy without entropy =     -187.35410097  energy(sigma->0) =     -187.35410097


--------------------------------------------------------------------------------------------------------




--------------------------------------- Iteration      1(   4)  ---------------------------------------


     EDDAV:  cpu time   87.1896: real time   87.6606
 BZINTS: Fermi energy:  4.663020;203.000000 electrons
         Band energy:***********;  BLOECHL correction: -0.005734
       DOS:  cpu time    0.0700: real time    0.0701
    --------------------------------------------
      LOOP:  cpu time   87.2596: real time   87.7307

 eigenvalue-minimisations  : 22668
 total energy-change (2. order) :-0.5471224E+02  (-0.5350110E+02)
 number of electron     203.0000000 magnetization      50.2000000
 augmentation part      203.0000000 magnetization      50.2000000

 Free energy of the ion-electron system (eV)
  ---------------------------------------------------
  alpha Z        PSCENC =      1096.51130837
  Ewald energy   TEWEN  =    -13348.55588529
  -Hartree energ DENC   =     -8939.72880143
  -exchange      EXHF   =         0.00000000
  -V(xc)+E(xc)   XCENC  =      1023.90547228
  PAW double counting   =     15913.62944871   -16369.64932519
  entropy T*S    EENTRO =         0.00000000
  eigenvalues    EBANDS =     -2937.32154205
  atomic energy  EATOM  =     23319.14298724
  Solvation  Ediel_sol  =         0.00000000
  ---------------------------------------------------
  free energy    TOTEN  =      -242.06633738 eV

  energy without entropy =     -242.06633738  energy(sigma->0) =     -242.06633738


--------------------------------------------------------------------------------------------------------




--------------------------------------- Iteration      1(   5)  ---------------------------------------


     EDDAV:  cpu time   86.6971: real time   87.1398
 BZINTS: Fermi energy:  4.651936;203.000000 electrons
         Band energy:***********;  BLOECHL correction: -0.004972
       DOS:  cpu time    0.0762: real time    0.0764
    CHARGE:  cpu time    2.3623: real time    2.3826
    MIXING:  cpu time    0.0104: real time    0.0104
    --------------------------------------------
      LOOP:  cpu time   89.1461: real time   89.6093

 eigenvalue-minimisations  : 22596
 total energy-change (2. order) :-0.1205511E+01  (-0.1200081E+01)
 number of electron     202.9999993 magnetization      35.3071723
 augmentation part       64.3574896 magnetization      26.4148842

 Broyden mixing:
  rms(total) = 0.66801E+01    rms(broyden)= 0.66776E+01
  rms(prec ) = 0.89971E+01
  weight for this iteration     100.00

 Free energy of the ion-electron system (eV)
  ---------------------------------------------------
  alpha Z        PSCENC =      1096.51130837
  Ewald energy   TEWEN  =    -13348.55588529
  -Hartree energ DENC   =     -8939.72880143
  -exchange      EXHF   =         0.00000000
  -V(xc)+E(xc)   XCENC  =      1023.90547228
  PAW double counting   =     15913.62944871   -16369.64932519
  entropy T*S    EENTRO =         0.00000000
  eigenvalues    EBANDS =     -2938.52705278
  atomic energy  EATOM  =     23319.14298724
  Solvation  Ediel_sol  =         0.00000000
  ---------------------------------------------------
  free energy    TOTEN  =      -243.27184811 eV

  energy without entropy =     -243.27184811  energy(sigma->0) =     -243.27184811


--------------------------------------------------------------------------------------------------------




--------------------------------------- Iteration      1(   6)  ---------------------------------------


    POTLOK:  cpu time    0.3054: real time    0.3081
    SETDIJ:  cpu time    0.0251: real time    0.0251
    EDDIAG:  cpu time    9.8370: real time    9.8887
  RMM-DIIS:  cpu time   58.8851: real time   59.2253
    ORTHCH:  cpu time    0.8836: real time    0.8867
 BZINTS: Fermi energy:  1.005611;203.000000 electrons
         Band energy:***********;  BLOECHL correction: -0.048318
       DOS:  cpu time    0.0739: real time    0.0741
    CHARGE:  cpu time    2.2781: real time    2.2859
    MIXING:  cpu time    0.0087: real time    0.0087
    --------------------------------------------
      LOOP:  cpu time   72.2969: real time   72.7026

 eigenvalue-minimisations  : 19008
 total energy-change (2. order) : 0.2341029E+01  (-0.4388007E+02)
 number of electron     202.9999899 magnetization      30.3253908
 augmentation part       82.1662300 magnetization      24.2619267

 Broyden mixing:
  rms(total) = 0.96381E+01    rms(broyden)= 0.96361E+01
  rms(prec ) = 0.14018E+02
  weight for this iteration     100.00

 eigenvalues of (default mixing * dielectric matrix)
  average eigenvalue GAMMA=   0.4452
  0.4452

 Free energy of the ion-electron system (eV)
  ---------------------------------------------------
  alpha Z        PSCENC =      1096.51130837
  Ewald energy   TEWEN  =    -13348.55588529
  -Hartree energ DENC   =     -8590.01853432
  -exchange      EXHF   =         0.00000000
  -V(xc)+E(xc)   XCENC  =      1018.46259094
  PAW double counting   =     15676.17641979   -16128.86881611
  entropy T*S    EENTRO =         0.00000000
  eigenvalues    EBANDS =     -3283.78088970
  atomic energy  EATOM  =     23319.14298724
  Solvation  Ediel_sol  =         0.00000000
  ---------------------------------------------------
  free energy    TOTEN  =      -240.93081908 eV

  energy without entropy =     -240.93081908  energy(sigma->0) =     -240.93081908


--------------------------------------------------------------------------------------------------------




--------------------------------------- Iteration      1(   7)  ---------------------------------------


    POTLOK:  cpu time    0.2956: real time    0.2967
    SETDIJ:  cpu time    0.0296: real time    0.0297
    EDDIAG:  cpu time    9.8381: real time    9.8967
  RMM-DIIS:  cpu time   67.4327: real time   67.8321
    ORTHCH:  cpu time    0.7950: real time    0.7993
 BZINTS: Fermi energy:  3.611686;203.000000 electrons
         Band energy:***********;  BLOECHL correction: -0.010360
       DOS:  cpu time    0.0727: real time    0.0730
    CHARGE:  cpu time    2.1444: real time    2.1537
    MIXING:  cpu time    0.0077: real time    0.0077
    --------------------------------------------
      LOOP:  cpu time   80.6158: real time   81.0889

 eigenvalue-minimisations  : 21718
 total energy-change (2. order) : 0.4762938E+02  (-0.9106676E+01)
 number of electron     202.9999975 magnetization      26.7693347
 augmentation part       65.7211022 magnetization      19.5082231

 Broyden mixing:
  rms(total) = 0.44276E+01    rms(broyden)= 0.44253E+01
  rms(prec ) = 0.65792E+01
  weight for this iteration     100.00

 eigenvalues of (default mixing * dielectric matrix)
  average eigenvalue GAMMA=   0.5146
  0.7550  0.2742

 Free energy of the ion-electron system (eV)
  ---------------------------------------------------
  alpha Z        PSCENC =      1096.51130837
  Ewald energy   TEWEN  =    -13348.55588529
  -Hartree energ DENC   =     -8901.54393318
  -exchange      EXHF   =         0.00000000
  -V(xc)+E(xc)   XCENC  =      1018.44494364
  PAW double counting   =     16381.95352276   -16864.94066157
  entropy T*S    EENTRO =         0.00000000
  eigenvalues    EBANDS =     -2894.31371946
  atomic energy  EATOM  =     23319.14298724
  Solvation  Ediel_sol  =         0.00000000
  ---------------------------------------------------
  free energy    TOTEN  =      -193.30143749 eV

  energy without entropy =     -193.30143749  energy(sigma->0) =     -193.30143749


--------------------------------------------------------------------------------------------------------




--------------------------------------- Iteration      1(   8)  ---------------------------------------


    POTLOK:  cpu time    0.2631: real time    0.2637
    SETDIJ:  cpu time    0.0230: real time    0.0230
    EDDIAG:  cpu time   10.0115: real time   10.0489
  RMM-DIIS:  cpu time   59.5455: real time   59.8418
    ORTHCH:  cpu time    0.7279: real time    0.7304
 BZINTS: Fermi energy:  3.217911;203.000000 electrons
         Band energy:***********;  BLOECHL correction: -0.003955
       DOS:  cpu time    0.0632: real time    0.0632
    CHARGE:  cpu time    2.0534: real time    2.0595
    MIXING:  cpu time    0.0087: real time    0.0088
    --------------------------------------------
      LOOP:  cpu time   72.6963: real time   73.0394

 eigenvalue-minimisations  : 19358
 total energy-change (2. order) :-0.9023311E+01  (-0.1150508E+01)
 number of electron     202.9999972 magnetization      24.2326319
 augmentation part       66.3917777 magnetization      18.1151929

 Broyden mixing:
  rms(total) = 0.46832E+01    rms(broyden)= 0.46822E+01
  rms(prec ) = 0.72072E+01
  weight for this iteration     100.00

 eigenvalues of (default mixing * dielectric matrix)
  average eigenvalue GAMMA=   0.3849
  0.7720  0.2725  0.1103

 Free energy of the ion-electron system (eV)
  ---------------------------------------------------
  alpha Z        PSCENC =      1096.51130837
  Ewald energy   TEWEN  =    -13348.55588529
  -Hartree energ DENC   =     -8874.47383121
  -exchange      EXHF   =         0.00000000
  -V(xc)+E(xc)   XCENC  =      1015.72486143
  PAW double counting   =     16447.54239979   -16935.10014614
  entropy T*S    EENTRO =         0.00000000
  eigenvalues    EBANDS =     -2923.11644266
  atomic energy  EATOM  =     23319.14298724
  Solvation  Ediel_sol  =         0.00000000
  ---------------------------------------------------
  free energy    TOTEN  =      -202.32474847 eV

  energy without entropy =     -202.32474847  energy(sigma->0) =     -202.32474847


--------------------------------------------------------------------------------------------------------




--------------------------------------- Iteration      1(   9)  ---------------------------------------


    POTLOK:  cpu time    0.2677: real time    0.2692
    SETDIJ:  cpu time    0.0291: real time    0.0291
    EDDIAG:  cpu time    9.9505: real time   10.0016
  RMM-DIIS:  cpu time   60.0904: real time   60.4392
    ORTHCH:  cpu time    0.9137: real time    0.9174
 BZINTS: Fermi energy:  3.168423;203.000000 electrons
         Band energy:***********;  BLOECHL correction: -0.024021
       DOS:  cpu time    0.0673: real time    0.0677
    CHARGE:  cpu time    2.1449: real time    2.1543
    MIXING:  cpu time    0.0084: real time    0.0085
    --------------------------------------------
      LOOP:  cpu time   73.4719: real time   73.8869

 eigenvalue-minimisations  : 19475
 total energy-change (2. order) : 0.1389166E+02  (-0.4686238E+00)
 number of electron     202.9999969 magnetization      23.7727564
 augmentation part       66.8809122 magnetization      16.3564389

 Broyden mixing:
  rms(total) = 0.22822E+01    rms(broyden)= 0.22809E+01
  rms(prec ) = 0.31372E+01
  weight for this iteration     100.00

 eigenvalues of (default mixing * dielectric matrix)
  average eigenvalue GAMMA=   0.3994
  0.6835  0.3786  0.3786  0.1569

 Free energy of the ion-electron system (eV)
  ---------------------------------------------------
  alpha Z        PSCENC =      1096.51130837
  Ewald energy   TEWEN  =    -13348.55588529
  -Hartree energ DENC   =     -8837.56349110
  -exchange      EXHF   =         0.00000000
  -V(xc)+E(xc)   XCENC  =      1014.25308477
  PAW double counting   =     16461.18454957   -16950.83347145
  entropy T*S    EENTRO =         0.00000000
  eigenvalues    EBANDS =     -2942.57217003
  atomic energy  EATOM  =     23319.14298724
  Solvation  Ediel_sol  =         0.00000000
  ---------------------------------------------------
  free energy    TOTEN  =      -188.43308792 eV

  energy without entropy =     -188.43308792  energy(sigma->0) =     -188.43308792


--------------------------------------------------------------------------------------------------------




--------------------------------------- Iteration      1(  10)  ---------------------------------------


    POTLOK:  cpu time    0.2709: real time    0.2722
    SETDIJ:  cpu time    0.0238: real time    0.0240
    EDDIAG:  cpu time    9.8447: real time    9.8946
  RMM-DIIS:  cpu time   56.0419: real time   56.3840
    ORTHCH:  cpu time    0.7315: real time    0.7351
 BZINTS: Fermi energy:  2.661250;203.000000 electrons
         Band energy:***********;  BLOECHL correction: -0.004474
       DOS:  cpu time    0.0681: real time    0.0682
    CHARGE:  cpu time    2.1248: real time    2.1353
    MIXING:  cpu time    0.0100: real time    0.0100
    --------------------------------------------
      LOOP:  cpu time   69.1157: real time   69.5233

 eigenvalue-minimisations  : 18190
 total energy-change (2. order) :-0.2692631E+01  (-0.4187864E+00)
 number of electron     202.9999966 magnetization      23.4811904
 augmentation part       67.3629246 magnetization      16.6436211

 Broyden mixing:
  rms(total) = 0.23847E+01    rms(broyden)= 0.23840E+01
  rms(prec ) = 0.37077E+01
  weight for this iteration     100.00

 eigenvalues of (default mixing * dielectric matrix)
  average eigenvalue GAMMA=   0.3552
  0.6664  0.4041  0.4041  0.1691  0.1323

 Free energy of the ion-electron system (eV)
  ---------------------------------------------------
  alpha Z        PSCENC =      1096.51130837
  Ewald energy   TEWEN  =    -13348.55588529
  -Hartree energ DENC   =     -8815.23401916
  -exchange      EXHF   =         0.00000000
  -V(xc)+E(xc)   XCENC  =      1012.96051203
  PAW double counting   =     16472.54844529   -16962.67085848
  entropy T*S    EENTRO =         0.00000000
  eigenvalues    EBANDS =     -2965.82820929
  atomic energy  EATOM  =     23319.14298724
  Solvation  Ediel_sol  =         0.00000000
  ---------------------------------------------------
  free energy    TOTEN  =      -191.12571928 eV

  energy without entropy =     -191.12571928  energy(sigma->0) =     -191.12571928


--------------------------------------------------------------------------------------------------------




--------------------------------------- Iteration      1(  11)  ---------------------------------------


    POTLOK:  cpu time    0.2914: real time    0.2930
    SETDIJ:  cpu time    0.0280: real time    0.0280
    EDDIAG:  cpu time   10.0102: real time   10.0616
  RMM-DIIS:  cpu time   55.1000: real time   55.4310
    ORTHCH:  cpu time    0.7259: real time    0.7291
 BZINTS: Fermi energy:  2.672351;203.000000 electrons
         Band energy:***********;  BLOECHL correction: -0.020430
       DOS:  cpu time    0.0636: real time    0.0638
    CHARGE:  cpu time    2.0787: real time    2.0886
    MIXING:  cpu time    0.0091: real time    0.0092
    --------------------------------------------
      LOOP:  cpu time   68.3070: real time   68.7043

 eigenvalue-minimisations  : 17850
 total energy-change (2. order) : 0.6840643E-01  (-0.2023064E+00)
 number of electron     202.9999965 magnetization      24.0617964
 augmentation part       67.5560762 magnetization      16.4820783

 Broyden mixing:
  rms(total) = 0.14642E+01    rms(broyden)= 0.14634E+01
  rms(prec ) = 0.18714E+01
  weight for this iteration     100.00

 eigenvalues of (default mixing * dielectric matrix)
  average eigenvalue GAMMA=   0.4295
  0.7083  0.7083  0.5801  0.2901  0.1725  0.1177

 Free energy of the ion-electron system (eV)
  ---------------------------------------------------
  alpha Z        PSCENC =      1096.51130837
  Ewald energy   TEWEN  =    -13348.55588529
  -Hartree energ DENC   =     -8801.12432319
  -exchange      EXHF   =         0.00000000
  -V(xc)+E(xc)   XCENC  =      1012.34840620
  PAW double counting   =     16485.28337141   -16976.32838888
  entropy T*S    EENTRO =         0.00000000
  eigenvalues    EBANDS =     -2978.33478871
  atomic energy  EATOM  =     23319.14298724
  Solvation  Ediel_sol  =         0.00000000
  ---------------------------------------------------
  free energy    TOTEN  =      -191.05731285 eV

  energy without entropy =     -191.05731285  energy(sigma->0) =     -191.05731285


--------------------------------------------------------------------------------------------------------




--------------------------------------- Iteration      1(  12)  ---------------------------------------


    POTLOK:  cpu time    0.2628: real time    0.2643
    SETDIJ:  cpu time    0.0290: real time    0.0294
    EDDIAG:  cpu time   10.0606: real time   10.1518
  RMM-DIIS:  cpu time   55.4907: real time   55.8595
    ORTHCH:  cpu time    0.7290: real time    0.7324
 BZINTS: Fermi energy:  2.838523;203.000000 electrons
         Band energy:***********;  BLOECHL correction: -0.027208
       DOS:  cpu time    0.0609: real time    0.0609
    CHARGE:  cpu time    2.2729: real time    2.2873
    MIXING:  cpu time    0.0089: real time    0.0090
    --------------------------------------------
      LOOP:  cpu time   68.9148: real time   69.3945

 eigenvalue-minimisations  : 18002
 total energy-change (2. order) :-0.1488009E+01  (-0.2135374E+00)
 number of electron     202.9999964 magnetization      24.2203553
 augmentation part       67.7557336 magnetization      16.8949875

 Broyden mixing:
  rms(total) = 0.10619E+01    rms(broyden)= 0.10617E+01
  rms(prec ) = 0.14564E+01
  weight for this iteration     100.00

 eigenvalues of (default mixing * dielectric matrix)
  average eigenvalue GAMMA=   0.4705
  0.8566  0.8566  0.5998  0.3386  0.3386  0.1771  0.1263

 Free energy of the ion-electron system (eV)
  ---------------------------------------------------
  alpha Z        PSCENC =      1096.51130837
  Ewald energy   TEWEN  =    -13348.55588529
  -Hartree energ DENC   =     -8784.54656541
  -exchange      EXHF   =         0.00000000
  -V(xc)+E(xc)   XCENC  =      1012.13748716
  PAW double counting   =     16501.13048814   -16993.47777726
  entropy T*S    EENTRO =         0.00000000
  eigenvalues    EBANDS =     -2994.88736463
  atomic energy  EATOM  =     23319.14298724
  Solvation  Ediel_sol  =         0.00000000
  ---------------------------------------------------
  free energy    TOTEN  =      -192.54532169 eV

  energy without entropy =     -192.54532169  energy(sigma->0) =     -192.54532169


--------------------------------------------------------------------------------------------------------




--------------------------------------- Iteration      1(  13)  ---------------------------------------


    POTLOK:  cpu time    0.2913: real time    0.2923
    SETDIJ:  cpu time    0.0294: real time    0.0296
    EDDIAG:  cpu time    9.9055: real time    9.9598
  RMM-DIIS:  cpu time   55.8175: real time   56.0518
    ORTHCH:  cpu time    0.7123: real time    0.7143
 BZINTS: Fermi energy:  2.717065;203.000000 electrons
         Band energy:***********;  BLOECHL correction: -0.027408
       DOS:  cpu time    0.0618: real time    0.0619
    CHARGE:  cpu time    2.0085: real time    2.0145
    MIXING:  cpu time    0.0084: real time    0.0085
    --------------------------------------------
      LOOP:  cpu time   68.8347: real time   69.1327

 eigenvalue-minimisations  : 18327
 total energy-change (2. order) : 0.1577456E+00  (-0.9522735E-01)
 number of electron     202.9999962 magnetization      23.8341512
 augmentation part       68.1327120 magnetization      16.7224903

 Broyden mixing:
  rms(total) = 0.72574E+00    rms(broyden)= 0.72565E+00
  rms(prec ) = 0.10086E+01
  weight for this iteration     100.00

 eigenvalues of (default mixing * dielectric matrix)
  average eigenvalue GAMMA=   0.5364
  1.0946  1.0946  0.5975  0.5975  0.3199  0.2877  0.1752  0.1246

 Free energy of the ion-electron system (eV)
  ---------------------------------------------------
  alpha Z        PSCENC =      1096.51130837
  Ewald energy   TEWEN  =    -13348.55588529
  -Hartree energ DENC   =     -8761.52214710
  -exchange      EXHF   =         0.00000000
  -V(xc)+E(xc)   XCENC  =      1011.92313242
  PAW double counting   =     16523.88467517   -17018.39032057
  entropy T*S    EENTRO =         0.00000000
  eigenvalues    EBANDS =     -3015.38132630
  atomic energy  EATOM  =     23319.14298724
  Solvation  Ediel_sol  =         0.00000000
  ---------------------------------------------------
  free energy    TOTEN  =      -192.38757607 eV

  energy without entropy =     -192.38757607  energy(sigma->0) =     -192.38757607


--------------------------------------------------------------------------------------------------------




--------------------------------------- Iteration      1(  14)  ---------------------------------------


    POTLOK:  cpu time    0.2628: real time    0.2637
    SETDIJ:  cpu time    0.0232: real time    0.0233
    EDDIAG:  cpu time    9.8990: real time    9.9255
  RMM-DIIS:  cpu time   62.2149: real time   62.4668
    ORTHCH:  cpu time    0.8774: real time    0.8810
 BZINTS: Fermi energy:  2.408886;203.000000 electrons
         Band energy:***********;  BLOECHL correction: -0.022749
       DOS:  cpu time    0.0643: real time    0.0645
    CHARGE:  cpu time    2.0101: real time    2.0149
    MIXING:  cpu time    0.0089: real time    0.0089
    --------------------------------------------
      LOOP:  cpu time   75.3605: real time   75.6484

 eigenvalue-minimisations  : 20408
 total energy-change (2. order) : 0.2450895E+00  (-0.1015200E+00)
 number of electron     202.9999959 magnetization      23.5048317
 augmentation part       68.7845197 magnetization      16.6722439

 Broyden mixing:
  rms(total) = 0.52354E+00    rms(broyden)= 0.52333E+00
  rms(prec ) = 0.70327E+00
  weight for this iteration     100.00

 eigenvalues of (default mixing * dielectric matrix)
  average eigenvalue GAMMA=   0.5323
  1.1535  1.1535  0.6433  0.6433  0.1246  0.1750  0.3210  0.3210  0.2553

 Free energy of the ion-electron system (eV)
  ---------------------------------------------------
  alpha Z        PSCENC =      1096.51130837
  Ewald energy   TEWEN  =    -13348.55588529
  -Hartree energ DENC   =     -8726.71167759
  -exchange      EXHF   =         0.00000000
  -V(xc)+E(xc)   XCENC  =      1011.56762906
  PAW double counting   =     16570.62148940   -17068.94633519
  entropy T*S    EENTRO =         0.00000000
  eigenvalues    EBANDS =     -3045.77200253
  atomic energy  EATOM  =     23319.14298724
  Solvation  Ediel_sol  =         0.00000000
  ---------------------------------------------------
  free energy    TOTEN  =      -192.14248653 eV

  energy without entropy =     -192.14248653  energy(sigma->0) =     -192.14248653


--------------------------------------------------------------------------------------------------------




--------------------------------------- Iteration      1(  15)  ---------------------------------------


    POTLOK:  cpu time    0.2630: real time    0.2637
    SETDIJ:  cpu time    0.0254: real time    0.0254
    EDDIAG:  cpu time    9.7853: real time    9.8168
  RMM-DIIS:  cpu time   63.2803: real time   63.5338
    ORTHCH:  cpu time    0.7236: real time    0.7253
 BZINTS: Fermi energy:  2.428468;203.000000 electrons
         Band energy:***********;  BLOECHL correction: -0.027203
       DOS:  cpu time    0.0625: real time    0.0625
    CHARGE:  cpu time    2.0707: real time    2.0784
    MIXING:  cpu time    0.0097: real time    0.0097
    --------------------------------------------
      LOOP:  cpu time   76.2206: real time   76.5156

 eigenvalue-minimisations  : 20886
 total energy-change (2. order) : 0.5277615E-01  (-0.2666007E-01)
 number of electron     202.9999959 magnetization      22.9466343
 augmentation part       68.9303318 magnetization      16.1891726

 Broyden mixing:
  rms(total) = 0.43933E+00    rms(broyden)= 0.43920E+00
  rms(prec ) = 0.54157E+00
  weight for this iteration     100.00

 eigenvalues of (default mixing * dielectric matrix)
  average eigenvalue GAMMA=   0.5820
  1.5496  1.0106  0.8375  0.8375  0.3845  0.3845  0.3063  0.1246  0.1755  0.2090

 Free energy of the ion-electron system (eV)
  ---------------------------------------------------
  alpha Z        PSCENC =      1096.51130837
  Ewald energy   TEWEN  =    -13348.55588529
  -Hartree energ DENC   =     -8719.01735404
  -exchange      EXHF   =         0.00000000
  -V(xc)+E(xc)   XCENC  =      1011.38488730
  PAW double counting   =     16598.11219779   -17098.20748107
  entropy T*S    EENTRO =         0.00000000
  eigenvalues    EBANDS =     -3051.46037067
  atomic energy  EATOM  =     23319.14298724
  Solvation  Ediel_sol  =         0.00000000
  ---------------------------------------------------
  free energy    TOTEN  =      -192.08971038 eV

  energy without entropy =     -192.08971038  energy(sigma->0) =     -192.08971038


--------------------------------------------------------------------------------------------------------




--------------------------------------- Iteration      1(  16)  ---------------------------------------


    POTLOK:  cpu time    0.2626: real time    0.2637
    SETDIJ:  cpu time    0.0234: real time    0.0235
    EDDIAG:  cpu time    9.8630: real time    9.8962
  RMM-DIIS:  cpu time   63.5011: real time   63.7366
    ORTHCH:  cpu time    0.7280: real time    0.7301
 BZINTS: Fermi energy:  2.383267;203.000000 electrons
         Band energy:***********;  BLOECHL correction: -0.026460
       DOS:  cpu time    0.0589: real time    0.0590
    CHARGE:  cpu time    2.0581: real time    2.0675
    MIXING:  cpu time    0.0098: real time    0.0098
    --------------------------------------------
      LOOP:  cpu time   76.5048: real time   76.7865

 eigenvalue-minimisations  : 20946
 total energy-change (2. order) :-0.3630552E-01  (-0.6721428E-02)
 number of electron     202.9999959 magnetization      22.7332530
 augmentation part       68.9586855 magnetization      15.9685222

 Broyden mixing:
  rms(total) = 0.26609E+00    rms(broyden)= 0.26606E+00
  rms(prec ) = 0.37442E+00
  weight for this iteration     100.00

 eigenvalues of (default mixing * dielectric matrix)
  average eigenvalue GAMMA=   0.6334
  1.8450  0.9494  0.9494  0.9238  0.5709  0.5709  0.3172  0.3172  0.1246  0.1753
  0.2231

 Free energy of the ion-electron system (eV)
  ---------------------------------------------------
  alpha Z        PSCENC =      1096.51130837
  Ewald energy   TEWEN  =    -13348.55588529
  -Hartree energ DENC   =     -8718.27186406
  -exchange      EXHF   =         0.00000000
  -V(xc)+E(xc)   XCENC  =      1011.11911520
  PAW double counting   =     16638.10589131   -17140.49837261
  entropy T*S    EENTRO =         0.00000000
  eigenvalues    EBANDS =     -3049.67919606
  atomic energy  EATOM  =     23319.14298724
  Solvation  Ediel_sol  =         0.00000000
  ---------------------------------------------------
  free energy    TOTEN  =      -192.12601590 eV

  energy without entropy =     -192.12601590  energy(sigma->0) =     -192.12601590


--------------------------------------------------------------------------------------------------------




--------------------------------------- Iteration      1(  17)  ---------------------------------------


    POTLOK:  cpu time    0.2613: real time    0.2618
    SETDIJ:  cpu time    0.0239: real time    0.0239
    EDDIAG:  cpu time    9.9606: real time   10.0028
  RMM-DIIS:  cpu time   58.3327: real time   58.5545
    ORTHCH:  cpu time    0.8427: real time    0.8448
 BZINTS: Fermi energy:  2.407329;203.000000 electrons
         Band energy:***********;  BLOECHL correction: -0.026922
       DOS:  cpu time    0.0610: real time    0.0610
    CHARGE:  cpu time    1.9892: real time    1.9939
    MIXING:  cpu time    0.0101: real time    0.0101
    --------------------------------------------
      LOOP:  cpu time   71.4814: real time   71.7529

 eigenvalue-minimisations  : 19224
 total energy-change (2. order) : 0.1998374E-01  (-0.3815095E-02)
 number of electron     202.9999959 magnetization      22.7618650
 augmentation part       68.8984028 magnetization      15.9680665

 Broyden mixing:
  rms(total) = 0.14309E+00    rms(broyden)= 0.14305E+00
  rms(prec ) = 0.20128E+00
  weight for this iteration     100.00

 eigenvalues of (default mixing * dielectric matrix)
  average eigenvalue GAMMA=   0.6679
  2.0239  0.9191  0.9191  0.9359  0.9359  0.5996  0.5239  0.3302  0.3056  0.1246
  0.1753  0.2218

 Free energy of the ion-electron system (eV)
  ---------------------------------------------------
  alpha Z        PSCENC =      1096.51130837
  Ewald energy   TEWEN  =    -13348.55588529
  -Hartree energ DENC   =     -8720.66184887
  -exchange      EXHF   =         0.00000000
  -V(xc)+E(xc)   XCENC  =      1011.03271474
  PAW double counting   =     16663.92282186   -17167.79744638
  entropy T*S    EENTRO =         0.00000000
  eigenvalues    EBANDS =     -3045.70068383
  atomic energy  EATOM  =     23319.14298724
  Solvation  Ediel_sol  =         0.00000000
  ---------------------------------------------------
  free energy    TOTEN  =      -192.10603216 eV

  energy without entropy =     -192.10603216  energy(sigma->0) =     -192.10603216


--------------------------------------------------------------------------------------------------------




--------------------------------------- Iteration      1(  18)  ---------------------------------------


    POTLOK:  cpu time    0.2663: real time    0.2672
    SETDIJ:  cpu time    0.0231: real time    0.0231
    EDDIAG:  cpu time    9.7104: real time    9.7379
  RMM-DIIS:  cpu time   61.4320: real time   61.7010
    ORTHCH:  cpu time    0.9292: real time    0.9321
 BZINTS: Fermi energy:  2.427391;203.000000 electrons
         Band energy:***********;  BLOECHL correction: -0.026980
       DOS:  cpu time    0.0675: real time    0.0677
    --------------------------------------------
      LOOP:  cpu time   72.4284: real time   72.7290

 eigenvalue-minimisations  : 20260
 total energy-change (2. order) : 0.7454253E-02  (-0.1741062E-02)
 number of electron     202.9999959 magnetization      22.7618650
 augmentation part       68.8984028 magnetization      15.9680665

 Free energy of the ion-electron system (eV)
  ---------------------------------------------------
  alpha Z        PSCENC =      1096.51130837
  Ewald energy   TEWEN  =    -13348.55588529
  -Hartree energ DENC   =     -8721.84157782
  -exchange      EXHF   =         0.00000000
  -V(xc)+E(xc)   XCENC  =      1011.05073691
  PAW double counting   =     16674.83744125   -17179.37817375
  entropy T*S    EENTRO =         0.00000000
  eigenvalues    EBANDS =     -3043.86541481
  atomic energy  EATOM  =     23319.14298724
  Solvation  Ediel_sol  =         0.00000000
  ---------------------------------------------------
  free energy    TOTEN  =      -192.09857791 eV

  energy without entropy =     -192.09857791  energy(sigma->0) =     -192.09857791


--------------------------------------------------------------------------------------------------------




 average (electrostatic) potential at core
  the test charge radii are     0.8577  0.9577  0.7215
  (the norm of the test charge is              1.0000)
       1 -17.9571       2 -50.4080       3 -50.4327       4 -50.3832       5 -50.3408
       6 -50.4059       7 -50.3737       8 -50.3522       9 -50.4577      10 -73.5803
      11 -73.2363      12 -73.2180      13 -73.3324      14 -73.5654      15 -73.5496
      16 -73.3277      17 -73.3295      18 -73.1982      19 -73.3027      20 -73.5546
      21 -73.2504      22 -73.1979      23 -73.1900      24 -73.2412      25 -73.2535
 
 
 
 E-fermi :   2.4274     XC(G=0): -10.6364     alpha+bet : -9.6740


 spin component 1

 k-point     1 :       0.0000    0.0000    0.0000
  band No.  band energies     occupation 
      1     -48.5723      1.00000
      2     -48.5235      1.00000
      3     -48.4931      1.00000
      4     -48.4730      1.00000
      5     -48.4510      1.00000
      6     -48.4244      1.00000
      7     -48.4087      1.00000
      8     -48.3972      1.00000
      9     -48.3899      1.00000
     10     -48.3805      1.00000
     11     -48.3662      1.00000
     12     -48.3508      1.00000
     13     -48.3396      1.00000
     14     -48.3235      1.00000
     15     -48.3154      1.00000
     16     -48.3061      1.00000
     17     -48.3033      1.00000
     18     -48.2717      1.00000
     19     -48.2618      1.00000
     20     -48.2480      1.00000
     21     -48.2122      1.00000
     22     -48.1884      1.00000
     23     -48.1568      1.00000
     24     -48.1327      1.00000
     25     -43.3682      1.00000
     26     -17.7087      1.00000
     27     -17.0913      1.00000
     28     -17.0363      1.00000
     29     -16.5104      1.00000
     30     -16.4357      1.00000
     31     -16.2305      1.00000
     32     -16.1045      1.00000
     33     -16.0332      1.00000
     34     -15.9332      1.00000
     35     -15.9078      1.00000
     36     -15.8628      1.00000
     37     -15.8105      1.00000
     38     -15.8025      1.00000
     39     -15.6575      1.00000
     40     -15.6407      1.00000
     41     -15.6218      1.00000
     42      -5.2197      1.00000
     43      -4.8389      1.00000
     44      -4.7001      1.00000
     45      -4.6292      1.00000
     46      -4.2610      1.00000
     47      -4.2201      1.00000
     48      -4.2143      1.00000
     49      -4.0667      1.00000
     50      -4.0508      1.00000
     51      -3.8513      1.00000
     52      -3.8090      1.00000
     53      -3.7897      1.00000
     54      -3.6660      1.00000
     55      -3.6435      1.00000
     56      -3.3155      1.00000
     57      -3.2563      1.00000
     58      -3.1846      1.00000
     59      -3.0828      1.00000
     60      -3.0587      1.00000
     61      -2.9760      1.00000
     62      -2.9191      1.00000
     63      -2.8984      1.00000
     64      -2.8783      1.00000
     65      -2.7452      1.00000
     66      -2.6334      1.00000
     67      -2.5870      1.00000
     68      -2.4954      1.00000
     69      -2.4020      1.00000
     70      -2.0238      1.00000
     71      -1.9752      1.00000
     72      -1.8992      1.00000
     73      -1.8195      1.00000
     74      -1.8059      1.00000
     75      -1.2693      1.00000
     76      -1.2550      1.00000
     77      -1.0206      1.00000
     78      -0.8876      1.00000
     79      -0.8426      1.00000
     80      -0.8379      1.00000
     81      -0.7915      1.00000
     82      -0.7370      1.00000
     83      -0.7259      1.00000
     84      -0.6176      1.00000
     85      -0.5461      1.00000
     86      -0.5179      1.00000
     87      -0.0025      1.00000
     88       0.0539      1.00000
     89       0.0676      1.00000
     90       0.0759      1.00000
     91       0.1255      1.00000
     92       0.1382      1.00000
     93       0.1484      1.00000
     94       0.1660      1.00000
     95       0.2734      1.00000
     96       0.3060      1.00000
     97       0.3293      1.00000
     98       0.3455      1.00000
     99       0.3729      1.00000
    100       0.4021      1.00000
    101       0.5353      1.00000
    102       0.6022      1.00000
    103       0.6173      1.00000
    104       0.7970      1.00000
    105       0.8382      1.00000
    106       0.8483      1.00000
    107       1.1900      1.00000
    108       1.2644      1.00000
    109       1.3182      1.00000
    110       1.3260      1.00000
    111       1.3691      1.00000
    112       1.3773      1.00000
    113       1.3919      1.00000
    114       3.1242      0.00000
    115       3.1640      0.00000
    116       3.5483      0.00000
    117       3.5953      0.00000
    118       3.7753      0.00000
    119       3.7863      0.00000
    120       3.8151      0.00000
    121       3.8605      0.00000
    122       3.8728      0.00000
    123       4.1371      0.00000
    124       4.1556      0.00000
    125       4.3022      0.00000
    126       4.3230      0.00000
    127       4.3388      0.00000
    128       4.4197      0.00000
    129       4.4451      0.00000
    130       8.5050      0.00000
    131      11.2273      0.00000
    132      11.5278      0.00000
    133      11.7024      0.00000
    134      11.9442      0.00000
    135      12.3329      0.00000
    136      12.6806      0.00000
    137      12.7975      0.00000
    138      13.0756      0.00000
    139      13.1297      0.00000
    140      13.3953      0.00000
    141      13.6433      0.00000
    142      13.6749      0.00000
    143      13.8401      0.00000
    144      15.2280      0.00000
    145      15.3900      0.00000
    146      15.7614      0.00000
    147      15.9611      0.00000
    148      16.0824      0.00000
    149      16.2339      0.00000
    150      16.2862      0.00000

 k-point     2 :       0.2500    0.0000    0.0000
  band No.  band energies     occupation 
      1     -48.5658      1.00000
      2     -48.5274      1.00000
      3     -48.4871      1.00000
      4     -48.4730      1.00000
      5     -48.4515      1.00000
      6     -48.4229      1.00000
      7     -48.4064      1.00000
      8     -48.3979      1.00000
      9     -48.3880      1.00000
     10     -48.3818      1.00000
     11     -48.3679      1.00000
     12     -48.3530      1.00000
     13     -48.3395      1.00000
     14     -48.3248      1.00000
     15     -48.3154      1.00000
     16     -48.3081      1.00000
     17     -48.3059      1.00000
     18     -48.2713      1.00000
     19     -48.2619      1.00000
     20     -48.2457      1.00000
     21     -48.2154      1.00000
     22     -48.1884      1.00000
     23     -48.1568      1.00000
     24     -48.1342      1.00000
     25     -43.3681      1.00000
     26     -17.6196      1.00000
     27     -17.1458      1.00000
     28     -16.9750      1.00000
     29     -16.5635      1.00000
     30     -16.4260      1.00000
     31     -16.2276      1.00000
     32     -16.1314      1.00000
     33     -16.0622      1.00000
     34     -15.9478      1.00000
     35     -15.8908      1.00000
     36     -15.8574      1.00000
     37     -15.8038      1.00000
     38     -15.7839      1.00000
     39     -15.6832      1.00000
     40     -15.6671      1.00000
     41     -15.6417      1.00000
     42      -5.0412      1.00000
     43      -4.6516      1.00000
     44      -4.5321      1.00000
     45      -4.4355      1.00000
     46      -4.2228      1.00000
     47      -4.1796      1.00000
     48      -4.0983      1.00000
     49      -4.0701      1.00000
     50      -4.0140      1.00000
     51      -3.9289      1.00000
     52      -3.8100      1.00000
     53      -3.7239      1.00000
     54      -3.6655      1.00000
     55      -3.5701      1.00000
     56      -3.4269      1.00000
     57      -3.3143      1.00000
     58      -3.2820      1.00000
     59      -3.2206      1.00000
     60      -3.1597      1.00000
     61      -3.1213      1.00000
     62      -3.0522      1.00000
     63      -3.0407      1.00000
     64      -2.9022      1.00000
     65      -2.8286      1.00000
     66      -2.7856      1.00000
     67      -2.6089      1.00000
     68      -2.4453      1.00000
[...]
    103       3.4846      0.00000
    104       3.5047      0.00000
    105       3.5230      0.00000
    106       3.5544      0.00000
    107       3.5965      0.00000
    108       3.6537      0.00000
    109       3.6756      0.00000
    110       3.7691      0.00000
    111       3.7959      0.00000
    112       3.8180      0.00000
    113       3.8398      0.00000
    114       4.9496      0.00000
    115       5.0154      0.00000
    116       5.0699      0.00000
    117       5.1029      0.00000
    118       5.1612      0.00000
    119       5.1825      0.00000
    120       5.2326      0.00000
    121       5.2510      0.00000
    122       5.2680      0.00000
    123       5.3042      0.00000
    124       5.3486      0.00000
    125       5.4639      0.00000
    126       5.5380      0.00000
    127       5.5577      0.00000
    128       5.6027      0.00000
    129       5.6711      0.00000
    130      10.0825      0.00000
    131      11.0119      0.00000
    132      11.9263      0.00000
    133      12.2294      0.00000
    134      12.3454      0.00000
    135      12.4781      0.00000
    136      13.0946      0.00000
    137      13.5058      0.00000
    138      13.7448      0.00000
    139      14.0910      0.00000
    140      14.2775      0.00000
    141      14.6885      0.00000
    142      14.7967      0.00000
    143      15.0156      0.00000
    144      15.2471      0.00000
    145      15.5060      0.00000
    146      15.7123      0.00000
    147      16.0737      0.00000
    148      16.1607      0.00000
    149      16.5535      0.00000
    150      16.6793      0.00000


--------------------------------------------------------------------------------------------------------


 soft charge-density along one line, spin component           1
         0         1         2         3         4         5         6         7         8         9
 total charge-density along one line
 
 soft charge-density along one line, spin component           2
         0         1         2         3         4         5         6         7         8         9
 total charge-density along one line
 
 pseudopotential strength for first ion, spin component:           1
-50.516   9.904  -0.048  -0.001   0.046  -0.055  -0.001   0.054
  9.904  -0.730   0.026   0.000  -0.025   0.019   0.000  -0.019
 -0.048   0.026  -0.805  -0.011   0.001   0.260  -0.009   0.000
 -0.001   0.000  -0.011  -0.804  -0.011  -0.009   0.260  -0.009
  0.046  -0.025   0.001  -0.011  -0.804   0.000  -0.009   0.260
 -0.055   0.019   0.260  -0.009   0.000   1.905  -0.007   0.000
 -0.001   0.000  -0.009   0.260  -0.009  -0.007   1.905  -0.007
  0.054  -0.019   0.000  -0.009   0.260   0.000  -0.007   1.905
 pseudopotential strength for first ion, spin component:           2
-50.510   9.903  -0.048  -0.001   0.046  -0.055  -0.001   0.054
  9.903  -0.726   0.026   0.000  -0.025   0.019   0.000  -0.019
 -0.048   0.026  -0.787  -0.010   0.001   0.254  -0.008   0.000
 -0.001   0.000  -0.010  -0.787  -0.010  -0.008   0.254  -0.008
  0.046  -0.025   0.001  -0.010  -0.787   0.000  -0.008   0.254
 -0.055   0.019   0.254  -0.008   0.000   1.901  -0.006   0.000
 -0.001   0.000  -0.008   0.254  -0.008  -0.006   1.902  -0.006
  0.054  -0.019   0.000  -0.008   0.254   0.000  -0.006   1.902
 total augmentation occupancy for first ion, spin component:           1
  2.062   0.343   0.053   0.002  -0.050   0.009   0.000  -0.009
  0.343   1.996   0.238   0.012  -0.221  -0.045  -0.002   0.043
  0.053   0.238   0.282   0.053  -0.011  -0.051  -0.007   0.002
  0.002   0.012   0.053   0.273   0.052  -0.007  -0.050  -0.008
 -0.050  -0.221  -0.011   0.052   0.281   0.002  -0.008  -0.052
  0.009  -0.045  -0.051  -0.007   0.002   0.012   0.002  -0.001
  0.000  -0.002  -0.007  -0.050  -0.008   0.002   0.011   0.002
 -0.009   0.043   0.002  -0.008  -0.052  -0.001   0.002   0.012
 total augmentation occupancy for first ion, spin component:           2
  0.001   0.007   0.002  -0.000  -0.003  -0.001   0.000   0.001
  0.007   0.044   0.016  -0.003  -0.019  -0.003   0.000   0.004
  0.002   0.016   0.016   0.014  -0.000  -0.002  -0.002   0.000
 -0.000  -0.003   0.014   0.016   0.015  -0.002  -0.002  -0.002
 -0.003  -0.019  -0.000   0.015   0.018   0.000  -0.002  -0.003
 -0.001  -0.003  -0.002  -0.002   0.000   0.000   0.000  -0.000
  0.000   0.000  -0.002  -0.002  -0.002   0.000   0.000   0.000
  0.001   0.004   0.000  -0.002  -0.003  -0.000   0.000   0.000


------------------------ aborting loop because EDIFF is reached ----------------------------------------


 


 total charge     
 
# of ion       s       p       d       tot
------------------------------------------
    1        2.216   0.673   0.000   2.889
    2        0.340   6.441   4.871  11.652
    3        0.357   6.462   4.970  11.789
    4        0.357   6.462   5.003  11.823
    5        0.340   6.440   4.836  11.615
    6        0.343   6.445   4.853  11.641
    7        0.344   6.446   4.864  11.654
    8        0.344   6.446   4.853  11.643
    9        0.343   6.446   4.878  11.667
   10        1.573   3.462   0.000   5.035
   11        1.583   3.387   0.000   4.970
   12        1.583   3.388   0.000   4.971
   13        1.582   3.390   0.000   4.972
   14        1.577   3.450   0.000   5.027
   15        1.577   3.449   0.000   5.026
   16        1.581   3.394   0.000   4.975
   17        1.582   3.388   0.000   4.970
   18        1.583   3.389   0.000   4.972
   19        1.581   3.391   0.000   4.972
   20        1.573   3.458   0.000   5.031
   21        1.582   3.390   0.000   4.972
   22        1.582   3.391   0.000   4.974
   23        1.582   3.388   0.000   4.971
   24        1.583   3.388   0.000   4.971
   25        1.582   3.390   0.000   4.972
--------------------------------------------------
tot         30.270 106.754  39.127 176.150
 


 magnetization (x)
 
# of ion       s       p       d       tot
------------------------------------------
    1        0.005   0.039   0.000   0.044
    2        0.029   0.033   2.659   2.721
    3        0.030   0.035   2.594   2.658
    4        0.029   0.034   2.519   2.582
    5        0.029   0.033   2.666   2.729
    6        0.030   0.035   2.741   2.807
    7        0.031   0.036   2.736   2.803
    8        0.031   0.036   2.745   2.812
    9        0.030   0.035   2.728   2.794
   10        0.002   0.031   0.000   0.034
   11        0.003   0.023   0.000   0.027
   12        0.004   0.023   0.000   0.027
   13        0.003   0.026   0.000   0.029
   14        0.003   0.039   0.000   0.042
   15        0.003   0.039   0.000   0.042
   16        0.003   0.015   0.000   0.018
   17        0.003   0.024   0.000   0.028
   18        0.003   0.021   0.000   0.025
   19        0.003   0.012   0.000   0.015
   20        0.002   0.029   0.000   0.031
   21        0.003   0.009   0.000   0.012
   22        0.003   0.015   0.000   0.018
   23        0.003   0.015   0.000   0.018
   24        0.003   0.020   0.000   0.023
   25        0.003   0.009   0.000   0.012
--------------------------------------------------
tot          0.294   0.668  21.389  22.350
 
    CHARGE:  cpu time    2.0466: real time    2.0530
    FORLOC:  cpu time    0.0274: real time    0.0274
    FORNL :  cpu time   19.3670: real time   19.4423
    STRESS:  cpu time   58.0606: real time   58.2890
    FORCOR:  cpu time    0.2543: real time    0.2556
    FORHAR:  cpu time    0.0567: real time    0.0569
    MIXING:  cpu time    0.0099: real time    0.0099
    OFIELD:  cpu time    0.0000: real time    0.0000

  FORCE on cell =-STRESS in cart. coord.  units (eV):
  Direction    XX          YY          ZZ          XY          YZ          ZX
  --------------------------------------------------------------------------------------
  Alpha Z  1096.51131  1096.51131  1096.51131
  Ewald   -4452.20839 -4453.14641 -4443.25185   -12.53750   216.65587   217.46806
  Hartree  2907.14784  2904.11448  2916.36909    -5.56311   139.01412   139.72180
  E(xc)   -1111.50335 -1111.51057 -1111.54856    -0.03090     0.14427     0.14619
  Local   -1333.82153 -1330.14837 -1351.84646    17.09670  -349.27376  -350.48331
  n-local  -908.04174  -908.20107  -908.01925    -0.00539    -0.09947     0.03863
  augment   596.81616   597.12620   596.68768     0.23164    -0.90298    -1.09993
  Kinetic  3214.62463  3215.17933  3213.96273     0.46970    -1.21980    -1.49180
  Fock        0.00000     0.00000     0.00000     0.00000     0.00000     0.00000
  -------------------------------------------------------------------------------------
  Total       9.52493     9.92490     8.86470    -0.33886     4.31826     4.29965
  in kB      55.81937    58.16332    51.95015    -1.98586    25.30647    25.19742
  external pressure =       55.31 kB  Pullay stress =        0.00 kB


 VOLUME and BASIS-vectors are now :
 -----------------------------------------------------------------------------
  energy-cutoff  :      520.00
  volume of cell :      273.39
      direct lattice vectors                 reciprocal lattice vectors
     5.770635000  0.000000000  0.000000000     0.173291154  0.000000000  0.000000000
     0.000000000  5.770635000  0.000000000     0.000000000  0.173291154  0.000000000
     0.000000000  0.000000000  8.209947000     0.000000000  0.000000000  0.121803466

  length of vectors
     5.770635000  5.770635000  8.209947000     0.173291154  0.173291154  0.121803466


 FORCES acting on ions
    electron-ion (+dipol)            ewald-force                    non-local-force                 convergence-correction
 -----------------------------------------------------------------------------------------------
   -.147E+03 0.151E+03 0.251E+01   0.155E+03 -.159E+03 -.221E+01   -.297E+01 0.296E+01 -.914E-02   -.723E-01 -.237E+00 -.388E+00
   -.308E+01 -.192E+02 -.249E+02   0.266E+01 0.201E+02 0.264E+02   -.616E-01 -.655E+00 -.275E+00   0.568E+00 0.442E+00 -.110E+01
   0.105E+03 -.387E+01 0.890E+02   -.117E+03 0.496E+01 -.969E+02   0.741E+01 -.491E+00 0.511E+01   -.168E+00 -.324E+00 -.741E+00
   0.546E+01 -.107E+03 -.878E+02   -.577E+01 0.120E+03 0.978E+02   0.581E+00 -.777E+01 -.526E+01   -.579E+00 0.340E+00 -.114E+01
   0.189E+02 0.186E+01 0.270E+02   -.199E+02 -.232E+01 -.265E+02   0.628E+00 0.191E-01 0.332E+00   -.258E+00 0.340E+00 -.831E+00
   0.107E+01 0.111E+02 0.311E+02   -.647E+00 -.110E+02 -.333E+02   0.100E+00 0.173E+00 0.574E+00   -.489E+00 -.356E+00 0.104E+01
   -.568E+01 0.119E+00 -.209E+02   0.561E+01 -.512E+00 0.204E+02   -.111E+00 0.124E-01 -.247E+00   0.200E+00 0.338E+00 0.825E+00
   -.974E+00 0.577E+01 0.188E+02   0.573E+00 -.557E+01 -.202E+02   -.387E-01 0.124E+00 0.212E+00   0.479E+00 -.370E+00 0.109E+01
   -.111E+02 -.187E+00 -.336E+02   0.111E+02 0.579E+00 0.338E+02   -.165E+00 -.656E-01 -.645E+00   0.201E+00 -.352E+00 0.953E+00
   -.477E+02 0.346E+03 0.201E+03   0.521E+02 -.364E+03 -.210E+03   -.484E+01 0.183E+02 0.918E+01   0.312E+00 -.397E+00 -.748E+00
   0.353E+03 -.594E+01 -.264E+03   -.373E+03 0.581E+01 0.278E+03   0.205E+02 -.219E+00 -.146E+02   -.532E+00 0.268E+00 0.713E+00
   -.354E+03 -.307E+01 -.258E+03   0.374E+03 0.285E+01 0.272E+03   -.206E+02 -.119E+00 -.145E+02   0.585E+00 0.274E+00 0.314E+00
   0.101E+02 -.356E+03 -.257E+03   -.976E+01 0.375E+03 0.272E+03   0.126E+00 -.204E+02 -.143E+02   -.365E+00 0.544E+00 -.957E+00
   0.560E+02 0.345E+03 -.287E+03   -.610E+02 -.364E+03 0.304E+03   0.515E+01 0.185E+02 -.166E+02   -.291E+00 -.384E+00 -.439E+00
   -.344E+03 -.559E+02 0.289E+03   0.363E+03 0.606E+02 -.305E+03   -.185E+02 -.516E+01 0.167E+02   -.482E+00 0.512E+00 -.828E+00
   -.922E+01 -.355E+03 0.234E+03   0.892E+01 0.375E+03 -.248E+03   -.365E-01 -.204E+02 0.138E+02   0.348E+00 0.463E+00 -.541E+00
   0.355E+03 -.102E+02 0.259E+03   -.375E+03 0.972E+01 -.273E+03   0.204E+02 -.170E+00 0.144E+02   0.385E+00 0.577E+00 -.477E+00
   0.281E+01 0.354E+03 0.256E+03   -.282E+01 -.374E+03 -.271E+03   0.110E+00 0.206E+02 0.144E+02   -.406E-01 -.606E-01 0.899E+00
   0.354E+03 0.931E+01 -.233E+03   -.375E+03 -.886E+01 0.248E+03   0.204E+02 0.105E+00 -.138E+02   0.412E+00 -.570E+00 -.168E+00
   -.345E+03 0.467E+02 -.201E+03   0.364E+03 -.509E+02 0.211E+03   -.183E+02 0.483E+01 -.919E+01   -.454E+00 -.543E+00 -.190E+00
   -.434E+01 -.352E+03 -.235E+03   0.446E+01 0.373E+03 0.248E+03   -.177E+00 -.204E+02 -.142E+02   0.338E-01 -.744E-01 0.807E+00
   -.239E+01 0.354E+03 -.239E+03   0.240E+01 -.374E+03 0.253E+03   -.704E-01 0.206E+02 -.142E+02   0.364E-01 0.269E-01 0.626E+00
   -.354E+03 0.262E+01 0.238E+03   0.374E+03 -.242E+01 -.253E+03   -.206E+02 0.830E-01 0.141E+02   0.557E+00 -.258E+00 0.341E+00
   0.564E+01 -.352E+03 0.263E+03   -.572E+01 0.373E+03 -.278E+03   0.185E+00 -.205E+02 0.146E+02   -.381E-01 -.678E-01 0.312E+00
   0.353E+03 0.461E+01 0.233E+03   -.373E+03 -.451E+01 -.248E+03   0.204E+02 0.194E+00 0.141E+02   -.532E+00 -.257E+00 0.373E+00
 -----------------------------------------------------------------------------------------------
   -.950E+01 0.102E+02 0.548E+00   -.114E-12 0.284E-13 0.227E-12   0.967E+01 -.100E+02 -.226E+00   -.183E+00 -.126E+00 -.260E+00
 
 
 POSITION                                       TOTAL-FORCE (eV/Angst)
 -----------------------------------------------------------------------------------
      1.51053      1.38287      2.05906         5.041906     -5.182525     -0.096125
      4.32798      2.88532      3.07873         0.090439      0.617083      0.086957
      0.00000      1.44266      1.02624        -5.067068      0.272219     -3.507644
      1.44266      2.88532      3.07873        -0.302187      5.229049      3.609910
      0.00000      4.32798      1.02624        -0.615488     -0.098709     -0.066958
      1.44266      0.00000      7.18370         0.035857     -0.067234     -0.564791
      2.88532      4.32798      5.13122         0.018569     -0.044720      0.090992
      4.32798      0.00000      7.18370         0.040283     -0.050832     -0.109232
      2.88532      1.44266      5.13122         0.055597     -0.028589      0.539556
      2.88532      1.61105      3.20805        -0.065324     -0.204873     -0.226496
      1.61105      2.88532      5.00189        -0.015620     -0.084252     -0.162133
      4.15959      2.88532      5.00189        -0.051512     -0.061406     -0.085058
      0.00000      4.15959      2.94941         0.071906     -0.159405      0.030453
      0.00000      1.61105      2.94941        -0.074832     -0.311278      0.285640
      1.27427      2.88532      1.15557         0.341910      0.080436     -0.243567
      2.88532      4.15959      3.20805         0.018047     -0.140209     -0.145606
      4.49636      2.88532      1.15557         0.121202     -0.061226     -0.001744
      0.00000      4.49636      7.31303         0.063130      0.049425      0.064448
      4.49636      0.00000      0.89692         0.098545     -0.011582      0.148334
      1.27427      0.00000      0.89692         0.243373      0.108053      0.271949
      2.88532      1.27427      7.05438        -0.030739      0.041233     -0.052722
      2.88532      4.49636      7.05438        -0.027041      0.030436      0.020579
      4.15959      0.00000      5.26054        -0.024253      0.029572     -0.042335
      0.00000      1.27427      7.31303         0.067429      0.019331      0.128835
      1.61105      0.00000      5.26054        -0.034129      0.030002      0.026756
 -----------------------------------------------------------------------------------
    total drift:                               -0.013347      0.057261      0.061876


--------------------------------------------------------------------------------------------------------



  FREE ENERGIE OF THE ION-ELECTRON SYSTEM (eV)
  ---------------------------------------------------
  free  energy   TOTEN  =      -192.09857791 eV

  energy  without entropy=     -192.09857791  energy(sigma->0) =     -192.09857791
 


--------------------------------------------------------------------------------------------------------


    POTLOK:  cpu time    0.3009: real time    0.3028


--------------------------------------------------------------------------------------------------------


     LOOP+:  cpu time 1403.4593: real time 1410.5556
    4ORBIT:  cpu time    0.0000: real time    0.0000
 


 total charge     
 
# of ion       s       p       d       tot
------------------------------------------
    1        2.216   0.673   0.000   2.889
    2        0.340   6.441   4.871  11.652
    3        0.357   6.462   4.970  11.789
    4        0.357   6.462   5.003  11.823
    5        0.340   6.440   4.836  11.615
    6        0.343   6.445   4.853  11.641
    7        0.344   6.446   4.864  11.654
    8        0.344   6.446   4.853  11.643
    9        0.343   6.446   4.878  11.667
   10        1.573   3.462   0.000   5.035
   11        1.583   3.387   0.000   4.970
   12        1.583   3.388   0.000   4.971
   13        1.582   3.390   0.000   4.972
   14        1.577   3.450   0.000   5.027
   15        1.577   3.449   0.000   5.026
   16        1.581   3.394   0.000   4.975
   17        1.582   3.388   0.000   4.970
   18        1.583   3.389   0.000   4.972
   19        1.581   3.391   0.000   4.972
   20        1.573   3.458   0.000   5.031
   21        1.582   3.390   0.000   4.972
   22        1.582   3.391   0.000   4.974
   23        1.582   3.388   0.000   4.971
   24        1.583   3.388   0.000   4.971
   25        1.582   3.390   0.000   4.972
--------------------------------------------------
tot         30.270 106.754  39.127 176.150
 


 magnetization (x)
 
# of ion       s       p       d       tot
------------------------------------------
    1        0.005   0.039   0.000   0.044
    2        0.029   0.033   2.659   2.721
    3        0.030   0.035   2.594   2.658
    4        0.029   0.034   2.519   2.582
    5        0.029   0.033   2.666   2.729
    6        0.030   0.035   2.741   2.807
    7        0.031   0.036   2.736   2.803
    8        0.031   0.036   2.745   2.812
    9        0.030   0.035   2.728   2.794
   10        0.002   0.031   0.000   0.034
   11        0.003   0.023   0.000   0.027
   12        0.004   0.023   0.000   0.027
   13        0.003   0.026   0.000   0.029
   14        0.003   0.039   0.000   0.042
   15        0.003   0.039   0.000   0.042
   16        0.003   0.015   0.000   0.018
   17        0.003   0.024   0.000   0.028
   18        0.003   0.021   0.000   0.025
   19        0.003   0.012   0.000   0.015
   20        0.002   0.029   0.000   0.031
   21        0.003   0.009   0.000   0.012
   22        0.003   0.015   0.000   0.018
   23        0.003   0.015   0.000   0.018
   24        0.003   0.020   0.000   0.023
   25        0.003   0.009   0.000   0.012
--------------------------------------------------
tot          0.294   0.668  21.389  22.350
 
 BZINTS: Fermi energy:  2.427391;203.000000 electrons
         Band energy:***********;  BLOECHL correction: -0.026980

 total amount of memory used by VASP MPI-rank0   244218. kBytes
=======================================================================

   base      :      30000. kBytes
   nonlr-proj:      17010. kBytes
   fftplans  :       7295. kBytes
   grid      :      29392. kBytes
   one-center:        777. kBytes
   wavefun   :     159744. kBytes
 
  
  
 General timing and accounting informations for this job:
 ========================================================
  
                  Total CPU time used (sec):     1422.461
                            User time (sec):     1409.688
                          System time (sec):       12.774
                         Elapsed time (sec):     1429.669
  
                   Maximum memory used (kb):   527978496.
                   Average memory used (kb):           0.
  
                          Minor page faults:       142105
                          Major page faults:          224
                 Voluntary context switches:           24
