 vasp.5.4.4.18Apr17-6-g9f103f2a35 (build Aug 22 2019 09:35:51) complex          
  
 executed on             LinuxIFC date 2021.04.26  19:15:59
 running on    6 total cores
 distrk:  each k-point on    6 cores,    1 groups
 distr:  one band on NCORES_PER_BAND=   1 cores,    6 groups


--------------------------------------------------------------------------------------------------------


 INCAR:
 POTCAR:   PAW_PBE Li_sv 23Jan2001                
 POTCAR:   PAW_PBE Mn_pv 07Sep2000                
 POTCAR:   PAW_PBE O 08Apr2002                    

 ----------------------------------------------------------------------------- 
|                                                                             |
|           W    W    AA    RRRRR   N    N  II  N    N   GGGG   !!!           |
|           W    W   A  A   R    R  NN   N  II  NN   N  G    G  !!!           |
|           W    W  A    A  R    R  N N  N  II  N N  N  G       !!!           |
|           W WW W  AAAAAA  RRRRR   N  N N  II  N  N N  G  GGG   !            |
|           WW  WW  A    A  R   R   N   NN  II  N   NN  G    G                |
|           W    W  A    A  R    R  N    N  II  N    N   GGGG   !!!           |
|                                                                             |
|      For optimal performance we recommend to set                            |
|        NCORE= 4 - approx SQRT( number of cores)                             |
|      NCORE specifies how many cores store one orbital (NPAR=cpu/NCORE).     |
|      This setting can  greatly improve the performance of VASP for DFT.     |
|      The default,   NCORE=1            might be grossly inefficient         |
|      on modern multi-core architectures or massively parallel machines.     |
|      Do your own testing !!!!                                               |
|      Unfortunately you need to use the default for GW and RPA calculations. |
|      (for HF NCORE is supported but not extensively tested yet)             |
|                                                                             |
 ----------------------------------------------------------------------------- 

 POTCAR:   PAW_PBE Li_sv 23Jan2001                
   VRHFIN =Li: 1s2s2p                                                           
   LEXCH  = PE                                                                  
   EATOM  =   202.7858 eV,   14.9043 Ry                                         
                                                                                
   TITEL  = PAW_PBE Li_sv 23Jan2001                                             
   LULTRA =        F    use ultrasoft PP ?                                      
   IUNSCR =        0    unscreen: 0-lin 1-nonlin 2-no                           
   RPACOR =     .000    partial core radius                                     
   POMASS =    7.010; ZVAL   =    3.000    mass and valenz                      
   RCORE  =    2.050    outmost cutoff radius                                   
   RWIGS  =    2.050; RWIGS  =    1.085    wigner-seitz radius (au A)           
   ENMAX  =  271.649; ENMIN  =  203.737 eV                                      
   ICORE  =        2    local potential                                         
   LCOR   =        T    correct aug charges                                     
   LPAW   =        T    paw PP                                                  
   EAUG   =  428.394                                                            
   RMAX   =    2.797    core radius for proj-oper                               
   RAUG   =    1.300    factor for augmentation sphere                          
   RDEP   =    2.094    radius for radial grids                                 
   RDEPT  =    1.550    core radius for aug-charge                              
   QCUT   =   -4.468; QGAM   =    8.937    optimization parameters              
                                                                                
   Description                                                                  
     l     E      TYP  RCUT    TYP  RCUT                                        
     0   .000     23  1.550                                                     
     0   .000     23  2.050                                                     
     0   .000     23  1.550                                                     
     0   .000     23  2.050                                                     
     1  -.200     23  2.050                                                     
     1  1.500     23  2.050                                                     
     2   .000      7  1.550                                                     
  local pseudopotential read in
  atomic valenz-charges read in
  non local Contribution for L=           0  read in
    real space projection operators read in
  non local Contribution for L=           0  read in
    real space projection operators read in
  non local Contribution for L=           1  read in
    real space projection operators read in
  non local Contribution for L=           1  read in
    real space projection operators read in
    PAW grid and wavefunctions read in
 
   number of l-projection  operators is LMAX  =           4
   number of lm-projection operators is LMMAX =           8
 
 POTCAR:   PAW_PBE Mn_pv 07Sep2000                
   VRHFIN =Mn: 3p4s3d                                                           
   LEXCH  = PE                                                                  
   EATOM  =  2024.8347 eV,  148.8212 Ry                                         
                                                                                
   TITEL  = PAW_PBE Mn_pv 07Sep2000                                             
   LULTRA =        F    use ultrasoft PP ?                                      
   IUNSCR =        1    unscreen: 0-lin 1-nonlin 2-no                           
   RPACOR =    2.080    partial core radius                                     
   POMASS =   54.938; ZVAL   =   13.000    mass and valenz                      
   RCORE  =    2.300    outmost cutoff radius                                   
   RWIGS  =    2.500; RWIGS  =    1.323    wigner-seitz radius (au A)           
   ENMAX  =  269.865; ENMIN  =  202.399 eV                                      
   RCLOC  =    1.725    cutoff for local pot                                    
   LCOR   =        T    correct aug charges                                     
   LPAW   =        T    paw PP                                                  
   EAUG   =  569.085                                                            
   DEXC   =    -.003                                                            
   RMAX   =    2.807    core radius for proj-oper                               
   RAUG   =    1.300    factor for augmentation sphere                          
   RDEP   =    2.338    radius for radial grids                                 
   QCUT   =   -4.454; QGAM   =    8.907    optimization parameters              
                                                                                
   Description                                                                  
     l     E      TYP  RCUT    TYP  RCUT                                        
     1   .000     23  2.000                                                     
     1  -.100     23  2.000                                                     
     2   .000     23  2.300                                                     
     2   .000     23  2.300                                                     
     0   .000     23  2.300                                                     
     0   .000     23  2.300                                                     
     3   .000      7   .000                                                     
  local pseudopotential read in
  partial core-charges read in
  atomic valenz-charges read in
  non local Contribution for L=           1  read in
    real space projection operators read in
  non local Contribution for L=           1  read in
    real space projection operators read in
  non local Contribution for L=           2  read in
    real space projection operators read in
  non local Contribution for L=           2  read in
    real space projection operators read in
  non local Contribution for L=           0  read in
    real space projection operators read in
  non local Contribution for L=           0  read in
    real space projection operators read in
    PAW grid and wavefunctions read in
 
   number of l-projection  operators is LMAX  =           6
   number of lm-projection operators is LMMAX =          18
 
 POTCAR:   PAW_PBE O 08Apr2002                    
   VRHFIN =O: s2p4                                                              
   LEXCH  = PE                                                                  
   EATOM  =   432.3788 eV,   31.7789 Ry                                         
                                                                                
   TITEL  = PAW_PBE O 08Apr2002                                                 
   LULTRA =        F    use ultrasoft PP ?                                      
   IUNSCR =        0    unscreen: 0-lin 1-nonlin 2-no                           
   RPACOR =     .000    partial core radius                                     
   POMASS =   16.000; ZVAL   =    6.000    mass and valenz                      
   RCORE  =    1.520    outmost cutoff radius                                   
   RWIGS  =    1.550; RWIGS  =     .820    wigner-seitz radius (au A)           
   ENMAX  =  400.000; ENMIN  =  300.000 eV                                      
   ICORE  =        2    local potential                                         
   LCOR   =        T    correct aug charges                                     
   LPAW   =        T    paw PP                                                  
   EAUG   =  605.392                                                            
   DEXC   =     .000                                                            
   RMAX   =    2.264    core radius for proj-oper                               
   RAUG   =    1.300    factor for augmentation sphere                          
   RDEP   =    1.550    radius for radial grids                                 
   QCUT   =   -5.520; QGAM   =   11.041    optimization parameters              
                                                                                
   Description                                                                  
     l     E      TYP  RCUT    TYP  RCUT                                        
     0   .000     23  1.200                                                     
     0  -.700     23  1.200                                                     
     1   .000     23  1.520                                                     
     1   .600     23  1.520                                                     
     2   .000      7  1.500                                                     
  local pseudopotential read in
  atomic valenz-charges read in
  non local Contribution for L=           0  read in
    real space projection operators read in
  non local Contribution for L=           0  read in
    real space projection operators read in
  non local Contribution for L=           1  read in
    real space projection operators read in
  non local Contribution for L=           1  read in
    real space projection operators read in
    PAW grid and wavefunctions read in
 
   number of l-projection  operators is LMAX  =           4
   number of lm-projection operators is LMMAX =           8
 
 Optimization of the real space projectors (new method)

 maximal supplied QI-value         = 18.33
 optimisation between [QCUT,QGAM] = [ 11.55, 23.28] = [ 37.34,151.76] Ry 
 Optimized for a Real-space Cutoff    1.32 Angstroem

   l    n(q)    QCUT    max X(q) W(low)/X(q) W(high)/X(q)  e(spline) 
   0      9    11.548     5.519    0.68E-05    0.20E-05    0.27E-07
   0      9    11.548    24.272    0.42E-04    0.24E-04    0.63E-07
   1      9    11.548     4.148    0.83E-04    0.77E-04    0.38E-06
   1      9    11.548    11.842    0.23E-03    0.17E-03    0.54E-06
 Optimization of the real space projectors (new method)

 maximal supplied QI-value         = 16.25
 optimisation between [QCUT,QGAM] = [ 11.54, 23.24] = [ 37.28,151.24] Ry 
 Optimized for a Real-space Cutoff    1.53 Angstroem

   l    n(q)    QCUT    max X(q) W(low)/X(q) W(high)/X(q)  e(spline) 
   1     10    11.539     4.093    0.14E-05    0.94E-06    0.35E-07
   1     10    11.539     5.163    0.38E-04    0.24E-04    0.17E-06
   2     10    11.539     4.144    0.87E-05    0.14E-04    0.48E-07
   2     10    11.539    35.116    0.12E-03    0.13E-03    0.25E-06
   0     11    11.539    20.431    0.20E-04    0.18E-05    0.19E-07
   0     11    11.539    61.159    0.37E-04    0.19E-04    0.29E-06
 Optimization of the real space projectors (new method)

 maximal supplied QI-value         = 24.76
 optimisation between [QCUT,QGAM] = [ 11.64, 23.27] = [ 37.91,151.63] Ry 
 Optimized for a Real-space Cutoff    1.08 Angstroem

   l    n(q)    QCUT    max X(q) W(low)/X(q) W(high)/X(q)  e(spline) 
   0      7    11.635     4.192    0.54E-04    0.80E-04    0.26E-07
   0      7    11.635     8.473    0.70E-04    0.40E-03    0.21E-06
   1      7    11.635     2.474    0.39E-04    0.14E-03    0.23E-07
   1      7    11.635     3.912    0.25E-03    0.37E-03    0.22E-06
 PAW_PBE Li_sv 23Jan2001                :
 energy of atom  1       EATOM= -202.7858
 kinetic energy error for atom=    0.0020 (will be added to EATOM!!)
 PAW_PBE Mn_pv 07Sep2000                :
 energy of atom  2       EATOM=-2024.8347
 kinetic energy error for atom=    0.0058 (will be added to EATOM!!)
 PAW_PBE O 08Apr2002                    :
 energy of atom  3       EATOM= -432.3788
 kinetic energy error for atom=    0.0208 (will be added to EATOM!!)
 
 
 POSCAR: Li1 Mn8 O16                             
  positions in direct lattice
  velocities in cartesian coordinates
 exchange correlation table for  LEXCH =        8
   RHO(1)=    0.500       N(1)  =     2000
   RHO(2)=  100.500       N(2)  =     4000
 


--------------------------------------------------------------------------------------------------------


 ion  position               nearest neighbor table
   1  0.262  0.240  0.251-  14 1.77  15 1.77  10 1.81   4 1.82  20 1.82   3 1.83
   2  0.750  0.500  0.375-  10 1.93  13 1.93  14 1.93  16 1.93  12 1.93  17 1.93   4 2.89   4 2.89
                             9 2.89   3 2.89   5 2.89   7 2.89
   3  0.000  0.250  0.125-   1 1.83  15 1.93  17 1.93  19 1.93  20 1.93  14 1.93  24 1.93   5 2.89
                             5 2.89   8 2.89   4 2.89   2 2.89   6 2.89
   4  0.250  0.500  0.375-   1 1.82  10 1.93  13 1.93  14 1.93  16 1.93  15 1.93  11 1.93   2 2.89
                             2 2.89   9 2.89   3 2.89   5 2.89   7 2.89
   5  0.000  0.750  0.125-  15 1.93  17 1.93  19 1.93  20 1.93  13 1.93  18 1.93   3 2.89   3 2.89
                             8 2.89   2 2.89   4 2.89   6 2.89
   6  0.250  0.000  0.875-  18 1.93  21 1.93  22 1.93  24 1.93  20 1.93  25 1.93   8 2.89   8 2.89
                             9 2.89   5 2.89   7 2.89   3 2.89
   7  0.500  0.750  0.625-  11 1.93  12 1.93  23 1.93  25 1.93  16 1.93  22 1.93   9 2.89   9 2.89
                             2 2.89   4 2.89   6 2.89   8 2.89
   8  0.750  0.000  0.875-  18 1.93  21 1.93  22 1.93  24 1.93  23 1.93  19 1.93   6 2.89   6 2.89
                             9 2.89   5 2.89   3 2.89   7 2.89
   9  0.500  0.250  0.625-  11 1.93  12 1.93  23 1.93  25 1.93  10 1.93  21 1.93   7 2.89   7 2.89
                             8 2.89   4 2.89   6 2.89   2 2.89
  10  0.500  0.279  0.391-   1 1.81   2 1.93   4 1.93   9 1.93
  11  0.279  0.500  0.609-   7 1.93   9 1.93   4 1.93
  12  0.721  0.500  0.609-   7 1.93   9 1.93   2 1.93
  13  0.000  0.721  0.359-   2 1.93   4 1.93   5 1.93
  14  0.000  0.279  0.359-   1 1.77   2 1.93   4 1.93   3 1.93
  15  0.221  0.500  0.141-   1 1.77   3 1.93   5 1.93   4 1.93
  16  0.500  0.721  0.391-   2 1.93   4 1.93   7 1.93
  17  0.779  0.500  0.141-   3 1.93   5 1.93   2 1.93
  18  0.000  0.779  0.891-   6 1.93   8 1.93   5 1.93
  19  0.779  0.000  0.109-   3 1.93   5 1.93   8 1.93
  20  0.221  0.000  0.109-   1 1.82   3 1.93   5 1.93   6 1.93
  21  0.500  0.221  0.859-   6 1.93   8 1.93   9 1.93
  22  0.500  0.779  0.859-   6 1.93   8 1.93   7 1.93
  23  0.721  0.000  0.641-   7 1.93   9 1.93   8 1.93
  24  0.000  0.221  0.891-   6 1.93   8 1.93   3 1.93
  25  0.279  0.000  0.641-   7 1.93   9 1.93   6 1.93
 

IMPORTANT INFORMATION: All symmetrisations will be switched off!
NOSYMM: (Re-)initialisation of all symmetry stuff for point group C_1.

 
 
 KPOINTS: pymatgen v2019.10.16 with grid density =

Automatic generation of k-mesh.
Space group operators:
 irot       det(A)        alpha          n_x          n_y          n_z        tau_x        tau_y        tau_z
    1     1.000000     0.000000     1.000000     0.000000     0.000000     0.000000     0.000000     0.000000
 
 Subroutine IBZKPT returns following result:
 ===========================================
 
 Found     26 irreducible k-points:
 
 Following reciprocal coordinates:
            Coordinates               Weight
  0.000000  0.000000  0.000000      1.000000
  0.250000  0.000000  0.000000      2.000000
  0.500000  0.000000  0.000000      1.000000
  0.000000  0.250000  0.000000      2.000000
  0.250000  0.250000  0.000000      2.000000
  0.500000  0.250000  0.000000      2.000000
 -0.250000  0.250000  0.000000      2.000000
  0.000000  0.500000  0.000000      1.000000
  0.250000  0.500000  0.000000      2.000000
  0.500000  0.500000  0.000000      1.000000
  0.000000  0.000000  0.333333      2.000000
  0.250000  0.000000  0.333333      2.000000
  0.500000  0.000000  0.333333      2.000000
 -0.250000  0.000000  0.333333      2.000000
  0.000000  0.250000  0.333333      2.000000
  0.250000  0.250000  0.333333      2.000000
  0.500000  0.250000  0.333333      2.000000
 -0.250000  0.250000  0.333333      2.000000
  0.000000  0.500000  0.333333      2.000000
  0.250000  0.500000  0.333333      2.000000
  0.500000  0.500000  0.333333      2.000000
 -0.250000  0.500000  0.333333      2.000000
  0.000000 -0.250000  0.333333      2.000000
  0.250000 -0.250000  0.333333      2.000000
  0.500000 -0.250000  0.333333      2.000000
 -0.250000 -0.250000  0.333333      2.000000
 
 Following cartesian coordinates:
            Coordinates               Weight
  0.000000  0.000000  0.000000      1.000000
  0.043323  0.000000  0.000000      2.000000
  0.086646  0.000000  0.000000      1.000000
  0.000000  0.043323  0.000000      2.000000
  0.043323  0.043323  0.000000      2.000000
  0.086646  0.043323  0.000000      2.000000
 -0.043323  0.043323  0.000000      2.000000
  0.000000  0.086646  0.000000      1.000000
  0.043323  0.086646  0.000000      2.000000
  0.086646  0.086646  0.000000      1.000000
  0.000000  0.000000  0.040601      2.000000
  0.043323  0.000000  0.040601      2.000000
  0.086646  0.000000  0.040601      2.000000
 -0.043323  0.000000  0.040601      2.000000
  0.000000  0.043323  0.040601      2.000000
  0.043323  0.043323  0.040601      2.000000
  0.086646  0.043323  0.040601      2.000000
 -0.043323  0.043323  0.040601      2.000000
  0.000000  0.086646  0.040601      2.000000
  0.043323  0.086646  0.040601      2.000000
  0.086646  0.086646  0.040601      2.000000
 -0.043323  0.086646  0.040601      2.000000
  0.000000 -0.043323  0.040601      2.000000
  0.043323 -0.043323  0.040601      2.000000
  0.086646 -0.043323  0.040601      2.000000
 -0.043323 -0.043323  0.040601      2.000000
 
 TETIRR: Found    144 inequivalent tetrahedra from      288


--------------------------------------------------------------------------------------------------------




 Dimension of arrays:
   k-points           NKPTS =     26   k-points in BZ     NKDIM =     26   number of bands    NBANDS=    150
   number of dos      NEDOS =    301   number of ions     NIONS =     25
   non local maximal  LDIM  =      6   non local SUM 2l+1 LMDIM =     18
   total plane-waves  NPLWV = 147456
   max r-space proj   IRMAX =   8202   max aug-charges    IRDMAX=  16563
   dimension x,y,z NGX =    48 NGY =   48 NGZ =   64
   dimension x,y,z NGXF=    96 NGYF=   96 NGZF=  128
   support grid    NGXF=    96 NGYF=   96 NGZF=  128
   ions per type =               1   8  16
   NGX,Y,Z   is equivalent  to a cutoff of  13.83, 13.83, 12.96 a.u.
   NGXF,Y,Z  is equivalent  to a cutoff of  27.66, 27.66, 25.92 a.u.

 SYSTEM =  unknown system                          
 POSCAR =  Li1 Mn8 O16                             

 Startparameter for this run:
   NWRITE =      2    write-flag & timer
   PREC   = accura    normal or accurate (medium, high low for compatibility)
   ISTART =      0    job   : 0-new  1-cont  2-samecut
   ICHARG =      1    charge: 1-file 2-atom 10-const
   ISPIN  =      2    spin polarized calculation?
   LNONCOLLINEAR =      F non collinear calculations
   LSORBIT =      F    spin-orbit coupling
   INIWAV =      1    electr: 0-lowe 1-rand  2-diag
   LASPH  =      F    aspherical Exc in radial PAW
   METAGGA=      F    non-selfconsistent MetaGGA calc.

 Electronic Relaxation 1
   ENCUT  =  520.0 eV  38.22 Ry    6.18 a.u.  10.73 10.73 15.27*2*pi/ulx,y,z
   ENINI  =  520.0     initial cutoff
   ENAUG  =  605.4 eV  augmentation charge cutoff
   NELM   =    100;   NELMIN=  1; NELMDL=  0     # of ELM steps 
   EDIFF  = 0.1E-01   stopping-criterion for ELM
   LREAL  =      T    real-space projection
   NLSPLINE    = F    spline interpolate recip. space projectors
   LCOMPAT=      F    compatible to vasp.4.4
   GGA_COMPAT  = T    GGA compatible to vasp.4.4-vasp.4.6
   LMAXPAW     = -100 max onsite density
   LMAXMIX     =    2 max onsite mixed and CHGCAR
   VOSKOWN=      0    Vosko Wilk Nusair interpolation
   ROPT   =   -0.00025  -0.00025  -0.00025
 Ionic relaxation
   EDIFFG = 0.0E+00   stopping-criterion for IOM
   NSW    =      0    number of steps for IOM
   NBLOCK =      1;   KBLOCK =      1    inner block; outer block 
   IBRION =     -1    ionic relax: 0-MD 1-quasi-New 2-CG
   NFREE  =      0    steps in history (QN), initial steepest desc. (CG)
   ISIF   =      2    stress and relaxation
   IWAVPR =     10    prediction:  0-non 1-charg 2-wave 3-comb
   ISYM   =      0    0-nonsym 1-usesym 2-fastsym
   LCORR  =      T    Harris-Foulkes like correction to forces

   POTIM  = 0.5000    time-step for ionic-motion
   TEIN   =    0.0    initial temperature
   TEBEG  =    0.0;   TEEND  =   0.0 temperature during run
   SMASS  =  -3.00    Nose mass-parameter (am)
   estimated Nose-frequenzy (Omega)   =  0.10E-29 period in steps =****** mass=  -0.761E-27a.u.
   SCALEE = 1.0000    scale energy and forces
   NPACO  =    256;   APACO  = 16.0  distance and # of slots for P.C.
   PSTRESS=    0.0 pullay stress

  Mass of Ions in am
   POMASS =   7.01 54.94 16.00
  Ionic Valenz
   ZVAL   =   3.00 13.00  6.00
  Atomic Wigner-Seitz radii
   RWIGS  =  -1.00 -1.00 -1.00
  virtual crystal weights 
   VCA    =   1.00  1.00  1.00
   NELECT =     203.0000    total number of electrons
   NUPDOWN=      -1.0000    fix difference up-down

 DOS related values:
   EMIN   =  10.00;   EMAX   =-10.00  energy-range for DOS
   EFERMI =   0.00
   ISMEAR =    -5;   SIGMA  =   0.05  broadening in eV -4-tet -1-fermi 0-gaus

 Electronic relaxation 2 (details)
   IALGO  =     68    algorithm
   LDIAG  =      T    sub-space diagonalisation (order eigenvalues)
   LSUBROT=      F    optimize rotation matrix (better conditioning)
   TURBO    =      0    0=normal 1=particle mesh
   IRESTART =      0    0=no restart 2=restart with 2 vectors
   NREBOOT  =      0    no. of reboots
   NMIN     =      0    reboot dimension
   EREF     =   0.00    reference energy to select bands
   IMIX   =      4    mixing-type and parameters
     AMIX     =   0.40;   BMIX     =  1.00
     AMIX_MAG =   1.60;   BMIX_MAG =  1.00
     AMIN     =   0.10
     WC   =   100.;   INIMIX=   1;  MIXPRE=   1;  MAXMIX= -45

 Intra band minimization:
   WEIMIN = 0.0000     energy-eigenvalue tresh-hold
   EBREAK =  0.00E+00  absolut break condition
   DEPER  =   0.30     relativ break condition  

   TIME   =   0.40     timestep for ELM

  volume/ion in A,a.u.               =      10.94        73.80
  Fermi-wavevector in a.u.,A,eV,Ry     =   1.482442  2.801409 29.900622  2.197634
  Thomas-Fermi vector in A             =   2.596227
 
 Write flags
   LWAVE        =      F    write WAVECAR
   LDOWNSAMPLE  =      F    k-point downsampling of WAVECAR
   LCHARG       =      T    write CHGCAR
   LVTOT        =      F    write LOCPOT, total local potential
   LVHAR        =      F    write LOCPOT, Hartree potential only
   LELF         =      F    write electronic localiz. function (ELF)
   LORBIT       =     11    0 simple, 1 ext, 2 COOP (PROOUT), +10 PAW based schemes


 Dipole corrections
   LMONO  =      F    monopole corrections only (constant potential shift)
   LDIPOL =      F    correct potential (dipole corrections)
   IDIPOL =      0    1-x, 2-y, 3-z, 4-all directions 
   EPSILON=  1.0000000 bulk dielectric constant

 Exchange correlation treatment:
   GGA     =    --    GGA type
   LEXCH   =     8    internal setting for exchange type
   VOSKOWN=      0    Vosko Wilk Nusair interpolation
   LHFCALC =     F    Hartree Fock is set to
   LHFONE  =     F    Hartree Fock one center treatment
   AEXX    =    0.0000 exact exchange contribution

 Linear response parameters
   LEPSILON=     F    determine dielectric tensor
   LRPA    =     F    only Hartree local field effects (RPA)
   LNABLA  =     F    use nabla operator in PAW spheres
   LVEL    =     F    velocity operator in full k-point grid
   LINTERFAST=   F  fast interpolation
   KINTER  =     0    interpolate to denser k-point grid
   CSHIFT  =0.1000    complex shift for real part using Kramers Kronig
   OMEGAMAX=  -1.0    maximum frequency
   DEG_THRESHOLD= 0.2000000E-02 threshold for treating states as degnerate
   RTIME   =   -0.100 relaxation time in fs
  (WPLASMAI=    0.000 imaginary part of plasma frequency in eV, 0.658/RTIME)
   DFIELD  = 0.0000000 0.0000000 0.0000000 field for delta impulse in time
 
 Orbital magnetization related:
   ORBITALMAG=     F  switch on orbital magnetization
   LCHIMAG   =     F  perturbation theory with respect to B field
   DQ        =  0.001000  dq finite difference perturbation B field
   LLRAUG    =     F  two centre corrections for induced B field



--------------------------------------------------------------------------------------------------------


 Static calculation
 charge density and potential will be updated during run
 spin polarized calculation
 RMM-DIIS sequential band-by-band and
  variant of blocked Davidson during initial phase
 perform sub-space diagonalisation
    before iterative eigenvector-optimisation
 modified Broyden-mixing scheme, WC =      100.0
 initial mixing is a Kerker type mixing with AMIX =  0.4000 and BMIX =      1.0000
 Hartree-type preconditioning will be used
 using additional bands           48
 real space projection scheme for non local part
 use partial core corrections
 calculate Harris-corrections to forces 
   (improved forces if not selfconsistent)
 use gradient corrections 
 use of overlap-Matrix (Vanderbilt PP)
 Fermi weights with tetrahedron method with Bloechl corrections


--------------------------------------------------------------------------------------------------------


  energy-cutoff  :      520.00
  volume of cell :      273.39
      direct lattice vectors                 reciprocal lattice vectors
     5.770635000  0.000000000  0.000000000     0.173291154  0.000000000  0.000000000
     0.000000000  5.770635000  0.000000000     0.000000000  0.173291154  0.000000000
     0.000000000  0.000000000  8.209947000     0.000000000  0.000000000  0.121803466

  length of vectors
     5.770635000  5.770635000  8.209947000     0.173291154  0.173291154  0.121803466


 
 k-points in units of 2pi/SCALE and weight: pymatgen v2019.10.16 with grid density =
   0.00000000  0.00000000  0.00000000       0.021
   0.04332279  0.00000000  0.00000000       0.042
   0.08664558  0.00000000  0.00000000       0.021
   0.00000000  0.04332279  0.00000000       0.042
   0.04332279  0.04332279  0.00000000       0.042
   0.08664558  0.04332279  0.00000000       0.042
  -0.04332279  0.04332279  0.00000000       0.042
   0.00000000  0.08664558  0.00000000       0.021
   0.04332279  0.08664558  0.00000000       0.042
   0.08664558  0.08664558  0.00000000       0.021
   0.00000000  0.00000000  0.04060116       0.042
   0.04332279  0.00000000  0.04060116       0.042
   0.08664558  0.00000000  0.04060116       0.042
  -0.04332279  0.00000000  0.04060116       0.042
   0.00000000  0.04332279  0.04060116       0.042
   0.04332279  0.04332279  0.04060116       0.042
   0.08664558  0.04332279  0.04060116       0.042
  -0.04332279  0.04332279  0.04060116       0.042
   0.00000000  0.08664558  0.04060116       0.042
   0.04332279  0.08664558  0.04060116       0.042
   0.08664558  0.08664558  0.04060116       0.042
  -0.04332279  0.08664558  0.04060116       0.042
   0.00000000 -0.04332279  0.04060116       0.042
   0.04332279 -0.04332279  0.04060116       0.042
   0.08664558 -0.04332279  0.04060116       0.042
  -0.04332279 -0.04332279  0.04060116       0.042
 
 k-points in reciprocal lattice and weights: pymatgen v2019.10.16 with grid density =
   0.00000000  0.00000000  0.00000000       0.021
   0.25000000  0.00000000  0.00000000       0.042
   0.50000000  0.00000000  0.00000000       0.021
   0.00000000  0.25000000  0.00000000       0.042
   0.25000000  0.25000000  0.00000000       0.042
   0.50000000  0.25000000  0.00000000       0.042
  -0.25000000  0.25000000  0.00000000       0.042
   0.00000000  0.50000000  0.00000000       0.021
   0.25000000  0.50000000  0.00000000       0.042
   0.50000000  0.50000000  0.00000000       0.021
   0.00000000  0.00000000  0.33333333       0.042
   0.25000000  0.00000000  0.33333333       0.042
   0.50000000  0.00000000  0.33333333       0.042
  -0.25000000  0.00000000  0.33333333       0.042
   0.00000000  0.25000000  0.33333333       0.042
   0.25000000  0.25000000  0.33333333       0.042
   0.50000000  0.25000000  0.33333333       0.042
  -0.25000000  0.25000000  0.33333333       0.042
   0.00000000  0.50000000  0.33333333       0.042
   0.25000000  0.50000000  0.33333333       0.042
   0.50000000  0.50000000  0.33333333       0.042
  -0.25000000  0.50000000  0.33333333       0.042
   0.00000000 -0.25000000  0.33333333       0.042
   0.25000000 -0.25000000  0.33333333       0.042
   0.50000000 -0.25000000  0.33333333       0.042
  -0.25000000 -0.25000000  0.33333333       0.042
 
 position of ions in fractional coordinates (direct lattice) 
   0.26176200  0.23964000  0.25080100
   0.75000000  0.50000000  0.37500000
   0.00000000  0.25000000  0.12500000
   0.25000000  0.50000000  0.37500000
   0.00000000  0.75000000  0.12500000
   0.25000000  0.00000000  0.87500000
   0.50000000  0.75000000  0.62500000
   0.75000000  0.00000000  0.87500000
   0.50000000  0.25000000  0.62500000
   0.50000000  0.27918000  0.39075200
   0.27918000  0.50000000  0.60924800
   0.72082000  0.50000000  0.60924800
   0.00000000  0.72082000  0.35924800
   0.00000000  0.27918000  0.35924800
   0.22082000  0.50000000  0.14075200
   0.50000000  0.72082000  0.39075200
   0.77918000  0.50000000  0.14075200
   0.00000000  0.77918000  0.89075200
   0.77918000  0.00000000  0.10924800
   0.22082000  0.00000000  0.10924800
   0.50000000  0.22082000  0.85924800
   0.50000000  0.77918000  0.85924800
   0.72082000  0.00000000  0.64075200
   0.00000000  0.22082000  0.89075200
   0.27918000  0.00000000  0.64075200
 
 position of ions in cartesian coordinates  (Angst):
   1.51053296  1.38287497  2.05906292
   4.32797625  2.88531750  3.07873012
   0.00000000  1.44265875  1.02624337
   1.44265875  2.88531750  3.07873012
   0.00000000  4.32797625  1.02624337
   1.44265875  0.00000000  7.18370362
   2.88531750  4.32797625  5.13121687
   4.32797625  0.00000000  7.18370362
   2.88531750  1.44265875  5.13121687
   2.88531750  1.61104588  3.20805321
   1.61104588  2.88531750  5.00189379
   4.15958912  2.88531750  5.00189379
   0.00000000  4.15958912  2.94940704
   0.00000000  1.61104588  2.94940704
   1.27427162  2.88531750  1.15556646
   2.88531750  4.15958912  3.20805321
   4.49636338  2.88531750  1.15556646
   0.00000000  4.49636338  7.31302671
   4.49636338  0.00000000  0.89692029
   1.27427162  0.00000000  0.89692029
   2.88531750  1.27427162  7.05438054
   2.88531750  4.49636338  7.05438054
   4.15958912  0.00000000  5.26053996
   0.00000000  1.27427162  7.31302671
   1.61104588  0.00000000  5.26053996
 


--------------------------------------------------------------------------------------------------------


 k-point  1 :   0.0000 0.0000 0.0000  plane waves:    7395
 k-point  2 :   0.2500 0.0000 0.0000  plane waves:    7381
 k-point  3 :   0.5000 0.0000 0.0000  plane waves:    7382
 k-point  4 :   0.0000 0.2500 0.0000  plane waves:    7381
 k-point  5 :   0.2500 0.2500 0.0000  plane waves:    7355
 k-point  6 :   0.5000 0.2500 0.0000  plane waves:    7358
 k-point  7 :  -0.2500 0.2500 0.0000  plane waves:    7355
 k-point  8 :   0.0000 0.5000 0.0000  plane waves:    7382
 k-point  9 :   0.2500 0.5000 0.0000  plane waves:    7358
 k-point 10 :   0.5000 0.5000 0.0000  plane waves:    7384
 k-point 11 :   0.0000 0.0000 0.3333  plane waves:    7330
 k-point 12 :   0.2500 0.0000 0.3333  plane waves:    7359
 k-point 13 :   0.5000 0.0000 0.3333  plane waves:    7362
 k-point 14 :  -0.2500 0.0000 0.3333  plane waves:    7359
 k-point 15 :   0.0000 0.2500 0.3333  plane waves:    7359
 k-point 16 :   0.2500 0.2500 0.3333  plane waves:    7352
 k-point 17 :   0.5000 0.2500 0.3333  plane waves:    7350
 k-point 18 :  -0.2500 0.2500 0.3333  plane waves:    7352
 k-point 19 :   0.0000 0.5000 0.3333  plane waves:    7362
 k-point 20 :   0.2500 0.5000 0.3333  plane waves:    7350
 k-point 21 :   0.5000 0.5000 0.3333  plane waves:    7356
 k-point 22 :  -0.2500 0.5000 0.3333  plane waves:    7350
 k-point 23 :   0.0000-0.2500 0.3333  plane waves:    7359
 k-point 24 :   0.2500-0.2500 0.3333  plane waves:    7352
 k-point 25 :   0.5000-0.2500 0.3333  plane waves:    7350
 k-point 26 :  -0.2500-0.2500 0.3333  plane waves:    7352

 maximum and minimum number of plane-waves per node :      7395     7330

 maximum number of plane-waves:      7395
 maximum index in each direction: 
   IXMAX=   10   IYMAX=   10   IZMAX=   15
   IXMIN=  -11   IYMIN=  -11   IZMIN=  -15


 serial   3D FFT for wavefunctions
 parallel 3D FFT for charge:
    minimum data exchange during FFTs selected (reduces bandwidth)


 total amount of memory used by VASP MPI-rank0   244218. kBytes
=======================================================================

   base      :      30000. kBytes
   nonlr-proj:      17010. kBytes
   fftplans  :       7295. kBytes
   grid      :      29392. kBytes
   one-center:        777. kBytes
   wavefun   :     159744. kBytes
 
     INWAV:  cpu time    0.0000: real time    0.0000
 Broyden mixing: mesh for mixing (old mesh)
   NGX = 21   NGY = 21   NGZ = 31
  (NGX  = 96   NGY  = 96   NGZ  =128)
  gives a total of  13671 points

 initial charge density was supplied:
 number of electron     202.9999959 magnetization      22.8590858
 keeping initial charge density in first step


--------------------------------------------------------------------------------------------------------


 Maximum index for non-local projection operator         7951
 Maximum index for augmentation-charges         2679 (set IRDMAX)


--------------------------------------------------------------------------------------------------------


 First call to EWALD:  gamma=   0.273
 Maximum number of real-space cells 3x 3x 2
 Maximum number of reciprocal cells 2x 2x 3

    FEWALD:  cpu time    0.0018: real time    0.0022


--------------------------------------- Iteration      1(   1)  ---------------------------------------


    POTLOK:  cpu time    0.2803: real time    0.2822
    SETDIJ:  cpu time    0.0228: real time    0.0229
     EDDAV:  cpu time   63.7839: real time   64.0270
 BZINTS: Fermi energy: 23.726133;203.000000 electrons
         Band energy: 203.216492;  BLOECHL correction: -0.127381
       DOS:  cpu time    0.0609: real time    0.0612
    --------------------------------------------
      LOOP:  cpu time   64.1479: real time   64.3933

 eigenvalue-minimisations  : 15792
 total energy-change (2. order) : 0.3054266E+04  (-0.1036412E+05)
 number of electron     202.9999959 magnetization      22.8590858
 augmentation part      202.9999959 magnetization      22.8590858

 Free energy of the ion-electron system (eV)
  ---------------------------------------------------
  alpha Z        PSCENC =      1096.51130837
  Ewald energy   TEWEN  =    -13348.55588529
  -Hartree energ DENC   =     -8722.28980059
  -exchange      EXHF   =         0.00000000
  -V(xc)+E(xc)   XCENC  =      1011.10242679
  PAW double counting   =     16679.23169487   -17184.09363796
  entropy T*S    EENTRO =         0.00000000
  eigenvalues    EBANDS =       203.21649187
  atomic energy  EATOM  =     23319.14298724
  Solvation  Ediel_sol  =         0.00000000
  ---------------------------------------------------
  free energy    TOTEN  =      3054.26558530 eV

  energy without entropy =     3054.26558530  energy(sigma->0) =     3054.26558530


--------------------------------------------------------------------------------------------------------




--------------------------------------- Iteration      1(   2)  ---------------------------------------


     EDDAV:  cpu time   64.0962: real time   64.3542
 BZINTS: Fermi energy:  6.289098;203.000000 electrons
         Band energy:***********;  BLOECHL correction: -0.060866
       DOS:  cpu time    0.0630: real time    0.0631
    --------------------------------------------
      LOOP:  cpu time   64.1592: real time   64.4173

 eigenvalue-minimisations  : 15648
 total energy-change (2. order) :-0.2736742E+04  (-0.2556971E+04)
 number of electron     202.9999959 magnetization      22.8590858
 augmentation part      202.9999959 magnetization      22.8590858

 Free energy of the ion-electron system (eV)
  ---------------------------------------------------
  alpha Z        PSCENC =      1096.51130837
  Ewald energy   TEWEN  =    -13348.55588529
  -Hartree energ DENC   =     -8722.28980059
  -exchange      EXHF   =         0.00000000
  -V(xc)+E(xc)   XCENC  =      1011.10242679
  PAW double counting   =     16679.23169487   -17184.09363796
  entropy T*S    EENTRO =         0.00000000
  eigenvalues    EBANDS =     -2533.52593200
  atomic energy  EATOM  =     23319.14298724
  Solvation  Ediel_sol  =         0.00000000
  ---------------------------------------------------
  free energy    TOTEN  =       317.52316143 eV

  energy without entropy =      317.52316143  energy(sigma->0) =      317.52316143


--------------------------------------------------------------------------------------------------------




--------------------------------------- Iteration      1(   3)  ---------------------------------------


     EDDAV:  cpu time   66.3206: real time   66.5730
 BZINTS: Fermi energy:  2.597260;203.000000 electrons
         Band energy:***********;  BLOECHL correction: -0.028148
       DOS:  cpu time    0.0614: real time    0.0614
    --------------------------------------------
      LOOP:  cpu time   66.3820: real time   66.6344

 eigenvalue-minimisations  : 16302
 total energy-change (2. order) :-0.4611952E+03  (-0.3928618E+03)
 number of electron     202.9999959 magnetization      22.8590858
 augmentation part      202.9999959 magnetization      22.8590858

 Free energy of the ion-electron system (eV)
  ---------------------------------------------------
  alpha Z        PSCENC =      1096.51130837
  Ewald energy   TEWEN  =    -13348.55588529
  -Hartree energ DENC   =     -8722.28980059
  -exchange      EXHF   =         0.00000000
  -V(xc)+E(xc)   XCENC  =      1011.10242679
  PAW double counting   =     16679.23169487   -17184.09363796
  entropy T*S    EENTRO =         0.00000000
  eigenvalues    EBANDS =     -2994.72112906
  atomic energy  EATOM  =     23319.14298724
  Solvation  Ediel_sol  =         0.00000000
  ---------------------------------------------------
  free energy    TOTEN  =      -143.67203563 eV

  energy without entropy =     -143.67203563  energy(sigma->0) =     -143.67203563


--------------------------------------------------------------------------------------------------------




--------------------------------------- Iteration      1(   4)  ---------------------------------------


     EDDAV:  cpu time   77.0302: real time   77.3067
 BZINTS: Fermi energy:  2.385409;203.000000 electrons
         Band energy:***********;  BLOECHL correction: -0.026580
       DOS:  cpu time    0.0557: real time    0.0558
    --------------------------------------------
      LOOP:  cpu time   77.0859: real time   77.3625

 eigenvalue-minimisations  : 19680
 total energy-change (2. order) :-0.4653317E+02  (-0.4499870E+02)
 number of electron     202.9999959 magnetization      22.8590858
 augmentation part      202.9999959 magnetization      22.8590858

 Free energy of the ion-electron system (eV)
  ---------------------------------------------------
  alpha Z        PSCENC =      1096.51130837
  Ewald energy   TEWEN  =    -13348.55588529
  -Hartree energ DENC   =     -8722.28980059
  -exchange      EXHF   =         0.00000000
  -V(xc)+E(xc)   XCENC  =      1011.10242679
  PAW double counting   =     16679.23169487   -17184.09363796
  entropy T*S    EENTRO =         0.00000000
  eigenvalues    EBANDS =     -3041.25430241
  atomic energy  EATOM  =     23319.14298724
  Solvation  Ediel_sol  =         0.00000000
  ---------------------------------------------------
  free energy    TOTEN  =      -190.20520899 eV

  energy without entropy =     -190.20520899  energy(sigma->0) =     -190.20520899


--------------------------------------------------------------------------------------------------------




--------------------------------------- Iteration      1(   5)  ---------------------------------------


     EDDAV:  cpu time   77.2710: real time   77.7211
 BZINTS: Fermi energy:  2.379854;203.000000 electrons
         Band energy:***********;  BLOECHL correction: -0.026322
       DOS:  cpu time    0.0575: real time    0.0578
    CHARGE:  cpu time    2.1174: real time    2.1290
    MIXING:  cpu time    0.0084: real time    0.0084
    --------------------------------------------
      LOOP:  cpu time   79.4544: real time   79.9163

 eigenvalue-minimisations  : 19560
 total energy-change (2. order) :-0.1411704E+01  (-0.1405088E+01)
 number of electron     202.9999959 magnetization      22.9423625
 augmentation part       68.8204544 magnetization      16.2041934

 Broyden mixing:
  rms(total) = 0.10345E+00    rms(broyden)= 0.10335E+00
  rms(prec ) = 0.11746E+00
  weight for this iteration     100.00

 Free energy of the ion-electron system (eV)
  ---------------------------------------------------
  alpha Z        PSCENC =      1096.51130837
  Ewald energy   TEWEN  =    -13348.55588529
  -Hartree energ DENC   =     -8722.28980059
  -exchange      EXHF   =         0.00000000
  -V(xc)+E(xc)   XCENC  =      1011.10242679
  PAW double counting   =     16679.23169487   -17184.09363796
  entropy T*S    EENTRO =         0.00000000
  eigenvalues    EBANDS =     -3042.66600632
  atomic energy  EATOM  =     23319.14298724
  Solvation  Ediel_sol  =         0.00000000
  ---------------------------------------------------
  free energy    TOTEN  =      -191.61691289 eV

  energy without entropy =     -191.61691289  energy(sigma->0) =     -191.61691289


--------------------------------------------------------------------------------------------------------




--------------------------------------- Iteration      1(   6)  ---------------------------------------


    POTLOK:  cpu time    0.2651: real time    0.2665
    SETDIJ:  cpu time    0.0243: real time    0.0243
    EDDIAG:  cpu time   10.1693: real time   10.2226
  RMM-DIIS:  cpu time   63.9356: real time   64.3419
    ORTHCH:  cpu time    0.7303: real time    0.7335
 BZINTS: Fermi energy:  2.471378;203.000000 electrons
         Band energy:***********;  BLOECHL correction: -0.027231
       DOS:  cpu time    0.0580: real time    0.0582
    CHARGE:  cpu time    2.3219: real time    2.3344
    MIXING:  cpu time    0.0084: real time    0.0084
    --------------------------------------------
      LOOP:  cpu time   77.5129: real time   77.9899

 eigenvalue-minimisations  : 20586
 total energy-change (2. order) :-0.4926039E+00  (-0.7093730E-01)
 number of electron     202.9999959 magnetization      22.9566730
 augmentation part       68.7773285 magnetization      16.1917855

 Broyden mixing:
  rms(total) = 0.11006E+00    rms(broyden)= 0.10999E+00
  rms(prec ) = 0.15271E+00
  weight for this iteration     100.00

 eigenvalues of (default mixing * dielectric matrix)
  average eigenvalue GAMMA=   0.5367
  0.5367

 Free energy of the ion-electron system (eV)
  ---------------------------------------------------
  alpha Z        PSCENC =      1096.51130837
  Ewald energy   TEWEN  =    -13348.55588529
  -Hartree energ DENC   =     -8721.16826675
  -exchange      EXHF   =         0.00000000
  -V(xc)+E(xc)   XCENC  =      1011.09647408
  PAW double counting   =     16682.72753071   -17187.78113700
  entropy T*S    EENTRO =         0.00000000
  eigenvalues    EBANDS =     -3044.08252816
  atomic energy  EATOM  =     23319.14298724
  Solvation  Ediel_sol  =         0.00000000
  ---------------------------------------------------
  free energy    TOTEN  =      -192.10951681 eV

  energy without entropy =     -192.10951681  energy(sigma->0) =     -192.10951681


--------------------------------------------------------------------------------------------------------




--------------------------------------- Iteration      1(   7)  ---------------------------------------


    POTLOK:  cpu time    0.2876: real time    0.2889
    SETDIJ:  cpu time    0.0288: real time    0.0289
    EDDIAG:  cpu time   10.2612: real time   10.3215
  RMM-DIIS:  cpu time   66.7487: real time   67.1862
    ORTHCH:  cpu time    0.7432: real time    0.7472
 BZINTS: Fermi energy:  2.449470;203.000000 electrons
         Band energy:***********;  BLOECHL correction: -0.027131
       DOS:  cpu time    0.0526: real time    0.0529
    --------------------------------------------
      LOOP:  cpu time   78.1221: real time   78.6255

 eigenvalue-minimisations  : 21411
 total energy-change (2. order) : 0.5718529E-02  (-0.6357754E-02)
 number of electron     202.9999959 magnetization      22.9566730
 augmentation part       68.7773285 magnetization      16.1917855

 Free energy of the ion-electron system (eV)
  ---------------------------------------------------
  alpha Z        PSCENC =      1096.51130837
  Ewald energy   TEWEN  =    -13348.55588529
  -Hartree energ DENC   =     -8719.84234052
  -exchange      EXHF   =         0.00000000
  -V(xc)+E(xc)   XCENC  =      1011.07641339
  PAW double counting   =     16680.01235265   -17184.97147013
  entropy T*S    EENTRO =         0.00000000
  eigenvalues    EBANDS =     -3045.47716399
  atomic energy  EATOM  =     23319.14298724
  Solvation  Ediel_sol  =         0.00000000
  ---------------------------------------------------
  free energy    TOTEN  =      -192.10379828 eV

  energy without entropy =     -192.10379828  energy(sigma->0) =     -192.10379828


--------------------------------------------------------------------------------------------------------




 average (electrostatic) potential at core
  the test charge radii are     0.8577  0.9577  0.7215
  (the norm of the test charge is              1.0000)
       1 -17.9554       2 -50.4332       3 -50.3908       4 -50.4305       5 -50.3643
       6 -50.4018       7 -50.3539       8 -50.3487       9 -50.4055      10 -73.5955
      11 -73.2698      12 -73.2454      13 -73.3731      14 -73.5851      15 -73.5904
      16 -73.3496      17 -73.3751      18 -73.2489      19 -73.3559      20 -73.5930
      21 -73.2838      22 -73.2239      23 -73.2241      24 -73.2658      25 -73.2817
 
 
 
 E-fermi :   2.4495     XC(G=0): -10.6349     alpha+bet : -9.6740


 spin component 1

 k-point     1 :       0.0000    0.0000    0.0000
  band No.  band energies     occupation 
      1     -48.5800      1.00000
      2     -48.5109      1.00000
      3     -48.5015      1.00000
      4     -48.4830      1.00000
      5     -48.4474      1.00000
      6     -48.4330      1.00000
      7     -48.4198      1.00000
      8     -48.4148      1.00000
      9     -48.3654      1.00000
     10     -48.3614      1.00000
     11     -48.3541      1.00000
     12     -48.3405      1.00000
     13     -48.3350      1.00000
     14     -48.3303      1.00000
     15     -48.3174      1.00000
     16     -48.3123      1.00000
     17     -48.3023      1.00000
     18     -48.2957      1.00000
     19     -48.2937      1.00000
     20     -48.2902      1.00000
     21     -48.2594      1.00000
     22     -48.2427      1.00000
     23     -48.2389      1.00000
     24     -48.2076      1.00000
     25     -43.3641      1.00000
     26     -17.7164      1.00000
     27     -17.0986      1.00000
     28     -17.0442      1.00000
     29     -16.5170      1.00000
     30     -16.4447      1.00000
     31     -16.2394      1.00000
     32     -16.1159      1.00000
     33     -16.0454      1.00000
     34     -15.9462      1.00000
     35     -15.9187      1.00000
     36     -15.8743      1.00000
     37     -15.8201      1.00000
     38     -15.8117      1.00000
     39     -15.6694      1.00000
     40     -15.6515      1.00000
     41     -15.6307      1.00000
     42      -5.2277      1.00000
     43      -4.8472      1.00000
     44      -4.7081      1.00000
     45      -4.6386      1.00000
     46      -4.2790      1.00000
     47      -4.2293      1.00000
     48      -4.2234      1.00000
     49      -4.0753      1.00000
     50      -4.0611      1.00000
     51      -3.8608      1.00000
     52      -3.8164      1.00000
     53      -3.7979      1.00000
     54      -3.6787      1.00000
     55      -3.6490      1.00000
     56      -3.3210      1.00000
     57      -3.2650      1.00000
     58      -3.1938      1.00000
     59      -3.0924      1.00000
     60      -3.0700      1.00000
     61      -2.9893      1.00000
     62      -2.9299      1.00000
     63      -2.9098      1.00000
     64      -2.8896      1.00000
     65      -2.7547      1.00000
     66      -2.6443      1.00000
     67      -2.6004      1.00000
     68      -2.5045      1.00000
     69      -2.4134      1.00000
     70      -2.0429      1.00000
     71      -1.9953      1.00000
     72      -1.9126      1.00000
     73      -1.8249      1.00000
     74      -1.8137      1.00000
     75      -1.2782      1.00000
     76      -1.2651      1.00000
     77      -1.0302      1.00000
     78      -0.8986      1.00000
     79      -0.8533      1.00000
     80      -0.8514      1.00000
     81      -0.8061      1.00000
     82      -0.7486      1.00000
     83      -0.7365      1.00000
     84      -0.6281      1.00000
     85      -0.5586      1.00000
     86      -0.5305      1.00000
     87      -0.0234      1.00000
     88       0.0375      1.00000
     89       0.0565      1.00000
     90       0.0579      1.00000
     91       0.1139      1.00000
     92       0.1293      1.00000
     93       0.1477      1.00000
     94       0.1546      1.00000
     95       0.2735      1.00000
     96       0.2853      1.00000
     97       0.3066      1.00000
     98       0.3303      1.00000
     99       0.3595      1.00000
    100       0.3908      1.00000
    101       0.5230      1.00000
    102       0.5894      1.00000
    103       0.6043      1.00000
    104       0.7837      1.00000
    105       0.8187      1.00000
    106       0.8319      1.00000
    107       1.1745      1.00000
    108       1.2480      1.00000
    109       1.2962      1.00000
    110       1.3154      1.00000
    111       1.3593      1.00000
    112       1.3739      1.00000
    113       1.3783      1.00000
    114       3.1106      0.00000
    115       3.1517      0.00000
    116       3.5351      0.00000
    117       3.5801      0.00000
    118       3.7376      0.00000
    119       3.7611      0.00000
    120       3.7967      0.00000
    121       3.8615      0.00000
    122       3.8666      0.00000
    123       4.1025      0.00000
    124       4.1327      0.00000
    125       4.2873      0.00000
    126       4.3055      0.00000
    127       4.3353      0.00000
    128       4.4068      0.00000
    129       4.4350      0.00000
    130       8.5052      0.00000
    131      11.2282      0.00000
    132      11.5272      0.00000
    133      11.7040      0.00000
    134      11.9438      0.00000
    135      12.3326      0.00000
    136      12.6861      0.00000
    137      12.8003      0.00000
    138      13.0783      0.00000
    139      13.1317      0.00000
    140      13.3975      0.00000
    141      13.6487      0.00000
    142      13.6786      0.00000
    143      13.8449      0.00000
    144      15.2447      0.00000
    145      15.5401      0.00000
    146      15.8057      0.00000
    147      16.1470      0.00000
    148      16.2319      0.00000
    149      16.2671      0.00000
    150      16.4682      0.00000

 k-point     2 :       0.2500    0.0000    0.0000
  band No.  band energies     occupation 
      1     -48.5695      1.00000
      2     -48.5175      1.00000
      3     -48.5016      1.00000
      4     -48.4809      1.00000
      5     -48.4465      1.00000
      6     -48.4330      1.00000
      7     -48.4205      1.00000
      8     -48.4095      1.00000
      9     -48.3661      1.00000
     10     -48.3616      1.00000
     11     -48.3564      1.00000
     12     -48.3418      1.00000
     13     -48.3347      1.00000
     14     -48.3309      1.00000
     15     -48.3166      1.00000
     16     -48.3112      1.00000
     17     -48.3028      1.00000
     18     -48.2985      1.00000
     19     -48.2945      1.00000
     20     -48.2924      1.00000
     21     -48.2599      1.00000
     22     -48.2450      1.00000
     23     -48.2390      1.00000
     24     -48.2076      1.00000
     25     -43.3641      1.00000
     26     -17.6280      1.00000
     27     -17.1512      1.00000
     28     -16.9842      1.00000
     29     -16.5701      1.00000
     30     -16.4349      1.00000
     31     -16.2370      1.00000
     32     -16.1419      1.00000
     33     -16.0744      1.00000
     34     -15.9596      1.00000
     35     -15.9006      1.00000
     36     -15.8678      1.00000
     37     -15.8171      1.00000
     38     -15.7946      1.00000
     39     -15.6928      1.00000
     40     -15.6800      1.00000
     41     -15.6492      1.00000
     42      -5.0493      1.00000
     43      -4.6600      1.00000
     44      -4.5419      1.00000
     45      -4.4426      1.00000
     46      -4.2375      1.00000
     47      -4.1865      1.00000
     48      -4.1127      1.00000
     49      -4.0781      1.00000
     50      -4.0194      1.00000
     51      -3.9351      1.00000
     52      -3.8178      1.00000
     53      -3.7317      1.00000
     54      -3.6792      1.00000
     55      -3.5821      1.00000
     56      -3.4327      1.00000
     57      -3.3214      1.00000
     58      -3.2937      1.00000
     59      -3.2311      1.00000
     60      -3.1759      1.00000
     61      -3.1341      1.00000
     62      -3.0617      1.00000
     63      -3.0494      1.00000
     64      -2.9136      1.00000
     65      -2.8398      1.00000
     66      -2.7978      1.00000
     67      -2.6225      1.00000
     68      -2.4626      1.00000
     69      -2.0759      1.00000
     70      -1.9781      1.00000
     71      -1.9248      1.00000
     72      -1.7871      1.00000
     73      -1.7379      1.00000
     74      -1.6372      1.00000
     75      -1.5242      1.00000
     76      -1.4639      1.00000
     77      -1.3593      1.00000
     78      -1.1904      1.00000
     79      -1.1748      1.00000
     80      -1.0639      1.00000
     81      -0.8358      1.00000
     82      -0.7883      1.00000
     83      -0.7236      1.00000
     84      -0.7035      1.00000
     85      -0.4635      1.00000
     86      -0.3669      1.00000
     87      -0.2985      1.00000
     88      -0.0796      1.00000
     89      -0.0430      1.00000
     90       0.0500      1.00000
     91       0.1032      1.00000
     92       0.2027      1.00000
     93       0.2411      1.00000
     94       0.2509      1.00000
     95       0.2960      1.00000
     96       0.3423      1.00000
     97       0.4408      1.00000
     98       0.4969      1.00000
     99       0.5094      1.00000
    100       0.6083      1.00000
    101       0.6531      1.00000
    102       0.6912      1.00000
    103       0.7559      1.00000
    104       0.7976      1.00000
    105       0.9513      1.00000
    106       1.0455      1.00000
    107       1.0506      1.00000
    108       1.1232      1.00000
    109       1.2212      1.00000
    110       1.2273      1.00000
    111       1.3154      1.00000
    112       1.3842      1.00000
    113       1.4415      1.00000
    114       3.2891      0.00000
    115       3.3434      0.00000
    116       3.5865      0.00000
    117       3.6374      0.00000
    118       3.6608      0.00000
    119       3.6764      0.00000
    120       3.7542      0.00000
    121       3.7758      0.00000
    122       3.7887      0.00000
    123       3.9429      0.00000
    124       4.1187      0.00000
    125       4.1379      0.00000
    126       4.1751      0.00000
    127       4.2304      0.00000
    128       4.3043      0.00000
    129       4.3543      0.00000
    130       8.9979      0.00000
    131      11.3217      0.00000
    132      11.5200      0.00000
    133      11.7658      0.00000
    134      12.0488      0.00000
    135      12.0747      0.00000
    136      12.7218      0.00000
    137      12.8887      0.00000
    138      13.0438      0.00000
    139      13.4510      0.00000
    140      13.6380      0.00000
    141      13.9516      0.00000
    142      14.1962      0.00000
    143      14.5149      0.00000
    144      15.1776      0.00000
    145      15.4757      0.00000
    146      15.6263      0.00000
    147      15.7707      0.00000
    148      15.9787      0.00000
    149      16.3982      0.00000
    150      16.6158      0.00000

 k-point     3 :       0.5000    0.0000    0.0000
  band No.  band energies     occupation 
      1     -48.5464      1.00000
      2     -48.5415      1.00000
      3     -48.4940      1.00000
      4     -48.4813      1.00000
      5     -48.4449      1.00000
      6     -48.4345      1.00000
      7     -48.4203      1.00000
      8     -48.4028      1.00000
      9     -48.3668      1.00000
     10     -48.3641      1.00000
     11     -48.3581      1.00000
     12     -48.3431      1.00000
     13     -48.3344      1.00000
     14     -48.3318      1.00000
     15     -48.3164      1.00000
     16     -48.3091      1.00000
     17     -48.3038      1.00000
     18     -48.3010      1.00000
     19     -48.2954      1.00000
     20     -48.2944      1.00000
     21     -48.2604      1.00000
     22     -48.2473      1.00000
     23     -48.2390      1.00000
     24     -48.2076      1.00000
     25     -43.3641      1.00000
     26     -17.4720      1.00000
     27     -17.2966      1.00000
     28     -16.8483      1.00000
     29     -16.6800      1.00000
     30     -16.4288      1.00000
     31     -16.2358      1.00000
     32     -16.1553      1.00000
     33     -16.0959      1.00000
     34     -15.9626      1.00000
     35     -15.8899      1.00000
     36     -15.8724      1.00000
     37     -15.8190      1.00000
     38     -15.7478      1.00000
     39     -15.7362      1.00000
     40     -15.7091      1.00000
     41     -15.6733      1.00000
     42      -4.6991      1.00000
     43      -4.5493      1.00000
     44      -4.3614      1.00000
     45      -4.2446      1.00000
     46      -4.1781      1.00000
     47      -4.0832      1.00000
     48      -4.0215      1.00000
     49      -4.0010      1.00000
     50      -3.9518      1.00000
     51      -3.9398      1.00000
     52      -3.9022      1.00000
     53      -3.8802      1.00000
     54      -3.6524      1.00000
     55      -3.6072      1.00000
     56      -3.5027      1.00000
     57      -3.4658      1.00000
     58      -3.4013      1.00000
     59      -3.3488      1.00000
     60      -3.3137      1.00000
     61      -3.2208      1.00000
     62      -3.1210      1.00000
     63      -3.0369      1.00000
     64      -2.9851      1.00000
     65      -2.8600      1.00000
     66      -2.6947      1.00000
     67      -2.6390      1.00000
     68      -2.3273      1.00000
     69      -2.1931      1.00000
     70      -2.1195      1.00000
     71      -2.0622      1.00000
     72      -1.7537      1.00000
     73      -1.7383      1.00000
     74      -1.5727      1.00000
     75      -1.5622      1.00000
     76      -1.5410      1.00000
     77      -1.4103      1.00000
     78      -1.3507      1.00000
     79      -1.2696      1.00000
     80      -1.1266      1.00000
     81      -1.0191      1.00000
     82      -0.9463      1.00000
     83      -0.8928      1.00000
     84      -0.7049      1.00000
     85      -0.5853      1.00000
     86      -0.3314      1.00000
     87      -0.2222      1.00000
     88      -0.1238      1.00000
     89      -0.0253      1.00000
     90       0.0350      1.00000
     91       0.1070      1.00000
     92       0.1502      1.00000
     93       0.2042      1.00000
     94       0.4412      1.00000
     95       0.5237      1.00000
     96       0.5502      1.00000
     97       0.5600      1.00000
     98       0.5882      1.00000
     99       0.6305      1.00000
    100       0.6594      1.00000
    101       0.7257      1.00000
    102       0.8035      1.00000
    103       0.8464      1.00000
    104       0.9601      1.00000
    105       0.9726      1.00000
    106       0.9929      1.00000
    107       1.0070      1.00000
    108       1.0595      1.00000
    109       1.1098      1.00000
    110       1.2730      1.00000
    111       1.3287      1.00000
    112       1.3566      1.00000
    113       1.3807      1.00000
    114       3.4755      0.00000
    115       3.5156      0.00000
    116       3.5519      0.00000
    117       3.5653      0.00000
    118       3.5835      0.00000
    119       3.6273      0.00000
    120       3.7132      0.00000
    121       3.7273      0.00000
    122       3.8471      0.00000
    123       3.9257      0.00000
    124       3.9484      0.00000
    125       4.0170      0.00000
    126       4.0594      0.00000
    127       4.0941      0.00000
    128       4.1379      0.00000
    129       4.3189      0.00000
    130      10.1105      0.00000
    131      10.2502      0.00000
    132      11.5484      0.00000
    133      11.9587      0.00000
    134      12.0089      0.00000
    135      12.0906      0.00000
    136      13.0651      0.00000
    137      13.2520      0.00000
    138      13.7377      0.00000
    139      13.8012      0.00000
    140      14.0345      0.00000
    141      14.1751      0.00000
    142      14.3225      0.00000
    143      14.5509      0.00000
    144      14.5913      0.00000
    145      15.0161      0.00000
    146      15.4895      0.00000
    147      15.5949      0.00000
    148      15.9446      0.00000
    149      16.2874      0.00000
    150      16.5009      0.00000

 k-point     4 :       0.0000    0.2500    0.0000
  band No.  band energies     occupation 
      1     -48.5744      1.00000
      2     -48.5147      1.00000
      3     -48.4998      1.00000
      4     -48.4777      1.00000
      5     -48.4477      1.00000
      6     -48.4341      1.00000
      7     -48.4190      1.00000
      8     -48.4108      1.00000
      9     -48.3683      1.00000
     10     -48.3612      1.00000
     11     -48.3545      1.00000
     12     -48.3414      1.00000
     13     -48.3359      1.00000
     14     -48.3301      1.00000
     15     -48.3182      1.00000
     16     -48.3137      1.00000
     17     -48.3013      1.00000
     18     -48.2982      1.00000
     19     -48.2940      1.00000
     20     -48.2911      1.00000
     21     -48.2595      1.00000
     22     -48.2431      1.00000
     23     -48.2366      1.00000
     24     -48.2125      1.00000
     25     -43.3641      1.00000
     26     -17.6279      1.00000
     27     -17.1484      1.00000
     28     -16.9878      1.00000
     29     -16.5698      1.00000
     30     -16.4346      1.00000
     31     -16.2370      1.00000
     32     -16.1424      1.00000
     33     -16.0740      1.00000
     34     -15.9595      1.00000
     35     -15.9010      1.00000
     36     -15.8672      1.00000
     37     -15.8172      1.00000
     38     -15.7949      1.00000
     39     -15.6928      1.00000
     40     -15.6798      1.00000
     41     -15.6493      1.00000
     42      -5.0500      1.00000
     43      -4.6611      1.00000
     44      -4.5411      1.00000
     45      -4.4431      1.00000
     46      -4.2425      1.00000
     47      -4.1898      1.00000
     48      -4.1093      1.00000
     49      -4.0771      1.00000
     50      -4.0205      1.00000
     51      -3.9353      1.00000
     52      -3.8202      1.00000
     53      -3.7293      1.00000
     54      -3.6749      1.00000
     55      -3.5784      1.00000
     56      -3.4299      1.00000
     57      -3.3214      1.00000
     58      -3.2923      1.00000
     59      -3.2307      1.00000
     60      -3.1758      1.00000
     61      -3.1384      1.00000
     62      -3.0637      1.00000
     63      -3.0515      1.00000
     64      -2.9115      1.00000
     65      -2.8380      1.00000
     66      -2.7947      1.00000
     67      -2.6222      1.00000
     68      -2.4591      1.00000
     69      -2.0733      1.00000
     70      -1.9782      1.00000
     71      -1.9297      1.00000
     72      -1.7833      1.00000
     73      -1.7441      1.00000
     74      -1.6317      1.00000
     75      -1.5239      1.00000
     76      -1.4628      1.00000
     77      -1.3523      1.00000
     78      -1.1936      1.00000
     79      -1.1804      1.00000
     80      -1.0645      1.00000
     81      -0.8378      1.00000
     82      -0.7931      1.00000
     83      -0.7219      1.00000
     84      -0.7021      1.00000
     85      -0.4639      1.00000
     86      -0.3714      1.00000
     87      -0.3039      1.00000
     88      -0.0804      1.00000
     89      -0.0378      1.00000
     90       0.0483      1.00000
     91       0.0987      1.00000
     92       0.1960      1.00000
     93       0.2257      1.00000
     94       0.2444      1.00000
     95       0.2954      1.00000
     96       0.3431      1.00000
     97       0.4391      1.00000
     98       0.4961      1.00000
     99       0.5105      1.00000
    100       0.6169      1.00000
    101       0.6672      1.00000
    102       0.7026      1.00000
    103       0.7551      1.00000
    104       0.8062      1.00000
    105       0.9500      1.00000
    106       1.0421      1.00000
    107       1.0550      1.00000
    108       1.1300      1.00000
    109       1.2151      1.00000
    110       1.2362      1.00000
    111       1.3018      1.00000
    112       1.3880      1.00000
    113       1.4379      1.00000
    114       3.2978      0.00000
    115       3.3354      0.00000
    116       3.5803      0.00000
    117       3.6514      0.00000
    118       3.6609      0.00000
    119       3.6739      0.00000
    120       3.7529      0.00000
    121       3.7756      0.00000
    122       3.7888      0.00000
    123       3.9599      0.00000
    124       4.1018      0.00000
    125       4.1320      0.00000
    126       4.1814      0.00000
    127       4.2232      0.00000
    128       4.3047      0.00000
    129       4.3551      0.00000
    130       8.9981      0.00000
    131      11.3233      0.00000
    132      11.5181      0.00000
    133      11.7682      0.00000
    134      12.0481      0.00000
    135      12.0760      0.00000
    136      12.7209      0.00000
    137      12.8946      0.00000
    138      13.0331      0.00000
    139      13.4465      0.00000
    140      13.6282      0.00000
    141      13.9468      0.00000
    142      14.2120      0.00000
    143      14.5143      0.00000
    144      15.1631      0.00000
    145      15.3788      0.00000
    146      15.6652      0.00000
    147      15.7797      0.00000
    148      15.9329      0.00000
    149      16.0355      0.00000
    150      16.4499      0.00000

 k-point     5 :       0.2500    0.2500    0.0000
  band No.  band energies     occupation 
      1     -48.5636      1.00000
      2     -48.5160      1.00000
      3     -48.5053      1.00000
      4     -48.4752      1.00000
      5     -48.4481      1.00000
      6     -48.4341      1.00000
      7     -48.4194      1.00000
      8     -48.4046      1.00000
      9     -48.3678      1.00000
     10     -48.3628      1.00000
     11     -48.3571      1.00000
     12     -48.3427      1.00000
     13     -48.3361      1.00000
     14     -48.3295      1.00000
     15     -48.3176      1.00000
     16     -48.3126      1.00000
     17     -48.3032      1.00000
     18     -48.2991      1.00000
     19     -48.2957      1.00000
     20     -48.2936      1.00000
     21     -48.2602      1.00000
     22     -48.2452      1.00000
     23     -48.2364      1.00000
     24     -48.2125      1.00000
     25     -43.3640      1.00000
     26     -17.5425      1.00000
     27     -17.0773      1.00000
     28     -17.0475      1.00000
     29     -16.6333      1.00000
     30     -16.4234      1.00000
     31     -16.2476      1.00000
     32     -16.1393      1.00000
     33     -16.0922      1.00000
     34     -15.9495      1.00000
     35     -15.8928      1.00000
     36     -15.8563      1.00000
     37     -15.8193      1.00000
     38     -15.8078      1.00000
     39     -15.7161      1.00000
     40     -15.7068      1.00000
     41     -15.6704      1.00000
     42      -4.8725      1.00000
     43      -4.5019      1.00000
     44      -4.4331      1.00000
     45      -4.2796      1.00000
     46      -4.2533      1.00000
     47      -4.1222      1.00000
     48      -4.0652      1.00000
     49      -3.9988      1.00000
     50      -3.9856      1.00000
     51      -3.9310      1.00000
     52      -3.7601      1.00000
     53      -3.7176      1.00000
     54      -3.6459      1.00000
     55      -3.6324      1.00000
     56      -3.4968      1.00000
     57      -3.4171      1.00000
     58      -3.3580      1.00000
     59      -3.2551      1.00000
     60      -3.2015      1.00000
     61      -3.1568      1.00000
     62      -3.0270      1.00000
     63      -2.9686      1.00000
     64      -2.9163      1.00000
     65      -2.8995      1.00000
     66      -2.7889      1.00000
     67      -2.7606      1.00000
     68      -2.3640      1.00000
     69      -2.2763      1.00000
     70      -1.9927      1.00000
     71      -1.9693      1.00000
     72      -1.9088      1.00000
     73      -1.7785      1.00000
     74      -1.7114      1.00000
     75      -1.6318      1.00000
     76      -1.5130      1.00000
     77      -1.4666      1.00000
     78      -1.3571      1.00000
     79      -1.2868      1.00000
     80      -1.2638      1.00000
     81      -0.9367      1.00000
     82      -0.9091      1.00000
     83      -0.6910      1.00000
     84      -0.6408      1.00000
     85      -0.4897      1.00000
     86      -0.4418      1.00000
     87      -0.2568      1.00000
     88      -0.0330      1.00000
     89       0.0069      1.00000
     90       0.0458      1.00000
     91       0.1959      1.00000
     92       0.2403      1.00000
     93       0.2561      1.00000
     94       0.2746      1.00000
     95       0.3574      1.00000
     96       0.3688      1.00000
     97       0.4528      1.00000
     98       0.5256      1.00000
     99       0.5364      1.00000
    100       0.7210      1.00000
    101       0.7595      1.00000
    102       0.8216      1.00000
    103       0.8406      1.00000
    104       0.8835      1.00000
    105       0.8997      1.00000
    106       0.9335      1.00000
    107       1.1587      1.00000
    108       1.1864      1.00000
    109       1.2935      1.00000
    110       1.3487      1.00000
    111       1.3570      1.00000
    112       1.3794      1.00000
    113       1.4184      1.00000
    114       3.3543      0.00000
    115       3.3897      0.00000
    116       3.4472      0.00000
    117       3.5172      0.00000
    118       3.5552      0.00000
    119       3.6710      0.00000
    120       3.7196      0.00000
    121       3.7596      0.00000
    122       3.7958      0.00000
    123       3.8964      0.00000
    124       3.9803      0.00000
    125       4.0341      0.00000
    126       4.0858      0.00000
    127       4.1270      0.00000
    128       4.2255      0.00000
    129       4.3043      0.00000
    130       9.4733      0.00000
    131      11.5606      0.00000
    132      11.5733      0.00000
    133      11.9951      0.00000
    134      12.1397      0.00000
    135      12.3607      0.00000
    136      12.5088      0.00000
    137      12.6980      0.00000
    138      12.7676      0.00000
    139      13.5715      0.00000
    140      14.1557      0.00000
    141      14.2731      0.00000
    142      14.4916      0.00000
    143      14.7541      0.00000
    144      14.9606      0.00000
    145      15.2591      0.00000
    146      15.6109      0.00000
    147      15.8215      0.00000
    148      16.2368      0.00000
    149      16.3197      0.00000
    150      16.7425      0.00000

 k-point     6 :       0.5000    0.2500    0.0000
  band No.  band energies     occupation 
      1     -48.5417      1.00000
      2     -48.5365      1.00000
      3     -48.4960      1.00000
      4     -48.4827      1.00000
      5     -48.4442      1.00000
      6     -48.4327      1.00000
      7     -48.4193      1.00000
      8     -48.3987      1.00000
      9     -48.3686      1.00000
     10     -48.3655      1.00000
     11     -48.3599      1.00000
     12     -48.3437      1.00000
     13     -48.3362      1.00000
     14     -48.3301      1.00000
     15     -48.3174      1.00000
     16     -48.3121      1.00000
     17     -48.3050      1.00000
     18     -48.3005      1.00000
     19     -48.2962      1.00000
     20     -48.2949      1.00000
     21     -48.2607      1.00000
     22     -48.2473      1.00000
     23     -48.2365      1.00000
     24     -48.2125      1.00000
     25     -43.3640      1.00000
     26     -17.3869      1.00000
     27     -17.2146      1.00000
     28     -16.9245      1.00000
     29     -16.7439      1.00000
     30     -16.4255      1.00000
     31     -16.2291      1.00000
     32     -16.1689      1.00000
     33     -16.0871      1.00000
     34     -15.9369      1.00000
     35     -15.8744      1.00000
     36     -15.8565      1.00000
     37     -15.8354      1.00000
     38     -15.7845      1.00000
     39     -15.7603      1.00000
     40     -15.7321      1.00000
     41     -15.6999      1.00000
     42      -4.5943      1.00000
     43      -4.4403      1.00000
     44      -4.2324      1.00000
     45      -4.2102      1.00000
     46      -4.1293      1.00000
     47      -4.0314      1.00000
     48      -4.0128      1.00000
     49      -3.9501      1.00000
     50      -3.9029      1.00000
     51      -3.8450      1.00000
     52      -3.8145      1.00000
     53      -3.7995      1.00000
     54      -3.7150      1.00000
     55      -3.6485      1.00000
     56      -3.5650      1.00000
     57      -3.5185      1.00000
     58      -3.3481      1.00000
     59      -3.3116      1.00000
     60      -3.2322      1.00000
     61      -3.1164      1.00000
     62      -3.0576      1.00000
     63      -3.0067      1.00000
     64      -2.9041      1.00000
     65      -2.7966      1.00000
     66      -2.6967      1.00000
     67      -2.6489      1.00000
     68      -2.4525      1.00000
     69      -2.4007      1.00000
     70      -2.2711      1.00000
     71      -2.1026      1.00000
     72      -2.0720      1.00000
     73      -2.0200      1.00000
     74      -1.8413      1.00000
     75      -1.7645      1.00000
     76      -1.6953      1.00000
     77      -1.5835      1.00000
     78      -1.2484      1.00000
     79      -1.1904      1.00000
     80      -1.1528      1.00000
     81      -1.1153      1.00000
     82      -1.0913      1.00000
     83      -0.9377      1.00000
     84      -0.4420      1.00000
     85      -0.3714      1.00000
     86      -0.3118      1.00000
     87      -0.1970      1.00000
     88      -0.1669      1.00000
     89      -0.1378      1.00000
     90       0.1690      1.00000
     91       0.2591      1.00000
     92       0.2919      1.00000
     93       0.3262      1.00000
     94       0.3699      1.00000
     95       0.4028      1.00000
     96       0.4298      1.00000
     97       0.4418      1.00000
     98       0.5189      1.00000
     99       0.5352      1.00000
    100       0.6534      1.00000
    101       0.7170      1.00000
    102       0.8579      1.00000
    103       0.9459      1.00000
    104       0.9883      1.00000
    105       1.0770      1.00000
    106       1.1450      1.00000
    107       1.1733      1.00000
    108       1.2498      1.00000
    109       1.2890      1.00000
    110       1.3415      1.00000
    111       1.3566      1.00000
    112       1.3908      1.00000
    113       1.4419      1.00000
    114       3.2318      0.00000
    115       3.2753      0.00000
    116       3.4343      0.00000
    117       3.4980      0.00000
    118       3.5697      0.00000
    119       3.6269      0.00000
    120       3.6405      0.00000
    121       3.7004      0.00000
    122       3.7556      0.00000
    123       3.8024      0.00000
    124       3.8222      0.00000
    125       3.9009      0.00000
    126       4.1075      0.00000
    127       4.1438      0.00000
    128       4.1837      0.00000
    129       4.2308      0.00000
    130      10.5012      0.00000
    131      10.6540      0.00000
    132      11.8020      0.00000
    133      12.1596      0.00000
    134      12.2450      0.00000
    135      12.4263      0.00000
    136      12.5908      0.00000
    137      12.8956      0.00000
    138      13.5336      0.00000
    139      13.6920      0.00000
    140      13.8371      0.00000
    141      14.0945      0.00000
    142      14.4619      0.00000
    143      14.9307      0.00000
    144      14.9439      0.00000
    145      15.4200      0.00000
    146      15.8217      0.00000
    147      15.8503      0.00000
    148      16.1144      0.00000
    149      16.2842      0.00000
    150      16.5224      0.00000

[...]
    103       3.5017      0.00000
    104       3.5158      0.00000
    105       3.5396      0.00000
    106       3.5702      0.00000
    107       3.6080      0.00000
    108       3.6644      0.00000
    109       3.6873      0.00000
    110       3.7769      0.00000
    111       3.8080      0.00000
    112       3.8245      0.00000
    113       3.8488      0.00000
    114       4.9623      0.00000
    115       5.0264      0.00000
    116       5.0827      0.00000
    117       5.1159      0.00000
    118       5.1701      0.00000
    119       5.1946      0.00000
    120       5.2411      0.00000
    121       5.2583      0.00000
    122       5.2767      0.00000
    123       5.3104      0.00000
    124       5.3566      0.00000
    125       5.4714      0.00000
    126       5.5444      0.00000
    127       5.5626      0.00000
    128       5.6060      0.00000
    129       5.6760      0.00000
    130      10.0799      0.00000
    131      11.0096      0.00000
    132      11.9225      0.00000
    133      12.2265      0.00000
    134      12.3445      0.00000
    135      12.4809      0.00000
    136      13.0925      0.00000
    137      13.5102      0.00000
    138      13.7475      0.00000
    139      14.0982      0.00000
    140      14.2786      0.00000
    141      14.7059      0.00000
    142      14.8277      0.00000
    143      15.0615      0.00000
    144      15.2596      0.00000
    145      15.4793      0.00000
    146      15.8262      0.00000
    147      16.1367      0.00000
    148      16.2907      0.00000
    149      16.6294      0.00000
    150      17.2114      0.00000


--------------------------------------------------------------------------------------------------------


 soft charge-density along one line, spin component           1
         0         1         2         3         4         5         6         7         8         9
 total charge-density along one line
 
 soft charge-density along one line, spin component           2
         0         1         2         3         4         5         6         7         8         9
 total charge-density along one line
 
 pseudopotential strength for first ion, spin component:           1
-50.512   9.903  -0.048  -0.001   0.046  -0.056  -0.001   0.054
  9.903  -0.729   0.026   0.000  -0.025   0.019   0.000  -0.019
 -0.048   0.026  -0.805  -0.011   0.001   0.260  -0.009   0.000
 -0.001   0.000  -0.011  -0.804  -0.011  -0.009   0.260  -0.009
  0.046  -0.025   0.001  -0.011  -0.805   0.000  -0.009   0.260
 -0.056   0.019   0.260  -0.009   0.000   1.905  -0.007   0.000
 -0.001   0.000  -0.009   0.260  -0.009  -0.007   1.905  -0.007
  0.054  -0.019   0.000  -0.009   0.260   0.000  -0.007   1.905
 pseudopotential strength for first ion, spin component:           2
-50.512   9.903  -0.048  -0.001   0.046  -0.056  -0.001   0.054
  9.903  -0.726   0.026   0.001  -0.025   0.020   0.000  -0.019
 -0.048   0.026  -0.788  -0.010   0.001   0.254  -0.008   0.000
 -0.001   0.001  -0.010  -0.787  -0.010  -0.008   0.254  -0.008
  0.046  -0.025   0.001  -0.010  -0.788   0.000  -0.008   0.254
 -0.056   0.020   0.254  -0.008   0.000   1.901  -0.006   0.000
 -0.001   0.000  -0.008   0.254  -0.008  -0.006   1.902  -0.006
  0.054  -0.019   0.000  -0.008   0.254   0.000  -0.006   1.902
 total augmentation occupancy for first ion, spin component:           1
  2.062   0.342   0.052   0.002  -0.050   0.009   0.000  -0.009
  0.342   1.990   0.234   0.008  -0.224  -0.044  -0.001   0.043
  0.052   0.234   0.280   0.051  -0.011  -0.051  -0.007   0.002
  0.002   0.008   0.051   0.272   0.053  -0.007  -0.050  -0.008
 -0.050  -0.224  -0.011   0.053   0.283   0.002  -0.008  -0.052
  0.009  -0.044  -0.051  -0.007   0.002   0.012   0.002  -0.001
  0.000  -0.001  -0.007  -0.050  -0.008   0.002   0.011   0.002
 -0.009   0.043   0.002  -0.008  -0.052  -0.001   0.002   0.012
 total augmentation occupancy for first ion, spin component:           2
  0.001   0.007   0.003   0.000  -0.003  -0.001  -0.000   0.001
  0.007   0.046   0.020   0.002  -0.018  -0.004  -0.000   0.003
  0.003   0.020   0.018   0.016  -0.000  -0.002  -0.002   0.000
  0.000   0.002   0.016   0.017   0.014  -0.002  -0.002  -0.002
 -0.003  -0.018  -0.000   0.014   0.016   0.000  -0.002  -0.002
 -0.001  -0.004  -0.002  -0.002   0.000   0.000   0.000  -0.000
 -0.000  -0.000  -0.002  -0.002  -0.002   0.000   0.000   0.000
  0.001   0.003   0.000  -0.002  -0.002  -0.000   0.000   0.000


------------------------ aborting loop because EDIFF is reached ----------------------------------------


 


 total charge     
 
# of ion       s       p       d       tot
------------------------------------------
    1        2.215   0.672   0.000   2.888
    2        0.340   6.441   4.872  11.654
    3        0.356   6.462   4.959  11.776
    4        0.357   6.462   4.993  11.812
    5        0.340   6.440   4.839  11.619
    6        0.343   6.445   4.852  11.639
    7        0.344   6.446   4.854  11.643
    8        0.344   6.446   4.850  11.639
    9        0.343   6.445   4.855  11.643
   10        1.573   3.462   0.000   5.035
   11        1.583   3.391   0.000   4.974
   12        1.583   3.393   0.000   4.975
   13        1.582   3.392   0.000   4.974
   14        1.577   3.450   0.000   5.028
   15        1.577   3.452   0.000   5.030
   16        1.581   3.394   0.000   4.975
   17        1.582   3.394   0.000   4.976
   18        1.583   3.396   0.000   4.979
   19        1.581   3.398   0.000   4.980
   20        1.573   3.463   0.000   5.036
   21        1.582   3.396   0.000   4.978
   22        1.582   3.395   0.000   4.977
   23        1.582   3.395   0.000   4.977
   24        1.583   3.392   0.000   4.975
   25        1.582   3.395   0.000   4.977
--------------------------------------------------
tot         30.269 106.816  39.073 176.158
 


 magnetization (x)
 
# of ion       s       p       d       tot
------------------------------------------
    1        0.005   0.039   0.000   0.044
    2        0.029   0.034   2.670   2.734
    3        0.030   0.035   2.587   2.651
    4        0.029   0.034   2.561   2.624
    5        0.029   0.034   2.681   2.745
    6        0.030   0.035   2.737   2.803
    7        0.031   0.036   2.739   2.806
    8        0.031   0.036   2.742   2.810
    9        0.030   0.035   2.733   2.799
   10        0.002   0.027   0.000   0.029
   11        0.003   0.019   0.000   0.022
   12        0.003   0.019   0.000   0.022
   13        0.003   0.020   0.000   0.023
   14        0.003   0.035   0.000   0.039
   15        0.003   0.035   0.000   0.038
   16        0.003   0.009   0.000   0.012
   17        0.003   0.019   0.000   0.022
   18        0.003   0.018   0.000   0.022
   19        0.003   0.009   0.000   0.011
   20        0.002   0.026   0.000   0.028
   21        0.003   0.006   0.000   0.009
   22        0.003   0.012   0.000   0.016
   23        0.003   0.012   0.000   0.015
   24        0.003   0.018   0.000   0.021
   25        0.003   0.006   0.000   0.009
--------------------------------------------------
tot          0.294   0.609  21.452  22.355
 
    CHARGE:  cpu time    2.1525: real time    2.1658
    FORLOC:  cpu time    0.0325: real time    0.0326
    FORNL :  cpu time   19.7404: real time   19.8801
    STRESS:  cpu time   60.2994: real time   60.6528
    FORCOR:  cpu time    0.2811: real time    0.2826
    FORHAR:  cpu time    0.0654: real time    0.0658
    MIXING:  cpu time    0.0093: real time    0.0093
    OFIELD:  cpu time    0.0000: real time    0.0000

  FORCE on cell =-STRESS in cart. coord.  units (eV):
  Direction    XX          YY          ZZ          XY          YZ          ZX
  --------------------------------------------------------------------------------------
  Alpha Z  1096.51131  1096.51131  1096.51131
  Ewald   -4452.20839 -4453.14641 -4443.25185   -12.53750   216.65587   217.46806
  Hartree  2907.58915  2901.30230  2915.10114    -5.57313   138.59795   138.99016
  E(xc)   -1111.50728 -1111.50982 -1111.55128    -0.03021     0.14237     0.14075
  Local   -1335.83214 -1327.96410 -1351.72038    17.12155  -348.65955  -349.83218
  n-local  -909.74410  -909.79166  -909.63265    -0.00795    -0.03632     0.03504
  augment   597.11614   597.22996   596.83910     0.23103    -1.02772    -1.07810
  Kinetic  3216.53230  3216.80383  3215.69980     0.45999    -1.30891    -1.37384
  Fock        0.00000     0.00000     0.00000     0.00000     0.00000     0.00000
  -------------------------------------------------------------------------------------
  Total       8.45699     9.43542     7.99518    -0.33622     4.36370     4.34990
  in kB      49.56085    55.29479    46.85451    -1.97038    25.57275    25.49189
  external pressure =       50.57 kB  Pullay stress =        0.00 kB


 VOLUME and BASIS-vectors are now :
 -----------------------------------------------------------------------------
  energy-cutoff  :      520.00
  volume of cell :      273.39
      direct lattice vectors                 reciprocal lattice vectors
     5.770635000  0.000000000  0.000000000     0.173291154  0.000000000  0.000000000
     0.000000000  5.770635000  0.000000000     0.000000000  0.173291154  0.000000000
     0.000000000  0.000000000  8.209947000     0.000000000  0.000000000  0.121803466

  length of vectors
     5.770635000  5.770635000  8.209947000     0.173291154  0.173291154  0.121803466


 FORCES acting on ions
    electron-ion (+dipol)            ewald-force                    non-local-force                 convergence-correction
 -----------------------------------------------------------------------------------------------
   -.147E+03 0.151E+03 0.230E+01   0.155E+03 -.159E+03 -.221E+01   -.295E+01 0.298E+01 0.713E-02   -.113E+00 -.150E+00 -.219E+00
   -.274E+01 -.189E+02 -.255E+02   0.266E+01 0.201E+02 0.264E+02   -.481E-01 -.633E+00 -.288E+00   0.210E+00 0.113E+00 -.516E+00
   0.105E+03 -.401E+01 0.885E+02   -.117E+03 0.496E+01 -.969E+02   0.744E+01 -.500E+00 0.512E+01   0.227E-01 -.185E+00 -.328E+00
   0.512E+01 -.107E+03 -.883E+02   -.577E+01 0.120E+03 0.978E+02   0.571E+00 -.776E+01 -.528E+01   -.218E+00 0.742E-01 -.571E+00
   0.187E+02 0.201E+01 0.265E+02   -.199E+02 -.232E+01 -.265E+02   0.620E+00 0.278E-01 0.308E+00   -.189E-01 0.190E+00 -.321E+00
   0.803E+00 0.108E+02 0.316E+02   -.647E+00 -.110E+02 -.333E+02   0.799E-01 0.153E+00 0.577E+00   -.195E+00 -.505E-01 0.554E+00
   -.554E+01 0.270E+00 -.204E+02   0.561E+01 -.512E+00 0.204E+02   -.101E+00 0.855E-02 -.241E+00   0.660E-01 0.195E+00 0.341E+00
   -.706E+00 0.549E+01 0.193E+02   0.573E+00 -.557E+01 -.202E+02   -.265E-01 0.106E+00 0.218E+00   0.192E+00 -.623E-01 0.501E+00
   -.110E+02 -.353E+00 -.330E+02   0.111E+02 0.579E+00 0.338E+02   -.153E+00 -.681E-01 -.612E+00   0.675E-01 -.193E+00 0.373E+00
   -.475E+02 0.346E+03 0.201E+03   0.521E+02 -.364E+03 -.210E+03   -.483E+01 0.183E+02 0.913E+01   0.141E+00 -.334E+00 -.122E+00
   0.352E+03 -.570E+01 -.264E+03   -.373E+03 0.581E+01 0.278E+03   0.205E+02 -.192E+00 -.146E+02   0.210E-01 0.817E-02 0.410E+00
   -.354E+03 -.281E+01 -.257E+03   0.374E+03 0.285E+01 0.272E+03   -.206E+02 -.995E-01 -.145E+02   0.940E-02 0.363E-02 0.222E+00
   0.986E+01 -.355E+03 -.257E+03   -.976E+01 0.375E+03 0.272E+03   0.109E+00 -.204E+02 -.144E+02   -.158E+00 0.383E+00 -.736E+00
   0.559E+02 0.345E+03 -.287E+03   -.610E+02 -.364E+03 0.304E+03   0.515E+01 0.185E+02 -.166E+02   -.134E+00 -.340E+00 -.480E+00
   -.344E+03 -.556E+02 0.288E+03   0.363E+03 0.606E+02 -.305E+03   -.185E+02 -.515E+01 0.167E+02   -.557E+00 0.215E+00 -.493E+00
   -.900E+01 -.355E+03 0.234E+03   0.892E+01 0.375E+03 -.248E+03   -.345E-01 -.204E+02 0.138E+02   0.154E+00 0.331E+00 -.130E+00
   0.354E+03 -.987E+01 0.258E+03   -.375E+03 0.972E+01 -.273E+03   0.204E+02 -.136E+00 0.144E+02   0.536E+00 0.239E+00 -.312E+00
   0.278E+01 0.354E+03 0.256E+03   -.282E+01 -.374E+03 -.271E+03   0.103E+00 0.206E+02 0.145E+02   -.708E-02 0.319E-01 0.684E+00
   0.354E+03 0.900E+01 -.234E+03   -.375E+03 -.886E+01 0.248E+03   0.204E+02 0.659E-01 -.138E+02   0.525E+00 -.240E+00 -.617E-01
   -.345E+03 0.464E+02 -.201E+03   0.364E+03 -.509E+02 0.211E+03   -.183E+02 0.481E+01 -.918E+01   -.515E+00 -.218E+00 -.571E-01
   -.432E+01 -.352E+03 -.234E+03   0.446E+01 0.373E+03 0.248E+03   -.172E+00 -.204E+02 -.142E+02   0.169E-02 -.840E-01 0.161E+00
   -.236E+01 0.354E+03 -.239E+03   0.240E+01 -.374E+03 0.253E+03   -.669E-01 0.206E+02 -.142E+02   0.643E-02 0.781E-01 0.192E+00
   -.354E+03 0.238E+01 0.239E+03   0.374E+03 -.242E+01 -.253E+03   -.206E+02 0.652E-01 0.142E+02   0.158E-01 -.797E-03 0.161E+00
   0.560E+01 -.352E+03 0.263E+03   -.572E+01 0.373E+03 -.278E+03   0.186E+00 -.205E+02 0.146E+02   0.195E-02 -.641E-01 0.398E+00
   0.352E+03 0.437E+01 0.234E+03   -.373E+03 -.451E+01 -.248E+03   0.204E+02 0.176E+00 0.141E+02   -.135E-01 -.275E-02 0.171E+00
 -----------------------------------------------------------------------------------------------
   -.975E+01 0.101E+02 0.408E+00   -.114E-12 0.284E-13 0.227E-12   0.972E+01 -.100E+02 -.200E+00   0.412E-01 -.633E-01 -.180E+00
 
 
 POSITION                                       TOTAL-FORCE (eV/Angst)
 -----------------------------------------------------------------------------------
      1.51053      1.38287      2.05906         5.057691     -5.215869     -0.119547
      4.32798      2.88532      3.07873         0.087099      0.618753      0.090934
      0.00000      1.44266      1.02624        -5.085173      0.262517     -3.536730
      1.44266      2.88532      3.07873        -0.294448      5.244551      3.635140
      0.00000      4.32798      1.02624        -0.618954     -0.086835     -0.081172
      1.44266      0.00000      7.18370         0.040784     -0.060717     -0.581936
      2.88532      4.32798      5.13122         0.033413     -0.038394      0.110489
      4.32798      0.00000      7.18370         0.032007     -0.040051     -0.124033
      2.88532      1.44266      5.13122         0.060535     -0.036800      0.573158
      2.88532      1.61105      3.20805        -0.040305     -0.210798     -0.221730
      1.61105      2.88532      5.00189         0.001586     -0.075075     -0.146710
      4.15959      2.88532      5.00189        -0.060195     -0.056456     -0.099225
      0.00000      4.15959      2.94941         0.043040     -0.146994      0.003570
      0.00000      1.61105      2.94941        -0.100647     -0.319429      0.280860
      1.27427      2.88532      1.15557         0.313381      0.086348     -0.268755
      2.88532      4.15959      3.20805         0.037685     -0.127331     -0.141052
      4.49636      2.88532      1.15557         0.138758     -0.048039      0.006758
      0.00000      4.49636      7.31303         0.056076      0.071507      0.095708
      4.49636      0.00000      0.89692         0.130872     -0.027979      0.124127
      1.27427      0.00000      0.89692         0.217401      0.100326      0.262410
      2.88532      1.27427      7.05438        -0.029561      0.008721     -0.057613
      2.88532      4.49636      7.05438        -0.025784      0.050565      0.009636
      4.15959      0.00000      5.26054        -0.051818      0.025334     -0.007948
      0.00000      1.27427      7.31303         0.068939     -0.005070      0.139595
      1.61105      0.00000      5.26054        -0.012382      0.027214      0.054067
 -----------------------------------------------------------------------------------
    total drift:                                0.009884      0.027566      0.027106


--------------------------------------------------------------------------------------------------------



  FREE ENERGIE OF THE ION-ELECTRON SYSTEM (eV)
  ---------------------------------------------------
  free  energy   TOTEN  =      -192.10379828 eV

  energy  without entropy=     -192.10379828  energy(sigma->0) =     -192.10379828
 


--------------------------------------------------------------------------------------------------------


    POTLOK:  cpu time    0.3193: real time    0.3201


--------------------------------------------------------------------------------------------------------


     LOOP+:  cpu time  592.7329: real time  595.7347
    4ORBIT:  cpu time    0.0000: real time    0.0000
 


 total charge     
 
# of ion       s       p       d       tot
------------------------------------------
    1        2.215   0.672   0.000   2.888
    2        0.340   6.441   4.872  11.654
    3        0.356   6.462   4.959  11.776
    4        0.357   6.462   4.993  11.812
    5        0.340   6.440   4.839  11.619
    6        0.343   6.445   4.852  11.639
    7        0.344   6.446   4.854  11.643
    8        0.344   6.446   4.850  11.639
    9        0.343   6.445   4.855  11.643
   10        1.573   3.462   0.000   5.035
   11        1.583   3.391   0.000   4.974
   12        1.583   3.393   0.000   4.975
   13        1.582   3.392   0.000   4.974
   14        1.577   3.450   0.000   5.028
   15        1.577   3.452   0.000   5.030
   16        1.581   3.394   0.000   4.975
   17        1.582   3.394   0.000   4.976
   18        1.583   3.396   0.000   4.979
   19        1.581   3.398   0.000   4.980
   20        1.573   3.463   0.000   5.036
   21        1.582   3.396   0.000   4.978
   22        1.582   3.395   0.000   4.977
   23        1.582   3.395   0.000   4.977
   24        1.583   3.392   0.000   4.975
   25        1.582   3.395   0.000   4.977
--------------------------------------------------
tot         30.269 106.816  39.073 176.158
 


 magnetization (x)
 
# of ion       s       p       d       tot
------------------------------------------
    1        0.005   0.039   0.000   0.044
    2        0.029   0.034   2.670   2.734
    3        0.030   0.035   2.587   2.651
    4        0.029   0.034   2.561   2.624
    5        0.029   0.034   2.681   2.745
    6        0.030   0.035   2.737   2.803
    7        0.031   0.036   2.739   2.806
    8        0.031   0.036   2.742   2.810
    9        0.030   0.035   2.733   2.799
   10        0.002   0.027   0.000   0.029
   11        0.003   0.019   0.000   0.022
   12        0.003   0.019   0.000   0.022
   13        0.003   0.020   0.000   0.023
   14        0.003   0.035   0.000   0.039
   15        0.003   0.035   0.000   0.038
   16        0.003   0.009   0.000   0.012
   17        0.003   0.019   0.000   0.022
   18        0.003   0.018   0.000   0.022
   19        0.003   0.009   0.000   0.011
   20        0.002   0.026   0.000   0.028
   21        0.003   0.006   0.000   0.009
   22        0.003   0.012   0.000   0.016
   23        0.003   0.012   0.000   0.015
   24        0.003   0.018   0.000   0.021
   25        0.003   0.006   0.000   0.009
--------------------------------------------------
tot          0.294   0.609  21.452  22.355
 
 BZINTS: Fermi energy:  2.449470;203.000000 electrons
         Band energy:***********;  BLOECHL correction: -0.027131

 total amount of memory used by VASP MPI-rank0   244218. kBytes
=======================================================================

   base      :      30000. kBytes
   nonlr-proj:      17010. kBytes
   fftplans  :       7295. kBytes
   grid      :      29392. kBytes
   one-center:        777. kBytes
   wavefun   :     159744. kBytes
 
  
  
 General timing and accounting informations for this job:
 ========================================================
  
                  Total CPU time used (sec):      612.651
                            User time (sec):      604.668
                          System time (sec):        7.983
                         Elapsed time (sec):      615.682
  
                   Maximum memory used (kb):   493289472.
                   Average memory used (kb):           0.
  
                          Minor page faults:       124432
                          Major page faults:          207
                 Voluntary context switches:           36
