<?xml version="1.0" encoding="ISO-8859-1"?>
<modeling>
 <generator>
  <i name="program" type="string">vasp </i>
  <i name="version" type="string">5.3.5  </i>
  <i name="subversion" type="string">31Mar14 (build Oct 24 2014 12:38:34) complex                          parallel </i>
  <i name="platform" type="string">LinuxIFC </i>
  <i name="date" type="string">2016 10 20 </i>
  <i name="time" type="string">19:30:32 </i>
 </generator>
 <incar>
  <i type="string" name="PREC">accurate</i>
  <i type="string" name="ALGO"> Normal</i>
  <i type="int" name="ISPIN">     2</i>
  <i type="int" name="ICHARG">     0</i>
  <i type="int" name="NELM">   100</i>
  <i type="int" name="IBRION">    -1</i>
  <i name="EDIFF">      0.00025000</i>
  <i type="int" name="NSW">     0</i>
  <i type="int" name="ISIF">     3</i>
  <i name="ENCUT">    520.00000000</i>
  <v name="MAGMOM">      0.00000000      0.00000000      0.00000000      0.00000000      0.00000000</v>
  <i type="string" name="LREAL"> Auto</i>
  <i type="int" name="ISMEAR">    -5</i>
  <i name="SIGMA">      0.05000000</i>
  <i type="logical" name="LWAVE"> F  </i>
  <i type="logical" name="LCHARG"> T  </i>
  <i type="logical" name="LVHAR"> T  </i>
  <i type="logical" name="LORBIT"> F  </i>
  <i type="logical" name="LAECHG"> T  </i>
  <i type="int" name="NELM">   100</i>
  <i type="logical" name="LCALCPOL"> T  </i>
 </incar>
 <kpoints>
  <generation param="Monkhorst-Pack">
   <v type="int" name="divisions">       8        8        8 </v>
   <v name="usershift">      0.00000000       0.00000000       0.00000000 </v>
   <v name="genvec1">      0.12500000       0.00000000       0.00000000 </v>
   <v name="genvec2">      0.00000000       0.12500000       0.00000000 </v>
   <v name="genvec3">      0.00000000       0.00000000       0.12500000 </v>
   <v name="shift">      0.50000000       0.50000000       0.50000000 </v>
  </generation>
  <varray name="kpointlist" >
   <v>       0.06250000       0.06250000       0.06250000 </v>
   <v>       0.18750000       0.06250000       0.06250000 </v>
   <v>       0.31250000       0.06250000       0.06250000 </v>
   <v>       0.43750000       0.06250000       0.06250000 </v>
   <v>       0.18750000       0.18750000       0.06250000 </v>
   <v>       0.31250000       0.18750000       0.06250000 </v>
   <v>       0.43750000       0.18750000       0.06250000 </v>
   <v>       0.31250000       0.31250000       0.06250000 </v>
   <v>       0.43750000       0.31250000       0.06250000 </v>
   <v>       0.43750000       0.43750000       0.06250000 </v>
   <v>       0.06250000       0.06250000       0.18750000 </v>
   <v>       0.18750000       0.06250000       0.18750000 </v>
   <v>       0.31250000       0.06250000       0.18750000 </v>
   <v>       0.43750000       0.06250000       0.18750000 </v>
   <v>       0.18750000       0.18750000       0.18750000 </v>
   <v>       0.31250000       0.18750000       0.18750000 </v>
   <v>       0.43750000       0.18750000       0.18750000 </v>
   <v>       0.31250000       0.31250000       0.18750000 </v>
   <v>       0.43750000       0.31250000       0.18750000 </v>
   <v>       0.43750000       0.43750000       0.18750000 </v>
   <v>       0.06250000       0.06250000       0.31250000 </v>
   <v>       0.18750000       0.06250000       0.31250000 </v>
   <v>       0.31250000       0.06250000       0.31250000 </v>
   <v>       0.43750000       0.06250000       0.31250000 </v>
   <v>       0.18750000       0.18750000       0.31250000 </v>
   <v>       0.31250000       0.18750000       0.31250000 </v>
   <v>       0.43750000       0.18750000       0.31250000 </v>
   <v>       0.31250000       0.31250000       0.31250000 </v>
   <v>       0.43750000       0.31250000       0.31250000 </v>
   <v>       0.43750000       0.43750000       0.31250000 </v>
   <v>       0.06250000       0.06250000       0.43750000 </v>
   <v>       0.18750000       0.06250000       0.43750000 </v>
   <v>       0.31250000       0.06250000       0.43750000 </v>
   <v>       0.43750000       0.06250000       0.43750000 </v>
   <v>       0.18750000       0.18750000       0.43750000 </v>
   <v>       0.31250000       0.18750000       0.43750000 </v>
   <v>       0.43750000       0.18750000       0.43750000 </v>
   <v>       0.31250000       0.31250000       0.43750000 </v>
   <v>       0.43750000       0.31250000       0.43750000 </v>
   <v>       0.43750000       0.43750000       0.43750000 </v>
  </varray>
  <varray name="weights" >
   <v>       0.01562500 </v>
   <v>       0.03125000 </v>
   <v>       0.03125000 </v>
   <v>       0.03125000 </v>
   <v>       0.01562500 </v>
   <v>       0.03125000 </v>
   <v>       0.03125000 </v>
   <v>       0.01562500 </v>
   <v>       0.03125000 </v>
   <v>       0.01562500 </v>
   <v>       0.01562500 </v>
   <v>       0.03125000 </v>
   <v>       0.03125000 </v>
   <v>       0.03125000 </v>
   <v>       0.01562500 </v>
   <v>       0.03125000 </v>
   <v>       0.03125000 </v>
   <v>       0.01562500 </v>
   <v>       0.03125000 </v>
   <v>       0.01562500 </v>
   <v>       0.01562500 </v>
   <v>       0.03125000 </v>
   <v>       0.03125000 </v>
   <v>       0.03125000 </v>
   <v>       0.01562500 </v>
   <v>       0.03125000 </v>
   <v>       0.03125000 </v>
   <v>       0.01562500 </v>
   <v>       0.03125000 </v>
   <v>       0.01562500 </v>
   <v>       0.01562500 </v>
   <v>       0.03125000 </v>
   <v>       0.03125000 </v>
   <v>       0.03125000 </v>
   <v>       0.01562500 </v>
   <v>       0.03125000 </v>
   <v>       0.03125000 </v>
   <v>       0.01562500 </v>
   <v>       0.03125000 </v>
   <v>       0.01562500 </v>
  </varray>
  <varray name="tetrahedronlist"  type="int" >
   <v type="int" >        4        1        2        5       11 </v>
   <v type="int" >        4        2        5       11       12 </v>
   <v type="int" >        4        5       11       12       15 </v>
   <v type="int" >        4        2        3        6       12 </v>
   <v type="int" >        4        2        5        6       12 </v>
   <v type="int" >        4        5        6       12       15 </v>
   <v type="int" >        4        3        6       12       13 </v>
   <v type="int" >        4        6       12       13       16 </v>
   <v type="int" >        4        6       12       15       16 </v>
   <v type="int" >        4        3        4        7       13 </v>
   <v type="int" >        4        3        6        7       13 </v>
   <v type="int" >        4        6        7       13       16 </v>
   <v type="int" >        4        4        7       13       14 </v>
   <v type="int" >        4        7       13       14       17 </v>
   <v type="int" >        4        7       13       16       17 </v>
   <v type="int" >        4        4        4        7       14 </v>
   <v type="int" >        4        4        7        7       14 </v>
   <v type="int" >        4        7        7       14       17 </v>
   <v type="int" >        4        4        7       14       14 </v>
   <v type="int" >        4        7       14       14       17 </v>
   <v type="int" >        4        7       14       17       17 </v>
   <v type="int" >        4        3        4        6       14 </v>
   <v type="int" >        4        4        6        7       14 </v>
   <v type="int" >        4        6        7       14       17 </v>
   <v type="int" >        4        3        6       13       14 </v>
   <v type="int" >        4        6       13       14       16 </v>
   <v type="int" >        4        6       14       16       17 </v>
   <v type="int" >        4        2        3        5       13 </v>
   <v type="int" >        4        3        5        6       13 </v>
   <v type="int" >        4        5        6       13       16 </v>
   <v type="int" >        4        2        5       12       13 </v>
   <v type="int" >        4        5       12       13       15 </v>
   <v type="int" >        4        5       13       15       16 </v>
   <v type="int" >        8        1        2        2       12 </v>
   <v type="int" >        4        2        2        5       12 </v>
   <v type="int" >        4        2        5       12       15 </v>
   <v type="int" >        4        1        2       11       12 </v>
   <v type="int" >        8        2       11       12       12 </v>
   <v type="int" >        4        2       12       12       15 </v>
   <v type="int" >        4        1        1        2       11 </v>
   <v type="int" >        4        1        2        2       11 </v>
   <v type="int" >        4        2        2       11       12 </v>
   <v type="int" >        4        1        2       11       11 </v>
   <v type="int" >        4        2       11       11       12 </v>
   <v type="int" >        4        5        6        8       15 </v>
   <v type="int" >        4        6        8       15       16 </v>
   <v type="int" >        4        8       15       16       18 </v>
   <v type="int" >        4        6        7        9       16 </v>
   <v type="int" >        4        6        8        9       16 </v>
   <v type="int" >        4        8        9       16       18 </v>
   <v type="int" >        4        7        9       16       17 </v>
   <v type="int" >        4        9       16       17       19 </v>
   <v type="int" >        4        9       16       18       19 </v>
   <v type="int" >        4        7        7        9       17 </v>
   <v type="int" >        4        7        9        9       17 </v>
   <v type="int" >        4        9        9       17       19 </v>
   <v type="int" >        4        7        9       17       17 </v>
   <v type="int" >        4        9       17       17       19 </v>
   <v type="int" >        4        9       17       19       19 </v>
   <v type="int" >        4        6        7        8       17 </v>
   <v type="int" >        4        7        8        9       17 </v>
   <v type="int" >        4        8        9       17       19 </v>
   <v type="int" >        4        6        8       16       17 </v>
   <v type="int" >        4        8       16       17       18 </v>
   <v type="int" >        4        8       17       18       19 </v>
   <v type="int" >        4        5        6        6       16 </v>
   <v type="int" >        4        6        6        8       16 </v>
   <v type="int" >        4        6        8       16       18 </v>
   <v type="int" >        4        5        6       15       16 </v>
   <v type="int" >        4        6       15       16       16 </v>
   <v type="int" >        4        6       16       16       18 </v>
   <v type="int" >        4        2        3        5       15 </v>
   <v type="int" >        4        3        5        6       15 </v>
   <v type="int" >        4        3        6       15       16 </v>
   <v type="int" >        4        2        3       12       15 </v>
   <v type="int" >        4        3       12       13       15 </v>
   <v type="int" >        4        3       13       15       16 </v>
   <v type="int" >        4        2        2        3       12 </v>
   <v type="int" >        4        2        3        3       12 </v>
   <v type="int" >        4        3        3       12       13 </v>
   <v type="int" >        4        2        3       12       12 </v>
   <v type="int" >        4        3       12       12       13 </v>
   <v type="int" >        4        3       12       13       13 </v>
   <v type="int" >        4        8        9       10       18 </v>
   <v type="int" >        4        9       10       18       19 </v>
   <v type="int" >        4       10       18       19       20 </v>
   <v type="int" >        8        9        9       10       19 </v>
   <v type="int" >        4        9       10       10       19 </v>
   <v type="int" >        4       10       10       19       20 </v>
   <v type="int" >        4        9       10       19       19 </v>
   <v type="int" >        4       10       19       19       20 </v>
   <v type="int" >        4       10       19       20       20 </v>
   <v type="int" >        4        8        9        9       19 </v>
   <v type="int" >        4        9       10       19       20 </v>
   <v type="int" >        4        8        9       18       19 </v>
   <v type="int" >        4        9       18       19       19 </v>
   <v type="int" >        8        9       19       19       20 </v>
   <v type="int" >        4        6        7        8       18 </v>
   <v type="int" >        4        7        8        9       18 </v>
   <v type="int" >        4        7        9       18       19 </v>
   <v type="int" >        4        6        7       16       18 </v>
   <v type="int" >        4        7       16       17       18 </v>
   <v type="int" >        4        7       17       18       19 </v>
   <v type="int" >        4        3        4        6       16 </v>
   <v type="int" >        4        4        6        7       16 </v>
   <v type="int" >        4        4        7       16       17 </v>
   <v type="int" >        4        3        4       13       16 </v>
   <v type="int" >        4        4       13       14       16 </v>
   <v type="int" >        4        4       14       16       17 </v>
   <v type="int" >        4        3        3        4       13 </v>
   <v type="int" >        4        3        4        4       13 </v>
   <v type="int" >        4        4        4       13       14 </v>
   <v type="int" >        4        3        4       13       13 </v>
   <v type="int" >        4        4       13       13       14 </v>
   <v type="int" >        4        4       13       14       14 </v>
   <v type="int" >        4       10       10       10       20 </v>
   <v type="int" >        4       10       10       20       20 </v>
   <v type="int" >        4       10       20       20       20 </v>
   <v type="int" >        4        9        9       10       20 </v>
   <v type="int" >        4        9       10       10       20 </v>
   <v type="int" >        4        9       10       20       20 </v>
   <v type="int" >        4        9        9       19       20 </v>
   <v type="int" >        4        9       19       20       20 </v>
   <v type="int" >        4        7        7        9       19 </v>
   <v type="int" >        4        7        9        9       19 </v>
   <v type="int" >        4        7        9       19       19 </v>
   <v type="int" >        4        7        7       17       19 </v>
   <v type="int" >        4        7       17       17       19 </v>
   <v type="int" >        4        7       17       19       19 </v>
   <v type="int" >        4        4        4        7       17 </v>
   <v type="int" >        4        4        7        7       17 </v>
   <v type="int" >        4        4        7       17       17 </v>
   <v type="int" >        4        4        4       14       17 </v>
   <v type="int" >        4        4       14       14       17 </v>
   <v type="int" >        4        4       14       17       17 </v>
   <v type="int" >        8        4        4        4       14 </v>
   <v type="int" >        8        4        4       14       14 </v>
   <v type="int" >        8        4       14       14       14 </v>
   <v type="int" >        4        8        9       10       20 </v>
   <v type="int" >        4        8        9       19       20 </v>
   <v type="int" >        4        8       18       19       20 </v>
   <v type="int" >        4        6        7        9       19 </v>
   <v type="int" >        4        6        8        9       19 </v>
   <v type="int" >        4        6        8       18       19 </v>
   <v type="int" >        4        6        7       17       19 </v>
   <v type="int" >        4        6       16       17       19 </v>
   <v type="int" >        4        6       16       18       19 </v>
   <v type="int" >        4        3        4        7       17 </v>
   <v type="int" >        4        3        6        7       17 </v>
   <v type="int" >        4        3        6       16       17 </v>
   <v type="int" >        4        3        4       14       17 </v>
   <v type="int" >        4        3       13       14       17 </v>
   <v type="int" >        4        3       13       16       17 </v>
   <v type="int" >        4        3        4        4       14 </v>
   <v type="int" >        4        3        3        4       14 </v>
   <v type="int" >        4        3        3       13       14 </v>
   <v type="int" >        4        3        4       14       14 </v>
   <v type="int" >        4        3       13       14       14 </v>
   <v type="int" >        4        3       13       13       14 </v>
   <v type="int" >        4        5        6        8       18 </v>
   <v type="int" >        4        5        6       16       18 </v>
   <v type="int" >        4        5       15       16       18 </v>
   <v type="int" >        4        2        3        6       16 </v>
   <v type="int" >        4        2        5        6       16 </v>
   <v type="int" >        4        2        5       15       16 </v>
   <v type="int" >        4        2        3       13       16 </v>
   <v type="int" >        4        2       12       13       16 </v>
   <v type="int" >        4        2       12       15       16 </v>
   <v type="int" >        4        2        3        3       13 </v>
   <v type="int" >        4        2        2        3       13 </v>
   <v type="int" >        4        2        2       12       13 </v>
   <v type="int" >        4        2        3       13       13 </v>
   <v type="int" >        4        2       12       13       13 </v>
   <v type="int" >        4        2       12       12       13 </v>
   <v type="int" >        4        1        2        5       15 </v>
   <v type="int" >        4        1        2       12       15 </v>
   <v type="int" >        4        1       11       12       15 </v>
   <v type="int" >        4        1        1        2       12 </v>
   <v type="int" >        4        1        1       11       12 </v>
   <v type="int" >        4        1        2       12       12 </v>
   <v type="int" >        4        1       11       12       12 </v>
   <v type="int" >        4        1       11       11       12 </v>
   <v type="int" >        4        1        1        1       11 </v>
   <v type="int" >        4        1        1       11       11 </v>
   <v type="int" >        4        1       11       11       11 </v>
   <v type="int" >        4       11       12       15       21 </v>
   <v type="int" >        4       12       15       21       22 </v>
   <v type="int" >        4       15       21       22       25 </v>
   <v type="int" >        4       12       13       16       22 </v>
   <v type="int" >        4       12       15       16       22 </v>
   <v type="int" >        4       15       16       22       25 </v>
   <v type="int" >        4       13       16       22       23 </v>
   <v type="int" >        4       16       22       23       26 </v>
   <v type="int" >        4       16       22       25       26 </v>
   <v type="int" >        4       13       14       17       23 </v>
   <v type="int" >        4       13       16       17       23 </v>
   <v type="int" >        4       16       17       23       26 </v>
   <v type="int" >        4       14       17       23       24 </v>
   <v type="int" >        4       17       23       24       27 </v>
   <v type="int" >        4       17       23       26       27 </v>
   <v type="int" >        4       14       14       17       24 </v>
   <v type="int" >        4       14       17       17       24 </v>
   <v type="int" >        4       17       17       24       27 </v>
   <v type="int" >        4       14       17       24       24 </v>
   <v type="int" >        4       17       24       24       27 </v>
   <v type="int" >        4       17       24       27       27 </v>
   <v type="int" >        4       13       14       16       24 </v>
   <v type="int" >        4       14       16       17       24 </v>
   <v type="int" >        4       16       17       24       27 </v>
   <v type="int" >        4       13       16       23       24 </v>
   <v type="int" >        4       16       23       24       26 </v>
   <v type="int" >        4       16       24       26       27 </v>
   <v type="int" >        4       12       13       15       23 </v>
   <v type="int" >        4       13       15       16       23 </v>
   <v type="int" >        4       15       16       23       26 </v>
   <v type="int" >        4       12       15       22       23 </v>
   <v type="int" >        4       15       22       23       25 </v>
   <v type="int" >        4       15       23       25       26 </v>
   <v type="int" >        8       11       12       12       22 </v>
   <v type="int" >        4       12       12       15       22 </v>
   <v type="int" >        4       12       15       22       25 </v>
   <v type="int" >        4       11       12       21       22 </v>
   <v type="int" >        8       12       21       22       22 </v>
   <v type="int" >        4       12       22       22       25 </v>
   <v type="int" >        4       11       11       12       21 </v>
   <v type="int" >        4       11       12       12       21 </v>
   <v type="int" >        4       12       12       21       22 </v>
   <v type="int" >        4       11       12       21       21 </v>
   <v type="int" >        4       12       21       21       22 </v>
   <v type="int" >        4       15       16       18       25 </v>
   <v type="int" >        4       16       18       25       26 </v>
   <v type="int" >        4       18       25       26       28 </v>
   <v type="int" >        4       16       17       19       26 </v>
   <v type="int" >        4       16       18       19       26 </v>
   <v type="int" >        4       18       19       26       28 </v>
   <v type="int" >        4       17       19       26       27 </v>
   <v type="int" >        4       19       26       27       29 </v>
   <v type="int" >        4       19       26       28       29 </v>
   <v type="int" >        4       17       17       19       27 </v>
   <v type="int" >        4       17       19       19       27 </v>
   <v type="int" >        4       19       19       27       29 </v>
   <v type="int" >        4       17       19       27       27 </v>
   <v type="int" >        4       19       27       27       29 </v>
   <v type="int" >        4       19       27       29       29 </v>
   <v type="int" >        4       16       17       18       27 </v>
   <v type="int" >        4       17       18       19       27 </v>
   <v type="int" >        4       18       19       27       29 </v>
   <v type="int" >        4       16       18       26       27 </v>
   <v type="int" >        4       18       26       27       28 </v>
   <v type="int" >        4       18       27       28       29 </v>
   <v type="int" >        4       15       16       16       26 </v>
   <v type="int" >        4       16       16       18       26 </v>
   <v type="int" >        4       16       18       26       28 </v>
   <v type="int" >        4       15       16       25       26 </v>
   <v type="int" >        4       16       25       26       26 </v>
   <v type="int" >        4       16       26       26       28 </v>
   <v type="int" >        4       12       13       15       25 </v>
   <v type="int" >        4       13       15       16       25 </v>
   <v type="int" >        4       13       16       25       26 </v>
   <v type="int" >        4       12       13       22       25 </v>
   <v type="int" >        4       13       22       23       25 </v>
   <v type="int" >        4       13       23       25       26 </v>
   <v type="int" >        4       12       12       13       22 </v>
   <v type="int" >        4       12       13       13       22 </v>
   <v type="int" >        4       13       13       22       23 </v>
   <v type="int" >        4       12       13       22       22 </v>
   <v type="int" >        4       13       22       22       23 </v>
   <v type="int" >        4       13       22       23       23 </v>
   <v type="int" >        4       18       19       20       28 </v>
   <v type="int" >        4       19       20       28       29 </v>
   <v type="int" >        4       20       28       29       30 </v>
   <v type="int" >        8       19       19       20       29 </v>
   <v type="int" >        4       19       20       20       29 </v>
   <v type="int" >        4       20       20       29       30 </v>
   <v type="int" >        4       19       20       29       29 </v>
   <v type="int" >        4       20       29       29       30 </v>
   <v type="int" >        4       20       29       30       30 </v>
   <v type="int" >        4       18       19       19       29 </v>
   <v type="int" >        4       19       20       29       30 </v>
   <v type="int" >        4       18       19       28       29 </v>
   <v type="int" >        4       19       28       29       29 </v>
   <v type="int" >        8       19       29       29       30 </v>
   <v type="int" >        4       16       17       18       28 </v>
   <v type="int" >        4       17       18       19       28 </v>
   <v type="int" >        4       17       19       28       29 </v>
   <v type="int" >        4       16       17       26       28 </v>
   <v type="int" >        4       17       26       27       28 </v>
   <v type="int" >        4       17       27       28       29 </v>
   <v type="int" >        4       13       14       16       26 </v>
   <v type="int" >        4       14       16       17       26 </v>
   <v type="int" >        4       14       17       26       27 </v>
   <v type="int" >        4       13       14       23       26 </v>
   <v type="int" >        4       14       23       24       26 </v>
   <v type="int" >        4       14       24       26       27 </v>
   <v type="int" >        4       13       13       14       23 </v>
   <v type="int" >        4       13       14       14       23 </v>
   <v type="int" >        4       14       14       23       24 </v>
   <v type="int" >        4       13       14       23       23 </v>
   <v type="int" >        4       14       23       23       24 </v>
   <v type="int" >        4       14       23       24       24 </v>
   <v type="int" >        4       20       20       20       30 </v>
   <v type="int" >        4       20       20       30       30 </v>
   <v type="int" >        4       20       30       30       30 </v>
   <v type="int" >        4       19       19       20       30 </v>
   <v type="int" >        4       19       20       20       30 </v>
   <v type="int" >        4       19       20       30       30 </v>
   <v type="int" >        4       19       19       29       30 </v>
   <v type="int" >        4       19       29       30       30 </v>
   <v type="int" >        4       17       17       19       29 </v>
   <v type="int" >        4       17       19       19       29 </v>
   <v type="int" >        4       17       19       29       29 </v>
   <v type="int" >        4       17       17       27       29 </v>
   <v type="int" >        4       17       27       27       29 </v>
   <v type="int" >        4       17       27       29       29 </v>
   <v type="int" >        4       14       14       17       27 </v>
   <v type="int" >        4       14       17       17       27 </v>
   <v type="int" >        4       14       17       27       27 </v>
   <v type="int" >        4       14       14       24       27 </v>
   <v type="int" >        4       14       24       24       27 </v>
   <v type="int" >        4       14       24       27       27 </v>
   <v type="int" >        8       14       14       14       24 </v>
   <v type="int" >        8       14       14       24       24 </v>
   <v type="int" >        8       14       24       24       24 </v>
   <v type="int" >        4       18       19       20       30 </v>
   <v type="int" >        4       18       19       29       30 </v>
   <v type="int" >        4       18       28       29       30 </v>
   <v type="int" >        4       16       17       19       29 </v>
   <v type="int" >        4       16       18       19       29 </v>
   <v type="int" >        4       16       18       28       29 </v>
   <v type="int" >        4       16       17       27       29 </v>
   <v type="int" >        4       16       26       27       29 </v>
   <v type="int" >        4       16       26       28       29 </v>
   <v type="int" >        4       13       14       17       27 </v>
   <v type="int" >        4       13       16       17       27 </v>
   <v type="int" >        4       13       16       26       27 </v>
   <v type="int" >        4       13       14       24       27 </v>
   <v type="int" >        4       13       23       24       27 </v>
   <v type="int" >        4       13       23       26       27 </v>
   <v type="int" >        4       13       14       14       24 </v>
   <v type="int" >        4       13       13       14       24 </v>
   <v type="int" >        4       13       13       23       24 </v>
   <v type="int" >        4       13       14       24       24 </v>
   <v type="int" >        4       13       23       24       24 </v>
   <v type="int" >        4       13       23       23       24 </v>
   <v type="int" >        4       15       16       18       28 </v>
   <v type="int" >        4       15       16       26       28 </v>
   <v type="int" >        4       15       25       26       28 </v>
   <v type="int" >        4       12       13       16       26 </v>
   <v type="int" >        4       12       15       16       26 </v>
   <v type="int" >        4       12       15       25       26 </v>
   <v type="int" >        4       12       13       23       26 </v>
   <v type="int" >        4       12       22       23       26 </v>
   <v type="int" >        4       12       22       25       26 </v>
   <v type="int" >        4       12       13       13       23 </v>
   <v type="int" >        4       12       12       13       23 </v>
   <v type="int" >        4       12       12       22       23 </v>
   <v type="int" >        4       12       13       23       23 </v>
   <v type="int" >        4       12       22       23       23 </v>
   <v type="int" >        4       12       22       22       23 </v>
   <v type="int" >        4       11       12       15       25 </v>
   <v type="int" >        4       11       12       22       25 </v>
   <v type="int" >        4       11       21       22       25 </v>
   <v type="int" >        4       11       11       12       22 </v>
   <v type="int" >        4       11       11       21       22 </v>
   <v type="int" >        4       11       12       22       22 </v>
   <v type="int" >        4       11       21       22       22 </v>
   <v type="int" >        4       11       21       21       22 </v>
   <v type="int" >        4       11       11       11       21 </v>
   <v type="int" >        4       11       11       21       21 </v>
   <v type="int" >        4       11       21       21       21 </v>
   <v type="int" >        4       21       22       25       31 </v>
   <v type="int" >        4       22       25       31       32 </v>
   <v type="int" >        4       25       31       32       35 </v>
   <v type="int" >        4       22       23       26       32 </v>
   <v type="int" >        4       22       25       26       32 </v>
   <v type="int" >        4       25       26       32       35 </v>
   <v type="int" >        4       23       26       32       33 </v>
   <v type="int" >        4       26       32       33       36 </v>
   <v type="int" >        4       26       32       35       36 </v>
   <v type="int" >        4       23       24       27       33 </v>
   <v type="int" >        4       23       26       27       33 </v>
   <v type="int" >        4       26       27       33       36 </v>
   <v type="int" >        4       24       27       33       34 </v>
   <v type="int" >        4       27       33       34       37 </v>
   <v type="int" >        4       27       33       36       37 </v>
   <v type="int" >        4       24       24       27       34 </v>
   <v type="int" >        4       24       27       27       34 </v>
   <v type="int" >        4       27       27       34       37 </v>
   <v type="int" >        4       24       27       34       34 </v>
   <v type="int" >        4       27       34       34       37 </v>
   <v type="int" >        4       27       34       37       37 </v>
   <v type="int" >        4       23       24       26       34 </v>
   <v type="int" >        4       24       26       27       34 </v>
   <v type="int" >        4       26       27       34       37 </v>
   <v type="int" >        4       23       26       33       34 </v>
   <v type="int" >        4       26       33       34       36 </v>
   <v type="int" >        4       26       34       36       37 </v>
   <v type="int" >        4       22       23       25       33 </v>
   <v type="int" >        4       23       25       26       33 </v>
   <v type="int" >        4       25       26       33       36 </v>
   <v type="int" >        4       22       25       32       33 </v>
   <v type="int" >        4       25       32       33       35 </v>
   <v type="int" >        4       25       33       35       36 </v>
   <v type="int" >        8       21       22       22       32 </v>
   <v type="int" >        4       22       22       25       32 </v>
   <v type="int" >        4       22       25       32       35 </v>
   <v type="int" >        4       21       22       31       32 </v>
   <v type="int" >        8       22       31       32       32 </v>
   <v type="int" >        4       22       32       32       35 </v>
   <v type="int" >        4       21       21       22       31 </v>
   <v type="int" >        4       21       22       22       31 </v>
   <v type="int" >        4       22       22       31       32 </v>
   <v type="int" >        4       21       22       31       31 </v>
   <v type="int" >        4       22       31       31       32 </v>
   <v type="int" >        4       25       26       28       35 </v>
   <v type="int" >        4       26       28       35       36 </v>
   <v type="int" >        4       28       35       36       38 </v>
   <v type="int" >        4       26       27       29       36 </v>
   <v type="int" >        4       26       28       29       36 </v>
   <v type="int" >        4       28       29       36       38 </v>
   <v type="int" >        4       27       29       36       37 </v>
   <v type="int" >        4       29       36       37       39 </v>
   <v type="int" >        4       29       36       38       39 </v>
   <v type="int" >        4       27       27       29       37 </v>
   <v type="int" >        4       27       29       29       37 </v>
   <v type="int" >        4       29       29       37       39 </v>
   <v type="int" >        4       27       29       37       37 </v>
   <v type="int" >        4       29       37       37       39 </v>
   <v type="int" >        4       29       37       39       39 </v>
   <v type="int" >        4       26       27       28       37 </v>
   <v type="int" >        4       27       28       29       37 </v>
   <v type="int" >        4       28       29       37       39 </v>
   <v type="int" >        4       26       28       36       37 </v>
   <v type="int" >        4       28       36       37       38 </v>
   <v type="int" >        4       28       37       38       39 </v>
   <v type="int" >        4       25       26       26       36 </v>
   <v type="int" >        4       26       26       28       36 </v>
   <v type="int" >        4       26       28       36       38 </v>
   <v type="int" >        4       25       26       35       36 </v>
   <v type="int" >        4       26       35       36       36 </v>
   <v type="int" >        4       26       36       36       38 </v>
   <v type="int" >        4       22       23       25       35 </v>
   <v type="int" >        4       23       25       26       35 </v>
   <v type="int" >        4       23       26       35       36 </v>
   <v type="int" >        4       22       23       32       35 </v>
   <v type="int" >        4       23       32       33       35 </v>
   <v type="int" >        4       23       33       35       36 </v>
   <v type="int" >        4       22       22       23       32 </v>
   <v type="int" >        4       22       23       23       32 </v>
   <v type="int" >        4       23       23       32       33 </v>
   <v type="int" >        4       22       23       32       32 </v>
   <v type="int" >        4       23       32       32       33 </v>
   <v type="int" >        4       23       32       33       33 </v>
   <v type="int" >        4       28       29       30       38 </v>
   <v type="int" >        4       29       30       38       39 </v>
   <v type="int" >        4       30       38       39       40 </v>
   <v type="int" >        8       29       29       30       39 </v>
   <v type="int" >        4       29       30       30       39 </v>
   <v type="int" >        4       30       30       39       40 </v>
   <v type="int" >        4       29       30       39       39 </v>
   <v type="int" >        4       30       39       39       40 </v>
   <v type="int" >        4       30       39       40       40 </v>
   <v type="int" >        4       28       29       29       39 </v>
   <v type="int" >        4       29       30       39       40 </v>
   <v type="int" >        4       28       29       38       39 </v>
   <v type="int" >        4       29       38       39       39 </v>
   <v type="int" >        8       29       39       39       40 </v>
   <v type="int" >        4       26       27       28       38 </v>
   <v type="int" >        4       27       28       29       38 </v>
   <v type="int" >        4       27       29       38       39 </v>
   <v type="int" >        4       26       27       36       38 </v>
   <v type="int" >        4       27       36       37       38 </v>
   <v type="int" >        4       27       37       38       39 </v>
   <v type="int" >        4       23       24       26       36 </v>
   <v type="int" >        4       24       26       27       36 </v>
   <v type="int" >        4       24       27       36       37 </v>
   <v type="int" >        4       23       24       33       36 </v>
   <v type="int" >        4       24       33       34       36 </v>
   <v type="int" >        4       24       34       36       37 </v>
   <v type="int" >        4       23       23       24       33 </v>
   <v type="int" >        4       23       24       24       33 </v>
   <v type="int" >        4       24       24       33       34 </v>
   <v type="int" >        4       23       24       33       33 </v>
   <v type="int" >        4       24       33       33       34 </v>
   <v type="int" >        4       24       33       34       34 </v>
   <v type="int" >        4       30       30       30       40 </v>
   <v type="int" >        4       30       30       40       40 </v>
   <v type="int" >        4       30       40       40       40 </v>
   <v type="int" >        4       29       29       30       40 </v>
   <v type="int" >        4       29       30       30       40 </v>
   <v type="int" >        4       29       30       40       40 </v>
   <v type="int" >        4       29       29       39       40 </v>
   <v type="int" >        4       29       39       40       40 </v>
   <v type="int" >        4       27       27       29       39 </v>
   <v type="int" >        4       27       29       29       39 </v>
   <v type="int" >        4       27       29       39       39 </v>
   <v type="int" >        4       27       27       37       39 </v>
   <v type="int" >        4       27       37       37       39 </v>
   <v type="int" >        4       27       37       39       39 </v>
   <v type="int" >        4       24       24       27       37 </v>
   <v type="int" >        4       24       27       27       37 </v>
   <v type="int" >        4       24       27       37       37 </v>
   <v type="int" >        4       24       24       34       37 </v>
   <v type="int" >        4       24       34       34       37 </v>
   <v type="int" >        4       24       34       37       37 </v>
   <v type="int" >        8       24       24       24       34 </v>
   <v type="int" >        8       24       24       34       34 </v>
   <v type="int" >        8       24       34       34       34 </v>
   <v type="int" >        4       28       29       30       40 </v>
   <v type="int" >        4       28       29       39       40 </v>
   <v type="int" >        4       28       38       39       40 </v>
   <v type="int" >        4       26       27       29       39 </v>
   <v type="int" >        4       26       28       29       39 </v>
   <v type="int" >        4       26       28       38       39 </v>
   <v type="int" >        4       26       27       37       39 </v>
   <v type="int" >        4       26       36       37       39 </v>
   <v type="int" >        4       26       36       38       39 </v>
   <v type="int" >        4       23       24       27       37 </v>
   <v type="int" >        4       23       26       27       37 </v>
   <v type="int" >        4       23       26       36       37 </v>
   <v type="int" >        4       23       24       34       37 </v>
   <v type="int" >        4       23       33       34       37 </v>
   <v type="int" >        4       23       33       36       37 </v>
   <v type="int" >        4       23       24       24       34 </v>
   <v type="int" >        4       23       23       24       34 </v>
   <v type="int" >        4       23       23       33       34 </v>
   <v type="int" >        4       23       24       34       34 </v>
   <v type="int" >        4       23       33       34       34 </v>
   <v type="int" >        4       23       33       33       34 </v>
   <v type="int" >        4       25       26       28       38 </v>
   <v type="int" >        4       25       26       36       38 </v>
   <v type="int" >        4       25       35       36       38 </v>
   <v type="int" >        4       22       23       26       36 </v>
   <v type="int" >        4       22       25       26       36 </v>
   <v type="int" >        4       22       25       35       36 </v>
   <v type="int" >        4       22       23       33       36 </v>
   <v type="int" >        4       22       32       33       36 </v>
   <v type="int" >        4       22       32       35       36 </v>
   <v type="int" >        4       22       23       23       33 </v>
   <v type="int" >        4       22       22       23       33 </v>
   <v type="int" >        4       22       22       32       33 </v>
   <v type="int" >        4       22       23       33       33 </v>
   <v type="int" >        4       22       32       33       33 </v>
   <v type="int" >        4       22       32       32       33 </v>
   <v type="int" >        4       21       22       25       35 </v>
   <v type="int" >        4       21       22       32       35 </v>
   <v type="int" >        4       21       31       32       35 </v>
   <v type="int" >        4       21       21       22       32 </v>
   <v type="int" >        4       21       21       31       32 </v>
   <v type="int" >        4       21       22       32       32 </v>
   <v type="int" >        4       21       31       32       32 </v>
   <v type="int" >        4       21       31       31       32 </v>
   <v type="int" >        4       21       21       21       31 </v>
   <v type="int" >        4       21       21       31       31 </v>
   <v type="int" >        4       21       31       31       31 </v>
   <v type="int" >        4       31       31       32       35 </v>
   <v type="int" >        4       31       32       32       35 </v>
   <v type="int" >        4       31       32       35       35 </v>
   <v type="int" >        4       32       32       33       36 </v>
   <v type="int" >        4       32       32       35       36 </v>
   <v type="int" >        4       32       35       35       36 </v>
   <v type="int" >        4       32       33       33       36 </v>
   <v type="int" >        4       32       33       36       36 </v>
   <v type="int" >        4       32       35       36       36 </v>
   <v type="int" >        4       33       33       34       37 </v>
   <v type="int" >        4       33       33       36       37 </v>
   <v type="int" >        4       33       36       36       37 </v>
   <v type="int" >        4       33       34       34       37 </v>
   <v type="int" >        4       33       34       37       37 </v>
   <v type="int" >        4       33       36       37       37 </v>
   <v type="int" >        8       34       34       34       37 </v>
   <v type="int" >        8       34       34       37       37 </v>
   <v type="int" >        8       34       37       37       37 </v>
   <v type="int" >        4       33       34       34       36 </v>
   <v type="int" >        4       34       34       36       37 </v>
   <v type="int" >        4       34       36       37       37 </v>
   <v type="int" >        4       33       33       34       36 </v>
   <v type="int" >        4       33       34       36       36 </v>
   <v type="int" >        4       34       36       36       37 </v>
   <v type="int" >        4       32       33       33       35 </v>
   <v type="int" >        4       33       33       35       36 </v>
   <v type="int" >        4       33       35       36       36 </v>
   <v type="int" >        4       32       32       33       35 </v>
   <v type="int" >        4       32       33       35       35 </v>
   <v type="int" >        4       33       35       35       36 </v>
   <v type="int" >       12       31       32       32       32 </v>
   <v type="int" >        4       32       32       32       35 </v>
   <v type="int" >        2       32       32       35       35 </v>
   <v type="int" >       10       31       31       32       32 </v>
   <v type="int" >        8       31       31       31       32 </v>
   <v type="int" >        4       35       35       36       38 </v>
   <v type="int" >        4       35       36       36       38 </v>
   <v type="int" >        4       35       36       38       38 </v>
   <v type="int" >        4       36       36       37       39 </v>
   <v type="int" >        4       36       36       38       39 </v>
   <v type="int" >        4       36       38       38       39 </v>
   <v type="int" >        4       36       37       37       39 </v>
   <v type="int" >        4       36       37       39       39 </v>
   <v type="int" >        4       36       38       39       39 </v>
   <v type="int" >        8       37       37       37       39 </v>
   <v type="int" >        8       37       37       39       39 </v>
   <v type="int" >        8       37       39       39       39 </v>
   <v type="int" >        4       36       37       37       38 </v>
   <v type="int" >        4       37       37       38       39 </v>
   <v type="int" >        4       37       38       39       39 </v>
   <v type="int" >        4       36       36       37       38 </v>
   <v type="int" >        4       36       37       38       38 </v>
   <v type="int" >        4       37       38       38       39 </v>
   <v type="int" >        4       35       36       36       36 </v>
   <v type="int" >        4       36       36       36       38 </v>
   <v type="int" >        2       36       36       38       38 </v>
   <v type="int" >        2       35       35       36       36 </v>
   <v type="int" >        8       32       32       32       33 </v>
   <v type="int" >        8       32       32       33       33 </v>
   <v type="int" >        8       32       33       33       33 </v>
   <v type="int" >        4       38       38       39       40 </v>
   <v type="int" >        4       38       39       39       40 </v>
   <v type="int" >        4       38       39       40       40 </v>
   <v type="int" >       12       39       39       39       40 </v>
   <v type="int" >       10       39       39       40       40 </v>
   <v type="int" >        8       39       40       40       40 </v>
   <v type="int" >        4       38       39       39       39 </v>
   <v type="int" >        2       38       38       39       39 </v>
   <v type="int" >        8       33       33       33       34 </v>
   <v type="int" >        8       33       33       34       34 </v>
   <v type="int" >        8       33       34       34       34 </v>
   <v type="int" >        6       40       40       40       40 </v>
   <v type="int" >       12       34       34       34       34 </v>
   <v type="int" >        6       31       31       31       31 </v>
   <v type="int" >        4        1        1        2        5 </v>
   <v type="int" >        4        1        2        2        5 </v>
   <v type="int" >        4        1        2        5        5 </v>
   <v type="int" >        4        2        2        3        6 </v>
   <v type="int" >        4        2        2        5        6 </v>
   <v type="int" >        4        2        5        5        6 </v>
   <v type="int" >        4        2        3        3        6 </v>
   <v type="int" >        4        2        3        6        6 </v>
   <v type="int" >        4        2        5        6        6 </v>
   <v type="int" >        4        3        3        4        7 </v>
   <v type="int" >        4        3        3        6        7 </v>
   <v type="int" >        4        3        6        6        7 </v>
   <v type="int" >        4        3        4        4        7 </v>
   <v type="int" >        4        3        4        7        7 </v>
   <v type="int" >        4        3        6        7        7 </v>
   <v type="int" >        8        4        4        4        7 </v>
   <v type="int" >        8        4        4        7        7 </v>
   <v type="int" >        8        4        7        7        7 </v>
   <v type="int" >        4        3        4        4        6 </v>
   <v type="int" >        4        4        4        6        7 </v>
   <v type="int" >        4        4        6        7        7 </v>
   <v type="int" >        4        3        3        4        6 </v>
   <v type="int" >        4        3        4        6        6 </v>
   <v type="int" >        4        4        6        6        7 </v>
   <v type="int" >        4        2        3        3        5 </v>
   <v type="int" >        4        3        3        5        6 </v>
   <v type="int" >        4        3        5        6        6 </v>
   <v type="int" >        4        2        2        3        5 </v>
   <v type="int" >        4        2        3        5        5 </v>
   <v type="int" >        4        3        5        5        6 </v>
   <v type="int" >       12        1        2        2        2 </v>
   <v type="int" >        4        2        2        2        5 </v>
   <v type="int" >        2        2        2        5        5 </v>
   <v type="int" >       10        1        1        2        2 </v>
   <v type="int" >        8        1        1        1        2 </v>
   <v type="int" >        4        5        5        6        8 </v>
   <v type="int" >        4        5        6        6        8 </v>
   <v type="int" >        4        5        6        8        8 </v>
   <v type="int" >        4        6        6        7        9 </v>
   <v type="int" >        4        6        6        8        9 </v>
   <v type="int" >        4        6        8        8        9 </v>
   <v type="int" >        4        6        7        7        9 </v>
   <v type="int" >        4        6        7        9        9 </v>
   <v type="int" >        4        6        8        9        9 </v>
   <v type="int" >        8        7        7        7        9 </v>
   <v type="int" >        8        7        7        9        9 </v>
   <v type="int" >        8        7        9        9        9 </v>
   <v type="int" >        4        6        7        7        8 </v>
   <v type="int" >        4        7        7        8        9 </v>
   <v type="int" >        4        7        8        9        9 </v>
   <v type="int" >        4        6        6        7        8 </v>
   <v type="int" >        4        6        7        8        8 </v>
   <v type="int" >        4        7        8        8        9 </v>
   <v type="int" >        4        5        6        6        6 </v>
   <v type="int" >        4        6        6        6        8 </v>
   <v type="int" >        2        6        6        8        8 </v>
   <v type="int" >        2        5        5        6        6 </v>
   <v type="int" >        8        2        2        2        3 </v>
   <v type="int" >        8        2        2        3        3 </v>
   <v type="int" >        8        2        3        3        3 </v>
   <v type="int" >        4        8        8        9       10 </v>
   <v type="int" >        4        8        9        9       10 </v>
   <v type="int" >        4        8        9       10       10 </v>
   <v type="int" >       12        9        9        9       10 </v>
   <v type="int" >       10        9        9       10       10 </v>
   <v type="int" >        8        9       10       10       10 </v>
   <v type="int" >        4        8        9        9        9 </v>
   <v type="int" >        2        8        8        9        9 </v>
   <v type="int" >        8        3        3        3        4 </v>
   <v type="int" >        8        3        3        4        4 </v>
   <v type="int" >        8        3        4        4        4 </v>
   <v type="int" >        6       10       10       10       10 </v>
   <v type="int" >       12        4        4        4        4 </v>
   <v type="int" >        6        1        1        1        1 </v>
  </varray>
  <i name="volumeweight">      0.00032552 </i>
 </kpoints>
 <parameters>
  <separator name="general" >
   <i type="string" name="SYSTEM">unknown system</i>
   <i type="logical" name="LCOMPAT"> F  </i>
  </separator>
  <separator name="electronic" >
   <i type="string" name="PREC">accura</i>
   <i name="ENMAX">    520.00000000</i>
   <i name="ENAUG">    605.39200000</i>
   <i name="EDIFF">      0.00025000</i>
   <i type="int" name="IALGO">    38</i>
   <i type="int" name="IWAVPR">    10</i>
   <i type="int" name="NBANDS">    24</i>
   <i name="NELECT">     38.00000000</i>
   <i type="int" name="TURBO">     0</i>
   <i type="int" name="IRESTART">     0</i>
   <i type="int" name="NREBOOT">     0</i>
   <i type="int" name="NMIN">     0</i>
   <i name="EREF">      0.00000000</i>
   <separator name="electronic smearing" >
    <i type="int" name="ISMEAR">    -5</i>
    <i name="SIGMA">      0.05000000</i>
    <i name="KSPACING">      0.50000000</i>
    <i type="logical" name="KGAMMA"> T  </i>
   </separator>
   <separator name="electronic projectors" >
    <i type="logical" name="LREAL"> T  </i>
    <v name="ROPT">     -0.00025000     -0.00025000     -0.00025000</v>
    <i type="int" name="LMAXPAW">  -100</i>
    <i type="int" name="LMAXMIX">     2</i>
    <i type="logical" name="NLSPLINE"> F  </i>
   </separator>
   <separator name="electronic startup" >
    <i type="int" name="ISTART">     1</i>
    <i type="int" name="ICHARG">     0</i>
    <i type="int" name="INIWAV">     1</i>
   </separator>
   <separator name="electronic spin" >
    <i type="int" name="ISPIN">     2</i>
    <i type="logical" name="LNONCOLLINEAR"> F  </i>
    <v name="MAGMOM">      0.00000000      0.00000000      0.00000000      0.00000000      0.00000000</v>
    <i name="NUPDOWN">     -1.00000000</i>
    <i type="logical" name="LSORBIT"> F  </i>
    <v name="SAXIS">      0.00000000      0.00000000      1.00000000</v>
    <i type="logical" name="LSPIRAL"> F  </i>
    <v name="QSPIRAL">      0.00000000      0.00000000      0.00000000</v>
    <i type="logical" name="LZEROZ"> F  </i>
   </separator>
   <separator name="electronic exchange-correlation" >
    <i type="logical" name="LASPH"> F  </i>
    <i type="logical" name="LMETAGGA"> F  </i>
   </separator>
   <separator name="electronic convergence" >
    <i type="int" name="NELM">   100</i>
    <i type="int" name="NELMDL">     0</i>
    <i type="int" name="NELMIN">     2</i>
    <i name="ENINI">    520.00000000</i>
    <separator name="electronic convergence detail" >
     <i type="logical" name="LDIAG"> T  </i>
     <i type="logical" name="LSUBROT"> F  </i>
     <i name="WEIMIN">      0.00000000</i>
     <i name="EBREAK">      0.00000260</i>
     <i name="DEPER">      0.30000000</i>
     <i type="int" name="NRMM">     4</i>
     <i name="TIME">      0.40000000</i>
    </separator>
   </separator>
   <separator name="electronic mixer" >
    <i name="AMIX">      0.40000000</i>
    <i name="BMIX">      1.00000000</i>
    <i name="AMIN">      0.10000000</i>
    <i name="AMIX_MAG">      1.60000000</i>
    <i name="BMIX_MAG">      1.00000000</i>
    <separator name="electronic mixer details" >
     <i type="int" name="IMIX">     4</i>
     <i type="int" name="MAXMIX">   -45</i>
     <i name="WC">    100.00000000</i>
     <i type="int" name="INIMIX">     1</i>
     <i type="int" name="MIXPRE">     1</i>
     <i type="int" name="MREMOVE">     5</i>
    </separator>
   </separator>
   <separator name="electronic dipolcorrection" >
    <i type="logical" name="LDIPOL"> F  </i>
    <i type="logical" name="LMONO"> F  </i>
    <i type="int" name="IDIPOL">     0</i>
    <i name="EPSILON">      1.00000000</i>
    <v name="DIPOL">   -100.00000000   -100.00000000   -100.00000000</v>
    <i name="EFIELD">      0.00000000</i>
   </separator>
  </separator>
  <separator name="grids" >
   <i type="int" name="NGX">    30</i>
   <i type="int" name="NGY">    30</i>
   <i type="int" name="NGZ">    30</i>
   <i type="int" name="NGXF">    60</i>
   <i type="int" name="NGYF">    60</i>
   <i type="int" name="NGZF">    60</i>
   <i type="logical" name="ADDGRID"> F  </i>
  </separator>
  <separator name="ionic" >
   <i type="int" name="NSW">     0</i>
   <i type="int" name="IBRION">    -1</i>
   <i type="int" name="ISIF">     3</i>
   <i name="PSTRESS">      0.00000000</i>
   <i name="EDIFFG">      0.00250000</i>
   <i type="int" name="NFREE">     0</i>
   <i name="POTIM">      0.50000000</i>
   <i name="SMASS">     -3.00000000</i>
   <i name="SCALEE">      1.00000000</i>
  </separator>
  <separator name="ionic md" >
   <i name="TEBEG">      0.00010000</i>
   <i name="TEEND">      0.00010000</i>
   <i type="int" name="NBLOCK">     1</i>
   <i type="int" name="KBLOCK">     1</i>
   <i type="int" name="NPACO">   256</i>
   <i name="APACO">     16.00000000</i>
  </separator>
  <separator name="symmetry" >
   <i type="int" name="ISYM">     2</i>
   <i name="SYMPREC">      0.00001000</i>
  </separator>
  <separator name="dos" >
   <i type="logical" name="LORBIT"> F  </i>
   <v name="RWIGS">     -1.00000000     -1.00000000     -1.00000000</v>
   <i type="int" name="NEDOS">   301</i>
   <i name="EMIN">     10.00000000</i>
   <i name="EMAX">    -10.00000000</i>
   <i name="EFERMI">      0.00000000</i>
  </separator>
  <separator name="writing" >
   <i type="int" name="NWRITE">     2</i>
   <i type="logical" name="LWAVE"> F  </i>
   <i type="logical" name="LCHARG"> T  </i>
   <i type="logical" name="LPARD"> F  </i>
   <i type="logical" name="LVTOT"> F  </i>
   <i type="logical" name="LVHAR"> T  </i>
   <i type="logical" name="LELF"> F  </i>
   <i type="logical" name="LOPTICS"> F  </i>
   <v name="STM">      0.00000000      0.00000000      0.00000000      0.00000000      0.00000000      0.00000000      0.00000000</v>
  </separator>
  <separator name="performance" >
   <i type="int" name="NPAR">     8</i>
   <i type="int" name="NSIM">     4</i>
   <i type="int" name="NBLK">    -1</i>
   <i type="logical" name="LPLANE"> T  </i>
   <i type="logical" name="LSCALAPACK"> T  </i>
   <i type="logical" name="LSCAAWARE"> F  </i>
   <i type="logical" name="LSCALU"> F  </i>
   <i type="logical" name="LASYNC"> F  </i>
   <i type="logical" name="LORBITALREAL"> F  </i>
  </separator>
  <separator name="miscellaneous" >
   <i type="int" name="IDIOT">     3</i>
   <i type="logical" name="LMUSIC"> F  </i>
   <v name="POMASS">    137.32700000     47.88000000     16.00000000</v>
   <v name="DARWINR">      0.00000000      0.00000000      0.00000000</v>
   <v name="DARWINV">      1.00000000      1.00000000      1.00000000</v>
   <i type="logical" name="LCORR"> T  </i>
  </separator>
  <i type="logical" name="GGA_COMPAT"> T  </i>
  <i type="logical" name="LBERRY"> F  </i>
  <i type="int" name="ICORELEVEL">     0</i>
  <i type="logical" name="LDAU"> F  </i>
  <i type="int" name="I_CONSTRAINED_M">     0</i>
  <separator name="electronic exchange-correlation" >
   <i type="string" name="GGA">--</i>
   <i type="int" name="VOSKOWN">     0</i>
   <i type="logical" name="LHFCALC"> F  </i>
   <i type="string" name="PRECFOCK"></i>
   <i type="logical" name="LSYMGRAD"> F  </i>
   <i type="logical" name="LHFONE"> F  </i>
   <i type="logical" name="LRHFCALC"> F  </i>
   <i type="logical" name="LTHOMAS"> F  </i>
   <i type="logical" name="LMODELHF"> F  </i>
   <i name="ENCUT4O">     -1.00000000</i>
   <i type="int" name="EXXOEP">     0</i>
   <i type="int" name="FOURORBIT">     0</i>
   <i name="AEXX">      0.00000000</i>
   <i name="HFALPHA">      0.00000000</i>
   <i name="MCALPHA">      0.00000000</i>
   <i name="ALDAX">      1.00000000</i>
   <i name="AGGAX">      1.00000000</i>
   <i name="ALDAC">      1.00000000</i>
   <i name="AGGAC">      1.00000000</i>
   <i type="int" name="NKREDX">     1</i>
   <i type="int" name="NKREDY">     1</i>
   <i type="int" name="NKREDZ">     1</i>
   <i type="logical" name="SHIFTRED"> F  </i>
   <i type="logical" name="ODDONLY"> F  </i>
   <i type="logical" name="EVENONLY"> F  </i>
   <i type="int" name="LMAXFOCK">     0</i>
   <i type="int" name="NMAXFOCKAE">     0</i>
   <i type="logical" name="LFOCKAEDFT"> F  </i>
   <i name="HFSCREEN">      0.00000000</i>
   <i name="HFSCREENC">      0.00000000</i>
   <i type="int" name="NBANDSGWLOW">     0</i>
  </separator>
  <separator name="vdW DFT" >
   <i type="logical" name="LUSE_VDW"> F  </i>
   <i name="Zab_VDW">     -0.84910000</i>
   <i name="PARAM1">      0.12340000</i>
   <i name="PARAM2">      1.00000000</i>
   <i name="PARAM3">      0.00000000</i>
  </separator>
  <separator name="model GW" >
   <i type="int" name="MODEL_GW">     0</i>
   <i name="MODEL_EPS0">      7.94899109</i>
   <i name="MODEL_ALPHA">      1.00000000</i>
  </separator>
  <separator name="linear response parameters" >
   <i type="logical" name="LEPSILON"> F  </i>
   <i type="logical" name="LRPA"> F  </i>
   <i type="logical" name="LNABLA"> F  </i>
   <i type="logical" name="LVEL"> F  </i>
   <i type="int" name="KINTER">     0</i>
   <i name="CSHIFT">      0.10000000</i>
   <i name="OMEGAMAX">     -1.00000000</i>
   <i name="DEG_THRESHOLD">      0.00200000</i>
  </separator>
  <separator name="orbital magnetization" >
   <i type="logical" name="NUCIND"> F  </i>
   <v name="MAGPOS">      0.00000000      0.00000000      0.00000000</v>
   <i type="logical" name="LNICSALL"> T  </i>
   <i type="logical" name="ORBITALMAG"> F  </i>
   <i type="logical" name="LMAGBLOCH"> F  </i>
   <i type="logical" name="LCHIMAG"> F  </i>
   <i type="logical" name="LGAUGE"> T  </i>
   <i type="int" name="MAGATOM">     0</i>
   <v name="MAGDIPOL">      0.00000000      0.00000000      0.00000000</v>
   <v name="AVECCONST">      0.00000000      0.00000000      0.00000000</v>
  </separator>
  <separator name="response functions" >
   <i type="logical" name="LADDER"> F  </i>
   <i type="logical" name="LFXC"> F  </i>
   <i type="logical" name="LHARTREE"> T  </i>
   <i type="int" name="IBSE">     0</i>
   <i type="logical" name="LTCTE"> F  </i>
   <i type="logical" name="LTETE"> F  </i>
   <i type="logical" name="LTRIPLET"> F  </i>
   <i type="logical" name="LFXCEPS"> F  </i>
   <i type="logical" name="LFXHEG"> F  </i>
   <i type="logical" name="L2ORDER"> F  </i>
   <i type="logical" name="LUSEW"> F  </i>
   <i name="ENCUTGW">     -2.00000000</i>
   <i name="ENCUTGWSOFT">     -2.00000000</i>
   <i name="ENCUTLF">     -1.00000000</i>
   <i type="int" name="LMAXMP2">    -1</i>
   <i name="SCISSOR">      0.00000000</i>
   <i type="int" name="NOMEGA">     0</i>
   <i type="int" name="NOMEGAR">     0</i>
   <i type="int" name="NBANDSGW">    -1</i>
   <i type="int" name="NBANDSO">    -1</i>
   <i type="int" name="NBANDSV">    -1</i>
   <i type="int" name="NELM">   100</i>
   <i type="int" name="DIM">     3</i>
   <i type="int" name="ANTIRES">     0</i>
   <i name="OMEGAMAX">    -30.00000000</i>
   <i name="OMEGAMIN">    -30.00000000</i>
   <i name="OMEGATL">   -200.00000000</i>
   <i type="int" name="OMEGAGRID">     0</i>
   <i name="CSHIFT">     -0.10000000</i>
   <i type="logical" name="SELFENERGY"> F  </i>
   <i type="logical" name="LSPECTRAL"> F  </i>
   <i type="logical" name="ODDONLYGW"> F  </i>
   <i type="logical" name="EVENONLYGW"> F  </i>
   <i type="int" name="NKREDLFX">     1</i>
   <i type="int" name="NKREDLFY">     1</i>
   <i type="int" name="NKREDLFZ">     1</i>
   <i type="int" name="MAXMEM">  1800</i>
   <i type="int" name="TELESCOPE">     0</i>
   <i type="int" name="TAUPAR">     1</i>
  </separator>
  <separator name="External order field" >
   <i name="OFIELD_KAPPA">      0.00000000</i>
   <v name="OFIELD_K">      0.00000000      0.00000000      0.00000000</v>
   <i name="OFIELD_Q6_NEAR">      0.00000000</i>
   <i name="OFIELD_Q6_FAR">      0.00000000</i>
   <i name="OFIELD_A">      0.00000000</i>
  </separator>
 </parameters>
 <atominfo>
  <atoms>       5 </atoms>
  <types>       3 </types>
  <array name="atoms" >
   <dimension dim="1">ion</dimension>
   <field type="string">element</field>
   <field type="int">atomtype</field>
   <set>
    <rc><c>Ba</c><c>   1</c></rc>
    <rc><c>Ti</c><c>   2</c></rc>
    <rc><c>O </c><c>   3</c></rc>
    <rc><c>O </c><c>   3</c></rc>
    <rc><c>O </c><c>   3</c></rc>
   </set>
  </array>
  <array name="atomtypes" >
   <dimension dim="1">type</dimension>
   <field type="int">atomspertype</field>
   <field type="string">element</field>
   <field>mass</field>
   <field>valence</field>
   <field type="string">pseudopotential</field>
   <set>
    <rc><c>   1</c><c>Ba</c><c>    137.32700000</c><c>     10.00000000</c><c>  PAW_PBE Ba_sv 06Sep2000               </c></rc>
    <rc><c>   1</c><c>Ti</c><c>     47.88000000</c><c>     10.00000000</c><c>  PAW_PBE Ti_pv 07Sep2000               </c></rc>
    <rc><c>   3</c><c>O </c><c>     16.00000000</c><c>      6.00000000</c><c>  PAW_PBE O 08Apr2002                   </c></rc>
   </set>
  </array>
 </atominfo>
 <structure name="initialpos" >
  <crystal>
   <varray name="basis" >
    <v>       4.02248500       0.00000000       0.00000000 </v>
    <v>       0.00000000       4.02248500       0.00000000 </v>
    <v>       0.00000000       0.00000000       4.09394400 </v>
   </varray>
   <i name="volume">     66.24159244 </i>
   <varray name="rec_basis" >
    <v>       0.24860254       0.00000000       0.00000000 </v>
    <v>       0.00000000       0.24860254       0.00000000 </v>
    <v>       0.00000000       0.00000000       0.24426323 </v>
   </varray>
  </crystal>
  <varray name="positions" >
   <v>       0.00000000       0.00000000       0.00862400 </v>
   <v>       0.50000000       0.50000000       0.51481700 </v>
   <v>       0.00000000       0.50000000       0.49920700 </v>
   <v>       0.50000000       0.00000000       0.49920700 </v>
   <v>       0.50000000       0.50000000       0.99214300 </v>
  </varray>
 </structure>
 <calculation>
  <scstep>
   <time name="dav">    5.21    5.21</time>
   <time name="total">    5.77    5.77</time>
   <energy>
    <i name="alphaZ">    252.95646988 </i>
    <i name="ewald">  -2497.40215596 </i>
    <i name="hartreedc">   -642.69345360 </i>
    <i name="XCdc">    146.52267915 </i>
    <i name="pawpsdc">   3571.28441274 </i>
    <i name="pawaedc">  -3580.61171522 </i>
    <i name="eentropy">      0.00000000 </i>
    <i name="bandstr">   -330.47992325 </i>
    <i name="atom">   3040.52701931 </i>
    <i name="e_fr_energy">    -39.89666696 </i>
    <i name="e_wo_entrp">    -39.89666696 </i>
    <i name="e_0_energy">    -39.89666696 </i>
   </energy>
  </scstep>
  <scstep>
   <time name="dav">    4.91    4.91</time>
   <time name="total">    5.02    5.03</time>
   <energy>
    <i name="alphaZ">    252.95646988 </i>
    <i name="ewald">  -2497.40215596 </i>
    <i name="hartreedc">   -642.61262326 </i>
    <i name="XCdc">    146.52134393 </i>
    <i name="pawpsdc">   3571.96013346 </i>
    <i name="pawaedc">  -3581.29292523 </i>
    <i name="eentropy">      0.00000000 </i>
    <i name="bandstr">   -330.55388537 </i>
    <i name="atom">   3040.52701931 </i>
    <i name="e_fr_energy">    -39.89662324 </i>
    <i name="e_wo_entrp">    -39.89662324 </i>
    <i name="e_0_energy">    -39.89662324 </i>
   </energy>
  </scstep>
  <v name="PION">      0.00000000       0.00000000      19.70305530 </v>
  <v name="PSP1">      2.01124250       2.01124250      -2.04425631 </v>
  <v name="PSP2">      2.01139313       2.01138641      -2.04425621 </v>
  <v name="PELC">      4.02263563       4.02262891      -4.08851252 </v>
  <structure>
   <crystal>
    <varray name="basis" >
     <v>       4.02248500       0.00000000       0.00000000 </v>
     <v>       0.00000000       4.02248500       0.00000000 </v>
     <v>       0.00000000       0.00000000       4.09394400 </v>
    </varray>
    <i name="volume">     66.24159244 </i>
    <varray name="rec_basis" >
     <v>       0.24860254       0.00000000       0.00000000 </v>
     <v>       0.00000000       0.24860254       0.00000000 </v>
     <v>       0.00000000       0.00000000       0.24426323 </v>
    </varray>
   </crystal>
   <varray name="positions" >
    <v>       0.00000000       0.00000000       0.00862400 </v>
    <v>       0.50000000       0.50000000       0.51481700 </v>
    <v>       0.00000000       0.50000000       0.49920700 </v>
    <v>       0.50000000       0.00000000       0.49920700 </v>
    <v>       0.50000000       0.50000000       0.99214300 </v>
   </varray>
  </structure>
  <varray name="forces" >
   <v>       0.00000000      -0.00000000      -0.03815796 </v>
   <v>      -0.00000000       0.00000000       0.41133661 </v>
   <v>      -0.00000000      -0.00000000      -0.04992727 </v>
   <v>      -0.00000000      -0.00000000      -0.04992727 </v>
   <v>      -0.00000000      -0.00000000      -0.27332410 </v>
  </varray>
  <varray name="stress" >
   <v>      -1.76809491       0.00000000       0.00000000 </v>
   <v>       0.00000000      -1.76809491       0.00000000 </v>
   <v>       0.00000000      -0.00000000     -21.86934336 </v>
  </varray>
  <energy>
   <i name="e_fr_energy">    -39.89662324 </i>
   <i name="e_wo_entrp">    -39.89662324 </i>
   <i name="e_0_energy">      0.00000000 </i>
  </energy>
  <time name="totalsc">  168.38  168.50</time>
  <eigenvalues>
   <array>
    <dimension dim="1">band</dimension>
    <dimension dim="2">kpoint</dimension>
    <dimension dim="3">spin</dimension>
    <field>eigene</field>
    <field>occ</field>
    <set>
     <set comment="spin 1">
      <set comment="kpoint 1">
       <r>  -30.0514    1.0000 </r>
       <r>  -30.0377    1.0000 </r>
       <r>  -30.0376    1.0000 </r>
       <r>  -21.9473    1.0000 </r>
       <r>  -13.8825    1.0000 </r>
       <r>  -13.2008    1.0000 </r>
       <r>  -13.1747    1.0000 </r>
       <r>   -7.1389    1.0000 </r>
       <r>   -7.1092    1.0000 </r>
       <r>   -7.0554    1.0000 </r>
       <r>    0.4844    1.0000 </r>
       <r>    0.5858    1.0000 </r>
       <r>    0.6034    1.0000 </r>
       <r>    1.6688    1.0000 </r>
       <r>    1.6834    1.0000 </r>
       <r>    1.9283    1.0000 </r>
       <r>    2.4240    1.0000 </r>
       <r>    2.6492    1.0000 </r>
       <r>    2.6507    1.0000 </r>
       <r>    4.8001    0.0000 </r>
       <r>    4.8569    0.0000 </r>
       <r>    4.8716    0.0000 </r>
       <r>    6.8172    0.0000 </r>
       <r>    6.8879    0.0000 </r>
      </set>
      <set comment="kpoint 2">
       <r>  -30.0510    1.0000 </r>
       <r>  -30.0502    1.0000 </r>
       <r>  -30.0372    1.0000 </r>
       <r>  -21.9200    1.0000 </r>
       <r>  -13.8806    1.0000 </r>
       <r>  -13.1768    1.0000 </r>
       <r>  -13.1677    1.0000 </r>
       <r>   -7.1141    1.0000 </r>
       <r>   -7.0852    1.0000 </r>
       <r>   -6.9534    1.0000 </r>
       <r>    0.0740    1.0000 </r>
       <r>    0.4732    1.0000 </r>
       <r>    0.5323    1.0000 </r>
       <r>    1.2971    1.0000 </r>
       <r>    1.3839    1.0000 </r>
       <r>    1.8430    1.0000 </r>
       <r>    1.9545    1.0000 </r>
       <r>    2.4332    1.0000 </r>
       <r>    2.4911    1.0000 </r>
       <r>    4.8843    0.0000 </r>
       <r>    5.2809    0.0000 </r>
       <r>    5.2978    0.0000 </r>
       <r>    6.8323    0.0000 </r>
       <r>    7.5530    0.0000 </r>
      </set>
      <set comment="kpoint 3">
       <r>  -30.0683    1.0000 </r>
       <r>  -30.0501    1.0000 </r>
       <r>  -30.0365    1.0000 </r>
       <r>  -21.8809    1.0000 </r>
       <r>  -13.9337    1.0000 </r>
       <r>  -13.1564    1.0000 </r>
       <r>  -13.0771    1.0000 </r>
       <r>   -7.0595    1.0000 </r>
       <r>   -7.0218    1.0000 </r>
       <r>   -6.8584    1.0000 </r>
       <r>   -0.5342    1.0000 </r>
       <r>    0.3163    1.0000 </r>
       <r>    0.4004    1.0000 </r>
       <r>    0.9428    1.0000 </r>
       <r>    1.0017    1.0000 </r>
       <r>    1.6068    1.0000 </r>
       <r>    1.6337    1.0000 </r>
       <r>    2.1685    1.0000 </r>
       <r>    2.2974    1.0000 </r>
       <r>    4.9332    0.0000 </r>
       <r>    5.8669    0.0000 </r>
       <r>    5.8814    0.0000 </r>
       <r>    6.8301    0.0000 </r>
       <r>    8.2352    0.0000 </r>
      </set>
      <set comment="kpoint 4">
       <r>  -30.0809    1.0000 </r>
       <r>  -30.0497    1.0000 </r>
       <r>  -30.0360    1.0000 </r>
       <r>  -21.8528    1.0000 </r>
       <r>  -13.9971    1.0000 </r>
       <r>  -13.1460    1.0000 </r>
       <r>  -12.9749    1.0000 </r>
       <r>   -7.0214    1.0000 </r>
       <r>   -6.9545    1.0000 </r>
       <r>   -6.8136    1.0000 </r>
       <r>   -0.9562    1.0000 </r>
       <r>    0.2076    1.0000 </r>
       <r>    0.2862    1.0000 </r>
       <r>    0.6125    1.0000 </r>
       <r>    0.8527    1.0000 </r>
       <r>    1.4685    1.0000 </r>
       <r>    1.5389    1.0000 </r>
       <r>    1.9813    1.0000 </r>
       <r>    2.1725    1.0000 </r>
       <r>    4.9687    0.0000 </r>
       <r>    6.2625    0.0000 </r>
       <r>    6.2693    0.0000 </r>
       <r>    6.8222    0.0000 </r>
       <r>    8.6113    0.0000 </r>
      </set>
      <set comment="kpoint 5">
       <r>  -30.0507    1.0000 </r>
       <r>  -30.0498    1.0000 </r>
       <r>  -30.0496    1.0000 </r>
       <r>  -21.8952    1.0000 </r>
       <r>  -13.8381    1.0000 </r>
       <r>  -13.1833    1.0000 </r>
       <r>  -13.1475    1.0000 </r>
       <r>   -7.1432    1.0000 </r>
       <r>   -7.0861    1.0000 </r>
       <r>   -6.8607    1.0000 </r>
       <r>   -0.1518    1.0000 </r>
       <r>    0.2477    1.0000 </r>
       <r>    0.4464    1.0000 </r>
       <r>    0.8799    1.0000 </r>
       <r>    1.1486    1.0000 </r>
       <r>    1.5414    1.0000 </r>
       <r>    2.0051    1.0000 </r>
       <r>    2.2853    1.0000 </r>
       <r>    2.4344    1.0000 </r>
       <r>    5.2396    0.0000 </r>
       <r>    5.3759    0.0000 </r>
       <r>    5.5464    0.0000 </r>
       <r>    7.1175    0.0000 </r>
       <r>    7.9925    0.0000 </r>
      </set>
      <set comment="kpoint 6">
       <r>  -30.0676    1.0000 </r>
       <r>  -30.0498    1.0000 </r>
       <r>  -30.0489    1.0000 </r>
       <r>  -21.8596    1.0000 </r>
       <r>  -13.8335    1.0000 </r>
       <r>  -13.1501    1.0000 </r>
       <r>  -13.0971    1.0000 </r>
       <r>   -7.1325    1.0000 </r>
       <r>   -7.0403    1.0000 </r>
       <r>   -6.8333    1.0000 </r>
       <r>   -0.6179    1.0000 </r>
       <r>    0.0231    1.0000 </r>
       <r>    0.2942    1.0000 </r>
       <r>    0.4479    1.0000 </r>
       <r>    0.8764    1.0000 </r>
       <r>    1.3864    1.0000 </r>
       <r>    1.9213    1.0000 </r>
       <r>    2.0677    1.0000 </r>
       <r>    2.3514    1.0000 </r>
       <r>    5.3362    0.0000 </r>
       <r>    5.8878    0.0000 </r>
       <r>    5.9848    0.0000 </r>
       <r>    7.1921    0.0000 </r>
       <r>    8.6533    0.0000 </r>
      </set>
      <set comment="kpoint 7">
       <r>  -30.0801    1.0000 </r>
       <r>  -30.0493    1.0000 </r>
       <r>  -30.0484    1.0000 </r>
       <r>  -21.8340    1.0000 </r>
       <r>  -13.8649    1.0000 </r>
       <r>  -13.1260    1.0000 </r>
       <r>  -13.0203    1.0000 </r>
       <r>   -7.0935    1.0000 </r>
       <r>   -6.9726    1.0000 </r>
       <r>   -6.8838    1.0000 </r>
       <r>   -1.0000    1.0000 </r>
       <r>   -0.0816    1.0000 </r>
       <r>    0.0826    1.0000 </r>
       <r>    0.2500    1.0000 </r>
       <r>    0.7457    1.0000 </r>
       <r>    1.4860    1.0000 </r>
       <r>    1.6899    1.0000 </r>
       <r>    1.9903    1.0000 </r>
       <r>    2.2293    1.0000 </r>
       <r>    5.3679    0.0000 </r>
       <r>    6.2745    0.0000 </r>
       <r>    6.3266    0.0000 </r>
       <r>    7.1975    0.0000 </r>
       <r>    9.0429    0.0000 </r>
      </set>
      <set comment="kpoint 8">
       <r>  -30.0670    1.0000 </r>
       <r>  -30.0664    1.0000 </r>
       <r>  -30.0490    1.0000 </r>
       <r>  -21.8291    1.0000 </r>
       <r>  -13.7138    1.0000 </r>
       <r>  -13.1567    1.0000 </r>
       <r>  -13.0812    1.0000 </r>
       <r>   -7.1929    1.0000 </r>
       <r>   -7.0416    1.0000 </r>
       <r>   -6.8611    1.0000 </r>
       <r>   -0.8042    1.0000 </r>
       <r>   -0.3599    1.0000 </r>
       <r>   -0.2318    1.0000 </r>
       <r>    0.3624    1.0000 </r>
       <r>    0.6456    1.0000 </r>
       <r>    1.3268    1.0000 </r>
       <r>    1.8043    1.0000 </r>
       <r>    2.0656    1.0000 </r>
       <r>    2.5905    1.0000 </r>
       <r>    5.8399    0.0000 </r>
       <r>    5.9618    0.0000 </r>
       <r>    6.2436    0.0000 </r>
       <r>    7.3625    0.0000 </r>
       <r>    9.3185    0.0000 </r>
      </set>
      <set comment="kpoint 9">
       <r>  -30.0791    1.0000 </r>
       <r>  -30.0660    1.0000 </r>
       <r>  -30.0485    1.0000 </r>
       <r>  -21.8072    1.0000 </r>
       <r>  -13.6612    1.0000 </r>
       <r>  -13.1210    1.0000 </r>
       <r>  -13.0730    1.0000 </r>
       <r>   -7.1842    1.0000 </r>
       <r>   -7.0887    1.0000 </r>
       <r>   -6.8822    1.0000 </r>
       <r>   -1.0783    1.0000 </r>
       <r>   -0.5954    1.0000 </r>
       <r>   -0.4682    1.0000 </r>
       <r>    0.2798    1.0000 </r>
       <r>    0.5284    1.0000 </r>
       <r>    1.3478    1.0000 </r>
       <r>    1.8099    1.0000 </r>
       <r>    2.0076    1.0000 </r>
       <r>    2.6742    1.0000 </r>
       <r>    5.9129    0.0000 </r>
       <r>    6.2871    0.0000 </r>
       <r>    6.4961    0.0000 </r>
       <r>    7.3964    0.0000 </r>
       <r>    9.7472    0.0000 </r>
      </set>
      <set comment="kpoint 10">
       <r>  -30.0784    1.0000 </r>
       <r>  -30.0783    1.0000 </r>
       <r>  -30.0480    1.0000 </r>
[...]
        <r>  0.0090  0.0028  0.0060  0.0000  0.0000  0.0000  0.0000  0.0000  0.0000 </r>
        <r>  0.0014  0.0000  0.0022  0.0042  0.0000  0.0000  0.0000  0.0000  0.0000 </r>
        <r>  0.0062  0.0015  0.0000  0.0065  0.0000  0.0000  0.0000  0.0000  0.0000 </r>
       </set>
       <set comment="band 11">
        <r>  0.0000  0.0001  0.0002  0.0001  0.0004  0.0002  0.0000  0.0027  0.0000 </r>
        <r>  0.1800  0.0036  0.0016  0.0026  0.0002  0.0004  0.0025  0.0002  0.0496 </r>
        <r>  0.0006  0.0004  0.0001  0.2926  0.0000  0.0000  0.0000  0.0000  0.0000 </r>
        <r>  0.0028  0.0460  0.0005  0.0007  0.0000  0.0000  0.0000  0.0000  0.0000 </r>
        <r>  0.0005  0.0005  0.1790  0.0002  0.0000  0.0000  0.0000  0.0000  0.0000 </r>
       </set>
       <set comment="band 12">
        <r>  0.0000  0.0001  0.0000  0.0002  0.0002  0.0002  0.0000  0.0001  0.0000 </r>
        <r>  0.0033  0.0005  0.0025  0.0015  0.0000  0.0001  0.2642  0.0001  0.1090 </r>
        <r>  0.0000  0.0002  0.0003  0.2035  0.0000  0.0000  0.0000  0.0000  0.0000 </r>
        <r>  0.0001  0.0077  0.0002  0.0000  0.0000  0.0000  0.0000  0.0000  0.0000 </r>
        <r>  0.0003  0.0001  0.2861  0.0000  0.0000  0.0000  0.0000  0.0000  0.0000 </r>
       </set>
       <set comment="band 13">
        <r>  0.0000  0.0001  0.0004  0.0010  0.0003  0.0003  0.0000  0.0005  0.0000 </r>
        <r>  0.0135  0.0295  0.0003  0.0001  0.0003  0.0018  0.1006  0.0002  0.1946 </r>
        <r>  0.0000  0.0015  0.0003  0.0097  0.0000  0.0000  0.0000  0.0000  0.0000 </r>
        <r>  0.0019  0.4695  0.0014  0.0000  0.0000  0.0000  0.0000  0.0000  0.0000 </r>
        <r>  0.0001  0.0014  0.0358  0.0003  0.0000  0.0000  0.0000  0.0000  0.0000 </r>
       </set>
       <set comment="band 14">
        <r>  0.0103  0.0848  0.0081  0.0046  0.0024  0.0031  0.0010  0.0002  0.0040 </r>
        <r>  0.0011  0.0002  0.0001  0.0004  0.0165  0.0096  0.0003  0.1305  0.0005 </r>
        <r>  0.0000  0.0291  0.1861  0.0005  0.0000  0.0000  0.0000  0.0000  0.0000 </r>
        <r>  0.0000  0.0038  0.0095  0.0158  0.0000  0.0000  0.0000  0.0000  0.0000 </r>
        <r>  0.0000  0.0177  0.0005  0.1703  0.0000  0.0000  0.0000  0.0000  0.0000 </r>
       </set>
       <set comment="band 15">
        <r>  0.0000  0.0119  0.1013  0.0024  0.0008  0.0075  0.0018  0.0005  0.0003 </r>
        <r>  0.0003  0.0000  0.0000  0.0002  0.1475  0.0037  0.0000  0.0138  0.0001 </r>
        <r>  0.0002  0.2358  0.0156  0.0001  0.0000  0.0000  0.0000  0.0000  0.0000 </r>
        <r>  0.0000  0.0008  0.0028  0.1576  0.0000  0.0000  0.0000  0.0000  0.0000 </r>
        <r>  0.0000  0.0076  0.0002  0.0228  0.0000  0.0000  0.0000  0.0000  0.0000 </r>
       </set>
       <set comment="band 16">
        <r>  0.0000  0.0121  0.0005  0.1046  0.0083  0.0000  0.0000  0.0010  0.0021 </r>
        <r>  0.0007  0.0009  0.0002  0.0000  0.0007  0.1478  0.0001  0.0134  0.0007 </r>
        <r>  0.0000  0.0005  0.0233  0.0003  0.0000  0.0000  0.0000  0.0000  0.0000 </r>
        <r>  0.0000  0.0031  0.1691  0.0016  0.0000  0.0000  0.0000  0.0000  0.0000 </r>
        <r>  0.0002  0.2346  0.0004  0.0133  0.0000  0.0000  0.0000  0.0000  0.0000 </r>
       </set>
       <set comment="band 17">
        <r>  0.0001  0.0004  0.0000  0.0027  0.0132  0.0004  0.0007  0.0030  0.0002 </r>
        <r>  0.0000  0.0001  0.0025  0.0001  0.0001  0.0000  0.0007  0.0002  0.0004 </r>
        <r>  0.0001  0.0147  0.0080  0.0000  0.0000  0.0000  0.0000  0.0000  0.0000 </r>
        <r>  0.0005  0.0010  0.3901  0.0160  0.0000  0.0000  0.0000  0.0000  0.0000 </r>
        <r>  0.0025  0.2712  0.0010  0.0042  0.0000  0.0000  0.0000  0.0000  0.0000 </r>
       </set>
       <set comment="band 18">
        <r>  0.0001  0.0003  0.0044  0.0006  0.0007  0.0126  0.0001  0.0012  0.0006 </r>
        <r>  0.0000  0.0001  0.0002  0.0024  0.0000  0.0001  0.0000  0.0001  0.0007 </r>
        <r>  0.0026  0.2546  0.0137  0.0004  0.0000  0.0000  0.0000  0.0000  0.0000 </r>
        <r>  0.0002  0.0003  0.0164  0.3998  0.0000  0.0000  0.0000  0.0000  0.0000 </r>
        <r>  0.0001  0.0073  0.0000  0.0185  0.0000  0.0000  0.0000  0.0000  0.0000 </r>
       </set>
       <set comment="band 19">
        <r>  0.0000  0.0002  0.0001  0.0001  0.0002  0.0002  0.0042  0.0000  0.0009 </r>
        <r>  0.0000  0.0000  0.0001  0.0000  0.0003  0.0002  0.0000  0.0001  0.0000 </r>
        <r>  0.0000  0.0139  0.3356  0.0000  0.0000  0.0000  0.0000  0.0000  0.0000 </r>
        <r>  0.0000  0.0000  0.0099  0.0127  0.0000  0.0000  0.0000  0.0000  0.0000 </r>
        <r>  0.0000  0.0125  0.0000  0.3609  0.0000  0.0000  0.0000  0.0000  0.0000 </r>
       </set>
       <set comment="band 20">
        <r>  0.0001  0.0000  0.0000  0.0057  0.0001  0.0000  0.0002  0.0001  0.0007 </r>
        <r>  0.0002  0.0003  0.0010  0.0000  0.0040  0.7543  0.0007  0.0001  0.0012 </r>
        <r>  0.0000  0.0004  0.0000  0.0000  0.0000  0.0000  0.0000  0.0000  0.0000 </r>
        <r>  0.0003  0.0000  0.0559  0.0003  0.0000  0.0000  0.0000  0.0000  0.0000 </r>
        <r>  0.0005  0.0989  0.0003  0.0000  0.0000  0.0000  0.0000  0.0000  0.0000 </r>
       </set>
       <set comment="band 21">
        <r>  0.0002  0.0002  0.0051  0.0000  0.0000  0.0001  0.0011  0.0002  0.0002 </r>
        <r>  0.0000  0.0002  0.0000  0.0009  0.7414  0.0041  0.0001  0.0151  0.0000 </r>
        <r>  0.0005  0.1030  0.0016  0.0000  0.0000  0.0000  0.0000  0.0000  0.0000 </r>
        <r>  0.0001  0.0000  0.0003  0.0498  0.0000  0.0000  0.0000  0.0000  0.0000 </r>
        <r>  0.0000  0.0006  0.0000  0.0013  0.0000  0.0000  0.0000  0.0000  0.0000 </r>
       </set>
       <set comment="band 22">
        <r>  0.0010  0.0036  0.0002  0.0000  0.0002  0.0003  0.0022  0.0000  0.0068 </r>
        <r>  0.0000  0.0000  0.0002  0.0002  0.0146  0.0000  0.0001  0.7637  0.0001 </r>
        <r>  0.0002  0.0020  0.0717  0.0000  0.0000  0.0000  0.0000  0.0000  0.0000 </r>
        <r>  0.0000  0.0000  0.0000  0.0015  0.0000  0.0000  0.0000  0.0000  0.0000 </r>
        <r>  0.0002  0.0000  0.0000  0.0607  0.0000  0.0000  0.0000  0.0000  0.0000 </r>
       </set>
       <set comment="band 23">
        <r>  0.0000  0.0000  0.0001  0.0001  0.0082  0.0005  0.0001  0.1202  0.0001 </r>
        <r>  0.0022  0.0303  0.0030  0.0003  0.0006  0.0026  0.1905  0.0002  0.3113 </r>
        <r>  0.0002  0.0011  0.0001  0.0075  0.0000  0.0000  0.0000  0.0000  0.0000 </r>
        <r>  0.0448  0.1022  0.0032  0.0013  0.0000  0.0000  0.0000  0.0000  0.0000 </r>
        <r>  0.0014  0.0015  0.0311  0.0000  0.0000  0.0000  0.0000  0.0000  0.0000 </r>
       </set>
       <set comment="band 24">
        <r>  0.0001  0.0000  0.0001  0.0010  0.0628  0.0286  0.0005  0.0302  0.0003 </r>
        <r>  0.0003  0.0016  0.0146  0.0052  0.0005  0.0036  0.3495  0.0006  0.1404 </r>
        <r>  0.0068  0.0026  0.0009  0.0889  0.0000  0.0000  0.0000  0.0000  0.0000 </r>
        <r>  0.0045  0.0002  0.0016  0.0021  0.0000  0.0000  0.0000  0.0000  0.0000 </r>
        <r>  0.0104  0.0043  0.1223  0.0005  0.0000  0.0000  0.0000  0.0000  0.0000 </r>
       </set>
      </set>
      <set comment="kpoint 40">
       <set comment="band 1">
        <r>  0.0000  0.0000  0.0000  0.0000  0.0000  0.0000  0.0000  0.0000  0.0000 </r>
        <r>  0.0000  0.0008  0.9790  0.0008  0.0000  0.0000  0.0000  0.0000  0.0000 </r>
        <r>  0.0000  0.0000  0.0000  0.0000  0.0000  0.0000  0.0000  0.0000  0.0000 </r>
        <r>  0.0000  0.0000  0.0000  0.0000  0.0000  0.0000  0.0000  0.0000  0.0000 </r>
        <r>  0.0061  0.0000  0.0004  0.0000  0.0000  0.0000  0.0000  0.0000  0.0000 </r>
       </set>
       <set comment="band 2">
        <r>  0.0000  0.0000  0.0000  0.0000  0.0000  0.0000  0.0000  0.0000  0.0000 </r>
        <r>  0.0000  0.4890  0.0015  0.4890  0.0000  0.0000  0.0000  0.0000  0.0000 </r>
        <r>  0.0035  0.0000  0.0000  0.0001  0.0000  0.0000  0.0000  0.0000  0.0000 </r>
        <r>  0.0035  0.0001  0.0000  0.0000  0.0000  0.0000  0.0000  0.0000  0.0000 </r>
        <r>  0.0000  0.0000  0.0000  0.0000  0.0000  0.0000  0.0000  0.0000  0.0000 </r>
       </set>
       <set comment="band 3">
        <r>  0.0000  0.0000  0.0000  0.0000  0.0000  0.0000  0.0000  0.0000  0.0000 </r>
        <r>  0.0000  0.4898  0.0000  0.4898  0.0000  0.0000  0.0000  0.0000  0.0000 </r>
        <r>  0.0035  0.0000  0.0000  0.0001  0.0000  0.0000  0.0000  0.0000  0.0000 </r>
        <r>  0.0035  0.0001  0.0000  0.0000  0.0000  0.0000  0.0000  0.0000  0.0000 </r>
        <r>  0.0000  0.0000  0.0000  0.0000  0.0000  0.0000  0.0000  0.0000  0.0000 </r>
       </set>
       <set comment="band 4">
        <r>  0.9808  0.0000  0.0000  0.0000  0.0000  0.0000  0.0000  0.0000  0.0000 </r>
        <r>  0.0000  0.0000  0.0000  0.0000  0.0000  0.0000  0.0000  0.0000  0.0000 </r>
        <r>  0.0000  0.0000  0.0000  0.0000  0.0000  0.0000  0.0000  0.0000  0.0000 </r>
        <r>  0.0000  0.0000  0.0000  0.0000  0.0000  0.0000  0.0000  0.0000  0.0000 </r>
        <r>  0.0000  0.0000  0.0000  0.0000  0.0000  0.0000  0.0000  0.0000  0.0000 </r>
       </set>
       <set comment="band 5">
        <r>  0.0001  0.0017  0.0014  0.0017  0.0024  0.0016  0.0000  0.0016  0.0000 </r>
        <r>  0.0031  0.0119  0.0136  0.0119  0.0000  0.0000  0.0009  0.0000  0.0000 </r>
        <r>  0.2334  0.0000  0.0000  0.0001  0.0000  0.0000  0.0000  0.0000  0.0000 </r>
        <r>  0.2334  0.0001  0.0000  0.0000  0.0000  0.0000  0.0000  0.0000  0.0000 </r>
        <r>  0.2964  0.0000  0.0001  0.0000  0.0000  0.0000  0.0000  0.0000  0.0000 </r>
       </set>
       <set comment="band 6">
        <r>  0.0000  0.0002  0.0009  0.0002  0.0038  0.0011  0.0000  0.0011  0.0000 </r>
        <r>  0.0007  0.0076  0.0217  0.0076  0.0000  0.0000  0.0034  0.0000  0.0000 </r>
        <r>  0.1497  0.0000  0.0000  0.0000  0.0000  0.0000  0.0000  0.0000  0.0000 </r>
        <r>  0.1497  0.0000  0.0000  0.0000  0.0000  0.0000  0.0000  0.0000  0.0000 </r>
        <r>  0.4714  0.0000  0.0001  0.0000  0.0000  0.0000  0.0000  0.0000  0.0000 </r>
       </set>
       <set comment="band 7">
        <r>  0.0000  0.0007  0.0000  0.0007  0.0000  0.0027  0.0000  0.0027  0.0000 </r>
        <r>  0.0000  0.0197  0.0000  0.0197  0.0000  0.0001  0.0000  0.0001  0.0025 </r>
        <r>  0.3856  0.0000  0.0000  0.0000  0.0000  0.0000  0.0000  0.0000  0.0000 </r>
        <r>  0.3856  0.0000  0.0000  0.0000  0.0000  0.0000  0.0000  0.0000  0.0000 </r>
        <r>  0.0000  0.0000  0.0000  0.0000  0.0000  0.0000  0.0000  0.0000  0.0000 </r>
       </set>
       <set comment="band 8">
        <r>  0.0000  0.4028  0.0000  0.4028  0.0000  0.0000  0.0000  0.0000  0.0001 </r>
        <r>  0.0000  0.0000  0.0000  0.0000  0.0000  0.0036  0.0000  0.0036  0.0000 </r>
        <r>  0.0011  0.0000  0.0076  0.0000  0.0000  0.0000  0.0000  0.0000  0.0000 </r>
        <r>  0.0011  0.0000  0.0076  0.0000  0.0000  0.0000  0.0000  0.0000  0.0000 </r>
        <r>  0.0000  0.0085  0.0000  0.0085  0.0000  0.0000  0.0000  0.0000  0.0000 </r>
       </set>
       <set comment="band 9">
        <r>  0.0000  0.2899  0.2273  0.2899  0.0001  0.0000  0.0001  0.0000  0.0000 </r>
        <r>  0.0000  0.0000  0.0000  0.0000  0.0022  0.0025  0.0000  0.0025  0.0000 </r>
        <r>  0.0000  0.0046  0.0056  0.0000  0.0000  0.0000  0.0000  0.0000  0.0000 </r>
        <r>  0.0000  0.0000  0.0056  0.0046  0.0000  0.0000  0.0000  0.0000  0.0000 </r>
        <r>  0.0030  0.0056  0.0000  0.0056  0.0000  0.0000  0.0000  0.0000  0.0000 </r>
       </set>
       <set comment="band 10">
        <r>  0.0002  0.1140  0.5829  0.1140  0.0000  0.0001  0.0000  0.0001  0.0000 </r>
        <r>  0.0000  0.0000  0.0000  0.0000  0.0051  0.0009  0.0000  0.0009  0.0000 </r>
        <r>  0.0029  0.0109  0.0019  0.0000  0.0000  0.0000  0.0000  0.0000  0.0000 </r>
        <r>  0.0029  0.0000  0.0019  0.0109  0.0000  0.0000  0.0000  0.0000  0.0000 </r>
        <r>  0.0011  0.0022  0.0000  0.0022  0.0000  0.0000  0.0000  0.0000  0.0000 </r>
       </set>
       <set comment="band 11">
        <r>  0.0000  0.0000  0.0000  0.0000  0.0004  0.0002  0.0000  0.0002  0.0000 </r>
        <r>  0.2161  0.0017  0.0012  0.0017  0.0000  0.0001  0.0042  0.0001  0.0000 </r>
        <r>  0.0006  0.0001  0.0001  0.1937  0.0000  0.0000  0.0000  0.0000  0.0000 </r>
        <r>  0.0006  0.1937  0.0001  0.0001  0.0000  0.0000  0.0000  0.0000  0.0000 </r>
        <r>  0.0005  0.0001  0.1357  0.0001  0.0000  0.0000  0.0000  0.0000  0.0000 </r>
       </set>
       <set comment="band 12">
        <r>  0.0000  0.0000  0.0000  0.0000  0.0000  0.0001  0.0000  0.0001  0.0000 </r>
        <r>  0.0000  0.0019  0.0000  0.0019  0.0000  0.0001  0.0000  0.0001  0.3899 </r>
        <r>  0.0001  0.0000  0.0001  0.2494  0.0000  0.0000  0.0000  0.0000  0.0000 </r>
        <r>  0.0001  0.2494  0.0001  0.0000  0.0000  0.0000  0.0000  0.0000  0.0000 </r>
        <r>  0.0000  0.0000  0.0000  0.0000  0.0000  0.0000  0.0000  0.0000  0.0000 </r>
       </set>
       <set comment="band 13">
        <r>  0.0000  0.0000  0.0000  0.0000  0.0003  0.0001  0.0000  0.0001  0.0000 </r>
        <r>  0.0017  0.0005  0.0032  0.0005  0.0000  0.0000  0.3760  0.0000  0.0000 </r>
        <r>  0.0000  0.0000  0.0001  0.0647  0.0000  0.0000  0.0000  0.0000  0.0000 </r>
        <r>  0.0000  0.0647  0.0001  0.0000  0.0000  0.0000  0.0000  0.0000  0.0000 </r>
        <r>  0.0003  0.0000  0.3680  0.0000  0.0000  0.0000  0.0000  0.0000  0.0000 </r>
       </set>
       <set comment="band 14">
        <r>  0.0027  0.0160  0.0966  0.0160  0.0005  0.0016  0.0003  0.0016  0.0000 </r>
        <r>  0.0002  0.0001  0.0000  0.0001  0.1257  0.0218  0.0000  0.0218  0.0000 </r>
        <r>  0.0000  0.1610  0.0305  0.0002  0.0000  0.0000  0.0000  0.0000  0.0000 </r>
        <r>  0.0000  0.0002  0.0305  0.1610  0.0000  0.0000  0.0000  0.0000  0.0000 </r>
        <r>  0.0000  0.0257  0.0002  0.0257  0.0000  0.0000  0.0000  0.0000  0.0000 </r>
       </set>
       <set comment="band 15">
        <r>  0.0006  0.0499  0.0371  0.0499  0.0017  0.0000  0.0011  0.0000  0.0000 </r>
        <r>  0.0000  0.0002  0.0001  0.0002  0.0446  0.0629  0.0000  0.0629  0.0000 </r>
        <r>  0.0000  0.0568  0.0820  0.0001  0.0000  0.0000  0.0000  0.0000  0.0000 </r>
        <r>  0.0000  0.0001  0.0820  0.0568  0.0000  0.0000  0.0000  0.0000  0.0000 </r>
        <r>  0.0001  0.0801  0.0000  0.0801  0.0000  0.0000  0.0000  0.0000  0.0000 </r>
       </set>
       <set comment="band 16">
        <r>  0.0000  0.0692  0.0000  0.0692  0.0000  0.0007  0.0000  0.0007  0.0014 </r>
        <r>  0.0000  0.0002  0.0000  0.0002  0.0000  0.0853  0.0000  0.0853  0.0001 </r>
        <r>  0.0000  0.0001  0.1192  0.0001  0.0000  0.0000  0.0000  0.0000  0.0000 </r>
        <r>  0.0000  0.0001  0.1192  0.0001  0.0000  0.0000  0.0000  0.0000  0.0000 </r>
        <r>  0.0000  0.1001  0.0000  0.1001  0.0000  0.0000  0.0000  0.0000  0.0000 </r>
       </set>
       <set comment="band 17">
        <r>  0.0000  0.0001  0.0002  0.0001  0.0046  0.0012  0.0011  0.0012  0.0000 </r>
        <r>  0.0000  0.0001  0.0006  0.0001  0.0001  0.0001  0.0002  0.0001  0.0000 </r>
        <r>  0.0002  0.0001  0.1802  0.0000  0.0000  0.0000  0.0000  0.0000  0.0000 </r>
        <r>  0.0002  0.0000  0.1802  0.0001  0.0000  0.0000  0.0000  0.0000  0.0000 </r>
        <r>  0.0008  0.1889  0.0002  0.1889  0.0000  0.0000  0.0000  0.0000  0.0000 </r>
       </set>
       <set comment="band 18">
        <r>  0.0000  0.0004  0.0000  0.0004  0.0000  0.0025  0.0000  0.0025  0.0005 </r>
        <r>  0.0000  0.0003  0.0000  0.0003  0.0000  0.0000  0.0000  0.0000  0.0001 </r>
        <r>  0.0004  0.0590  0.1439  0.0001  0.0000  0.0000  0.0000  0.0000  0.0000 </r>
        <r>  0.0004  0.0001  0.1439  0.0590  0.0000  0.0000  0.0000  0.0000  0.0000 </r>
        <r>  0.0000  0.1687  0.0000  0.1687  0.0000  0.0000  0.0000  0.0000  0.0000 </r>
       </set>
       <set comment="band 19">
        <r>  0.0000  0.0000  0.0000  0.0000  0.0000  0.0008  0.0000  0.0008  0.0004 </r>
        <r>  0.0000  0.0001  0.0000  0.0001  0.0000  0.0000  0.0000  0.0000  0.0000 </r>
        <r>  0.0002  0.3149  0.0303  0.0000  0.0000  0.0000  0.0000  0.0000  0.0000 </r>
        <r>  0.0002  0.0000  0.0303  0.3149  0.0000  0.0000  0.0000  0.0000  0.0000 </r>
        <r>  0.0000  0.0309  0.0000  0.0309  0.0000  0.0000  0.0000  0.0000  0.0000 </r>
       </set>
       <set comment="band 20">
        <r>  0.0002  0.0029  0.0000  0.0029  0.0004  0.0001  0.0006  0.0001  0.0000 </r>
        <r>  0.0000  0.0001  0.0005  0.0001  0.0058  0.3808  0.0002  0.3808  0.0000 </r>
        <r>  0.0001  0.0005  0.0416  0.0000  0.0000  0.0000  0.0000  0.0000  0.0000 </r>
        <r>  0.0001  0.0000  0.0416  0.0005  0.0000  0.0000  0.0000  0.0000  0.0000 </r>
        <r>  0.0003  0.0368  0.0001  0.0368  0.0000  0.0000  0.0000  0.0000  0.0000 </r>
       </set>
       <set comment="band 21">
        <r>  0.0000  0.0028  0.0000  0.0028  0.0000  0.0002  0.0000  0.0002  0.0016 </r>
        <r>  0.0000  0.0001  0.0000  0.0001  0.0000  0.3843  0.0000  0.3843  0.0002 </r>
        <r>  0.0001  0.0000  0.0423  0.0000  0.0000  0.0000  0.0000  0.0000  0.0000 </r>
        <r>  0.0001  0.0000  0.0423  0.0000  0.0000  0.0000  0.0000  0.0000  0.0000 </r>
        <r>  0.0000  0.0365  0.0000  0.0365  0.0000  0.0000  0.0000  0.0000  0.0000 </r>
       </set>
       <set comment="band 22">
        <r>  0.0004  0.0000  0.0053  0.0000  0.0000  0.0002  0.0012  0.0002  0.0000 </r>
        <r>  0.0000  0.0002  0.0000  0.0002  0.7641  0.0029  0.0000  0.0029  0.0000 </r>
        <r>  0.0001  0.0775  0.0003  0.0000  0.0000  0.0000  0.0000  0.0000  0.0000 </r>
        <r>  0.0001  0.0000  0.0003  0.0775  0.0000  0.0000  0.0000  0.0000  0.0000 </r>
        <r>  0.0000  0.0003  0.0000  0.0003  0.0000  0.0000  0.0000  0.0000  0.0000 </r>
       </set>
       <set comment="band 23">
        <r>  0.0001  0.0003  0.0003  0.0003  0.2486  0.0530  0.0003  0.0530  0.0000 </r>
        <r>  0.0001  0.0040  0.0261  0.0040  0.0013  0.0013  0.1833  0.0013  0.0000 </r>
        <r>  0.0087  0.0000  0.0021  0.0119  0.0000  0.0000  0.0000  0.0000  0.0000 </r>
        <r>  0.0087  0.0119  0.0021  0.0000  0.0000  0.0000  0.0000  0.0000  0.0000 </r>
        <r>  0.0380  0.0022  0.0529  0.0022  0.0000  0.0000  0.0000  0.0000  0.0000 </r>
       </set>
       <set comment="band 24">
        <r>  0.0000  0.0003  0.0000  0.0003  0.0000  0.2329  0.0000  0.2329  0.0006 </r>
        <r>  0.0000  0.0143  0.0000  0.0143  0.0000  0.0015  0.0000  0.0015  0.0562 </r>
        <r>  0.0341  0.0050  0.0018  0.0065  0.0000  0.0000  0.0000  0.0000  0.0000 </r>
        <r>  0.0341  0.0065  0.0018  0.0050  0.0000  0.0000  0.0000  0.0000  0.0000 </r>
        <r>  0.0000  0.0011  0.0000  0.0011  0.0000  0.0000  0.0000  0.0000  0.0000 </r>
       </set>
      </set>
     </set>
    </set>
   </array>
  </projected>
 </calculation>
 <structure name="finalpos" >
  <crystal>
   <varray name="basis" >
    <v>       4.02248500       0.00000000       0.00000000 </v>
    <v>       0.00000000       4.02248500       0.00000000 </v>
    <v>       0.00000000       0.00000000       4.09394400 </v>
   </varray>
   <i name="volume">     66.24159244 </i>
   <varray name="rec_basis" >
    <v>       0.24860254       0.00000000       0.00000000 </v>
    <v>       0.00000000       0.24860254       0.00000000 </v>
    <v>       0.00000000       0.00000000       0.24426323 </v>
   </varray>
  </crystal>
  <varray name="positions" >
   <v>       0.00000000       0.00000000       0.00862400 </v>
   <v>       0.50000000       0.50000000       0.51481700 </v>
   <v>       0.00000000       0.50000000       0.49920700 </v>
   <v>       0.50000000       0.00000000       0.49920700 </v>
   <v>       0.50000000       0.50000000       0.99214300 </v>
  </varray>
 </structure>
</modeling>
