Rubyvaspy :: si                         
    1.000000000000000     
     0.000000    2.734772    2.734772
     2.734772    0.000000    2.734772
     2.734772    2.734772    0.000000
   Si
   2
Direct
  0.000000  0.000000  0.000000
  0.250000  0.250000  0.250000
 
   60   60   60
 0.27295279208E+04 0.66467547982E+02 0.80775076194E+02 0.59520490339E+02 0.23485877049E+02
 0.50848715297E+01 0.13214534044E+01 0.42713690200E+01 0.88401853616E+01 0.12733827770E+02
 0.15277719942E+02 0.16539333419E+02 0.16795954859E+02 0.16340907660E+02 0.15444368897E+02
 0.14323764302E+02 0.13134122970E+02 0.11980514123E+02 0.10923374148E+02 0.99955234419E+01
 0.92073954855E+01 0.85571423770E+01 0.80338895389E+01 0.76232997246E+01 0.73086943009E+01
 0.70741177705E+01 0.69042387391E+01 0.67864004054E+01 0.67097907414E+01 0.66670685556E+01
 0.66532468411E+01 0.66670717062E+01 0.67097945972E+01 0.67864010605E+01 0.69042419952E+01
 0.70741188756E+01 0.73086978943E+01 0.76233133712E+01 0.80338867020E+01 0.85571434446E+01
 0.92073967669E+01 0.99955216226E+01 0.10923369325E+02 0.11980512199E+02 0.13134114344E+02
 0.14323765552E+02 0.15444373393E+02 0.16340903489E+02 0.16795956125E+02 0.16539331334E+02
 0.15277719507E+02 0.12733828953E+02 0.88401846098E+01 0.42713692305E+01 0.13214520560E+01
 0.50848723314E+01 0.23485876740E+02 0.59520489768E+02 0.80775076527E+02 0.66467547569E+02
 0.66467547982E+02 0.73911726425E+02 0.72456397350E+02 0.36100172368E+02 0.10528624543E+02
 0.17244632478E+01 0.25720247911E+01 0.68213049672E+01 0.11164192224E+02 0.14347504928E+02
 0.16181844086E+02 0.16887263836E+02 0.16751694271E+02 0.16058265111E+02 0.15048654938E+02
 0.13907209967E+02 0.12759042506E+02 0.11684216567E+02 0.10727601080E+02 0.99080232924E+01
 0.92287216889E+01 0.86815650894E+01 0.82531269120E+01 0.79265614080E+01 0.76847976868E+01
 0.75112465038E+01 0.73912834581E+01 0.73124975243E+01 0.72654069744E+01 0.72434895060E+01
 0.72434836461E+01 0.72654039053E+01 0.73124922161E+01 0.73912848739E+01 0.75112369472E+01
 0.76847992267E+01 0.79265430972E+01 0.82531247140E+01 0.86815685364E+01 0.92287282847E+01
 0.99080172616E+01 0.10727601175E+02 0.11684216105E+02 0.12759060628E+02 0.13907206906E+02
 0.15048661416E+02 0.16058264923E+02 0.16751704887E+02 0.16887237031E+02 0.16181850563E+02
 0.14347455726E+02 0.11164198148E+02 0.68212553031E+01 0.25719836066E+01 0.17244791821E+01
 0.10528537821E+02 0.36100278778E+02 0.72456449916E+02 0.73911676997E+02 0.66467473240E+02
 0.80775076194E+02 0.72456397350E+02 0.41280840751E+02 0.14720506844E+02 0.28925219131E+01
 0.17268442415E+01 0.52826730287E+01 0.97427860061E+01 0.13373072230E+02 0.15695344875E+02
 0.16818293542E+02 0.17006050403E+02 0.16536802646E+02 0.15665541928E+02 0.14597163678E+02
 0.13476697214E+02 0.12402647637E+02 0.11431049722E+02 0.10591253722E+02 0.98914898995E+01
 0.93277636509E+01 0.88875736131E+01 0.85549119992E+01 0.83115778108E+01 0.81401002612E+01
 0.80238976720E+01 0.79490416462E+01 0.79038715710E+01 0.78802622488E+01 0.78728825946E+01
 0.78802692057E+01 0.79038769404E+01 0.79490469220E+01 0.80239005089E+01 0.81401149041E+01
 0.83115859567E+01 0.85549205904E+01 0.88875757174E+01 0.93277504153E+01 0.98914828927E+01
 0.10591262676E+02 0.11431058626E+02 0.12402637587E+02 0.13476697021E+02 0.14597153511E+02
 0.15665552314E+02 0.16536808894E+02 0.17006041246E+02 0.16818255132E+02 0.15695338813E+02
 0.13373026019E+02 0.97427920550E+01 0.52826322130E+01 0.17268531246E+01 0.28925315641E+01
 0.14720499529E+02 0.41280850777E+02 0.72456390779E+02 0.80775072289E+02 0.73908935118E+02
 0.59520490339E+02 0.36100172368E+02 0.14720506844E+02 0.35007190750E+01 0.14638450147E+01
 0.43594459869E+01 0.86812605042E+01 0.12522861017E+02 0.15188299909E+02 0.16652059978E+02
 0.17131948609E+02 0.16885368819E+02 0.16166317715E+02 0.15189470004E+02 0.14117121107E+02
 0.13060969475E+02 0.12089451719E+02 0.11241436743E+02 0.10531221309E+02 0.99590156401E+01
 0.95143850569E+01 0.91820006877E+01 0.89434039232E+01 0.87800729810E+01 0.86739816027E+01
 0.86094389036E+01 0.85730538455E+01 0.85546277046E+01 0.85471727539E+01 0.85471626249E+01
 0.85546249264E+01 0.85730377446E+01 0.86094334344E+01 0.86739670111E+01 0.87800485402E+01
 0.89434025771E+01 0.91820075128E+01 0.95143863638E+01 0.99590232312E+01 0.10531221287E+02
 0.11241439017E+02 0.12089454360E+02 0.13060961434E+02 0.14117110179E+02 0.15189474847E+02
 0.16166293362E+02 0.16885356408E+02 0.17131965148E+02 0.16652063173E+02 0.15188315842E+02
 0.12522842529E+02 0.86812514917E+01 0.43594041437E+01 0.14638340125E+01 0.35007086369E+01
 0.14720566238E+02 0.36100253990E+02 0.59520416357E+02 0.72448126304E+02 0.72448184401E+02
 0.23485877049E+02 0.10528624543E+02 0.28925219131E+01 0.14638450147E+01 0.40578745688E+01
 0.81192318532E+01 0.11946078731E+02 0.14772077785E+02 0.16461638062E+02 0.17169666528E+02
 0.17120071277E+02 0.16550686174E+02 0.15675722641E+02 0.14667030790E+02 0.13643334935E+02
 0.12686725025E+02 0.11842929610E+02 0.11133015699E+02 0.10561254678E+02 0.10120001794E+02
 0.97948735145E+01 0.95675309177E+01 0.94186307374E+01 0.93290879672E+01 0.92814804560E+01
 0.92607419203E+01 0.92547910040E+01 0.92547761759E+01 0.92553814385E+01 0.92547836928E+01
 0.92548104676E+01 0.92607622164E+01 0.92815065388E+01 0.93291072471E+01 0.94186460831E+01
 0.95675177724E+01 0.97948494621E+01 0.10120002102E+02 0.10561277970E+02 0.11133010087E+02
 0.11842908584E+02 0.12686722069E+02 0.13643338138E+02 0.14667036698E+02 0.15675741081E+02
 0.16550683407E+02 0.17120061293E+02 0.17169654535E+02 0.16461639803E+02 0.14772081284E+02
 0.11946135738E+02 0.81192249750E+01 0.40579391245E+01 0.14638429335E+01 0.28924460249E+01
 0.10528637262E+02 0.23485870739E+02 0.36083606136E+02 0.41258680241E+02 0.36083631154E+02
 0.50848715297E+01 0.17244632478E+01 0.17268442415E+01 0.43594459869E+01 0.81192318532E+01
 0.11742481933E+02 0.14538282847E+02 0.16314987885E+02 0.17163047814E+02 0.17263357105E+02
 0.16825276763E+02 0.16052045111E+02 0.15113907643E+02 0.14136507932E+02 0.13208032431E+02
 0.12380688256E+02 0.11681966342E+02 0.11120075022E+02 0.10690316442E+02 0.10379602283E+02
 0.10170177882E+02 0.10042146360E+02 0.99754403948E+01 0.99512452996E+01 0.99527998323E+01
 0.99663755920E+01 0.99813668539E+01 0.99906521552E+01 0.99906495501E+01 0.99813424048E+01
 0.99663318952E+01 0.99527650737E+01 0.99512040933E+01 0.99754483237E+01 0.10042166563E+02
 0.10170195800E+02 0.10379604641E+02 0.10690307277E+02 0.11120069126E+02 0.11681978889E+02
 0.12380670869E+02 0.13208039070E+02 0.14136514712E+02 0.15113911495E+02 0.16052037725E+02
 0.16825294653E+02 0.17263341196E+02 0.17163077011E+02 0.16314984473E+02 0.14538264639E+02
 0.11742487949E+02 0.81191573093E+01 0.43594205417E+01 0.17268374451E+01 0.17244508724E+01
 0.50848348769E+01 0.10500633068E+02 0.14678656819E+02 0.14678589343E+02 0.10500534233E+02
 0.13214534044E+01 0.25720247911E+01 0.52826730287E+01 0.86812605042E+01 0.11946078731E+02
 0.14538282847E+02 0.16260249044E+02 0.17149223441E+02 0.17337964564E+02 0.17000020463E+02
 0.16318024892E+02 0.15452851814E+02 0.14530006991E+02 0.13640591343E+02 0.12840963349E+02
 0.12164000092E+02 0.11621263203E+02 0.11211217143E+02 0.10922080937E+02 0.10737206042E+02
 0.10636138033E+02 0.10598232007E+02 0.10603157304E+02 0.10633181411E+02 0.10672652680E+02
 0.10709746204E+02 0.10735382465E+02 0.10744615107E+02 0.10735408073E+02 0.10709799860E+02
 0.10672728801E+02 0.10633206323E+02 0.10603144903E+02 0.10598191702E+02 0.10636091204E+02
 0.10737233563E+02 0.10922115604E+02 0.11211202944E+02 0.11621223743E+02 0.12164021441E+02
 0.12840964790E+02 0.13640603059E+02 0.14530026067E+02 0.15452867462E+02 0.16318001523E+02
 0.17000050526E+02 0.17337964935E+02 0.17149227034E+02 0.16260264126E+02 0.14538254995E+02
 0.11946139011E+02 0.86812374100E+01 0.52826161675E+01 0.25720565577E+01 0.13215243268E+01
 0.16819644170E+01 0.28246970216E+01 0.34245750180E+01 0.28247829022E+01 0.16819920225E+01
 0.42713690200E+01 0.68213049672E+01 0.97427860061E+01 0.12522861017E+02 0.14772077785E+02
 0.16314987885E+02 0.17149223441E+02 0.17360779960E+02 0.17084513273E+02 0.16476014232E+02
 0.15680040434E+02 0.14816269154E+02 0.13973951148E+02 0.13211968449E+02 0.12566270525E+02
 0.12051655202E+02 0.11669058363E+02 0.11408661144E+02 0.11254426069E+02 0.11186014873E+02
 0.11182093469E+02 0.11221545402E+02 0.11285249756E+02 0.11356425457E+02 0.11421507598E+02
 0.11470433360E+02 0.11496520318E+02 0.11496508080E+02 0.11470367118E+02 0.11421438404E+02
 0.11356377991E+02 0.11285325485E+02 0.11221625140E+02 0.11182108450E+02 0.11185970137E+02
 0.11254404564E+02 0.11408686215E+02 0.11669075314E+02 0.12051614563E+02 0.12566291983E+02
 0.13211978774E+02 0.13973949015E+02 0.14816267738E+02 0.15680051370E+02 0.16475998109E+02
 0.17084525807E+02 0.17360786349E+02 0.17149233940E+02 0.16315043228E+02 0.14772018960E+02
 0.12522885930E+02 0.97428340472E+01 0.68212381427E+01 0.42713395330E+01 0.25117837535E+01
 0.16268153705E+01 0.13440787505E+01 0.13440693305E+01 0.16268316729E+01 0.25117100628E+01
 0.88401853616E+01 0.11164192224E+02 0.13373072230E+02 0.15188299909E+02 0.16461638062E+02
 0.17163047814E+02 0.17337964564E+02 0.17084513273E+02 0.16528355293E+02 0.15793930830E+02
 0.14989986628E+02 0.14200406868E+02 0.13483999771E+02 0.12878011091E+02 0.12399496576E+02
 0.12051655202E+02 0.11826412489E+02 0.11708492588E+02 0.11677713598E+02 0.11712579517E+02
 0.11791074776E+02 0.11892831258E+02 0.11999807113E+02 0.12097505582E+02 0.12174782078E+02
 0.12224196155E+02 0.12241097199E+02 0.12224230009E+02 0.12174835495E+02 0.12097509010E+02
 0.11999677557E+02 0.11892726636E+02 0.11791080966E+02 0.11712669161E+02 0.11677744674E+02
 0.11708435764E+02 0.11826379900E+02 0.12051704188E+02 0.12399470422E+02 0.12878029220E+02
 0.13484023502E+02 0.14200418871E+02 0.14989975951E+02 0.15793940980E+02 0.16528335456E+02
 0.17084530732E+02 0.17338002742E+02 0.17162981137E+02 0.16461719752E+02 0.15188243987E+02
 0.13373032654E+02 0.11164228519E+02 0.88401880508E+01 0.67396630788E+01 0.51434996145E+01
 0.41860701823E+01 0.38732263542E+01 0.41860533050E+01 0.51435163982E+01 0.67396800818E+01
 0.12733827770E+02 0.14347504928E+02 0.15695344875E+02 0.16652059978E+02 0.17169666528E+02
 0.17263357105E+02 0.17000020463E+02 0.16476014232E+02 0.15793930830E+02 0.15048213991E+02
 0.14314897358E+02 0.13650090252E+02 0.13090718718E+02 0.12655195130E+02 0.12348444552E+02
 0.12164000092E+02 0.12087280116E+02 0.12098653332E+02 0.12176323170E+02 0.12297434713E+02
 0.12440287274E+02 0.12586024051E+02 0.12719499425E+02 0.12829031964E+02 0.12906389299E+02
 0.12946330937E+02 0.12946316153E+02 0.12906411158E+02 0.12829088968E+02 0.12719653040E+02
 0.12586141393E+02 0.12440194127E+02 0.12297273304E+02 0.12176382990E+02 0.12098743314E+02
 0.12087260722E+02 0.12163914767E+02 0.12348512632E+02 0.12655178596E+02 0.13090721761E+02
 0.13650093809E+02 0.14314911852E+02 0.15048196631E+02 0.15793941037E+02 0.16476010340E+02
 0.16999978068E+02 0.17263431707E+02 0.17169579911E+02 0.16652122315E+02 0.15695358705E+02
 0.14347431376E+02 0.12733791092E+02 0.11057616619E+02 0.95573693877E+01 0.84437283855E+01
 0.78557864891E+01 0.78558528440E+01 0.84437440191E+01 0.95573250803E+01 0.11057588285E+02
 0.15277719942E+02 0.16181844086E+02 0.16818293542E+02 0.17131948609E+02 0.17120071277E+02
 0.16825276763E+02 0.16318024892E+02 0.15680040434E+02 0.14989986628E+02 0.14314897358E+02
 0.13705920226E+02 0.13198537191E+02 0.12811545557E+02 0.12551122730E+02 0.12412076427E+02
 0.12380688256E+02 0.12437923648E+02 0.12561646631E+02 0.12727978789E+02 0.12914342005E+02
 0.13101213180E+02 0.13273005442E+02 0.13416480778E+02 0.13523682346E+02 0.13589622686E+02
 0.13611845502E+02 0.13589570294E+02 0.13523601936E+02 0.13416351886E+02 0.13272997823E+02
 0.13101410306E+02 0.12914469829E+02 0.12727820557E+02 0.12561581471E+02 0.12438008463E+02
 0.12380718450E+02 0.12411976971E+02 0.12551185475E+02 0.12811560138E+02 0.13198542673E+02
 0.13705932914E+02 0.14314903599E+02 0.14989988115E+02 0.15680020441E+02 0.16318090258E+02
 0.16825192319E+02 0.17120199397E+02 0.17131833378E+02 0.16818260792E+02 0.16181881784E+02
 0.15277773187E+02 0.14211819517E+02 0.13133505797E+02 0.12209973287E+02 0.11589531333E+02
 0.11371371493E+02 0.11589528205E+02 0.12209929985E+02 0.13133499483E+02 0.14211842412E+02
 0.16539333419E+02 0.16887263836E+02 0.17006050403E+02 0.16885368819E+02 0.16550686174E+02
 0.16052045111E+02 0.15452851814E+02 0.14816269154E+02 0.14200406868E+02 0.13650090252E+02
 0.13198537191E+02 0.12864184386E+02 0.12653935536E+02 0.12563763108E+02 0.12580800219E+02
 0.12686725025E+02 0.12858894467E+02 0.13072645627E+02 0.13304606762E+02 0.13534758000E+02
 0.13744839509E+02 0.13922525664E+02 0.14060094922E+02 0.14153388491E+02 0.14200324094E+02
 0.14200345664E+02 0.14153400005E+02 0.14060106412E+02 0.13922366234E+02 0.13744665254E+02
 0.13534714667E+02 0.13304875267E+02 0.13072627213E+02 0.12858765953E+02 0.12686747692E+02
 0.12580883723E+02 0.12563649809E+02 0.12653988059E+02 0.12864184527E+02 0.13198539915E+02
 0.13650106830E+02 0.14200396178E+02 0.14816315036E+02 0.15452758384E+02 0.16052164985E+02
 0.16550527006E+02 0.16885440848E+02 0.17006105001E+02 0.16887194540E+02 0.16539294294E+02
 0.16013085253E+02 0.15393605776E+02 0.14787996541E+02 0.14306684038E+02 0.14040552764E+02
 0.14040559515E+02 0.14306748599E+02 0.14788066323E+02 0.15393589095E+02 0.16013051780E+02
 0.16795954859E+02 0.16751694271E+02 0.16536802646E+02 0.16166317715E+02 0.15675722641E+02
 0.15113907643E+02 0.14530006991E+02 0.13973951148E+02 0.13483999771E+02 0.13090718718E+02
 0.12811545557E+02 0.12653935536E+02 0.12614771219E+02 0.12682245619E+02 0.12838578150E+02
 0.13060969475E+02 0.13323915298E+02 0.13603460439E+02 0.13877564098E+02 0.14126793427E+02
 0.14338939990E+02 0.14506560860E+02 0.14626373513E+02 0.14697822081E+02 0.14721473000E+02
 0.14697864898E+02 0.14626476007E+02 0.14506691744E+02 0.14339001823E+02 0.14126647407E+02
 0.13877318123E+02 0.13603632270E+02 0.13324066174E+02 0.13060799487E+02 0.12838582001E+02
 0.12682323894E+02 0.12614703112E+02 0.12653967094E+02 0.12811586292E+02 0.13090681785E+02
 0.13484079092E+02 0.13973865057E+02 0.14530172944E+02 0.15113752946E+02 0.15675903400E+02
 0.16166238096E+02 0.16536725434E+02 0.16751756052E+02 0.16795991791E+02 0.16680837892E+02
 0.16445708614E+02 0.16151945321E+02 0.15871257307E+02 0.15670757574E+02 0.15598095525E+02
 0.15670699836E+02 0.15871176157E+02 0.16151885989E+02 0.16445701599E+02 0.16680882876E+02
 0.16340907660E+02 0.16058265111E+02 0.15665541928E+02 0.15189470004E+02 0.14667030790E+02
 0.14136507932E+02 0.13640591343E+02 0.13211968449E+02 0.12878011091E+02 0.12655195130E+02
 0.12551122730E+02 0.12563763108E+02 0.12682245619E+02 0.12889648703E+02 0.13163141194E+02
 0.13476697214E+02 0.13805429843E+02 0.14124886147E+02 0.14414605395E+02 0.14661772947E+02
 0.14858877106E+02 0.15003397332E+02 0.15097065534E+02 0.15142818318E+02 0.15142786277E+02
 0.15097071375E+02 0.15003419212E+02 0.14859001473E+02 0.14661958015E+02 0.14414632248E+02
 0.14124577992E+02 0.13805489680E+02 0.13476915765E+02 0.13162980928E+02 0.12889632357E+02
 0.12682308721E+02 0.12563685563E+02 0.12551142403E+02 0.12655237369E+02 0.12877952131E+02
 0.13212082793E+02 0.13640442035E+02 0.14136670513E+02 0.14666907349E+02 0.15189470376E+02
 0.15665711190E+02 0.16058108699E+02 0.16340948973E+02 0.16503338265E+02 0.16553837719E+02
 0.16518565450E+02 0.16436749571E+02 0.16351018956E+02 0.16297865737E+02 0.16297864529E+02
 0.16351108878E+02 0.16436831613E+02 0.16518691727E+02 0.16553778772E+02 0.16503280218E+02
 0.15444368897E+02 0.15048654938E+02 0.14597163678E+02 0.14117121107E+02 0.13643334935E+02
 0.13208032431E+02 0.12840963349E+02 0.12566270525E+02 0.12399496576E+02 0.12348444552E+02
 0.12412076427E+02 0.12580800219E+02 0.12838578150E+02 0.13163141194E+02 0.13527944676E+02
 0.13907209967E+02 0.14273968285E+02 0.14606592072E+02 0.14890535050E+02 0.15117406476E+02
 0.15285680345E+02 0.15399014162E+02 0.15463573165E+02 0.15484357365E+02 0.15463510415E+02
 0.15398945266E+02 0.15285607392E+02 0.15117434116E+02 0.14890736413E+02 0.14606724543E+02
 0.14273689086E+02 0.13907189923E+02 0.13528194050E+02 0.13162973061E+02 0.12838602895E+02
 0.12580844474E+02 0.12412022404E+02 0.12348455451E+02 0.12399540684E+02 0.12566206931E+02
 0.12841087497E+02 0.13207953758E+02 0.13643356702E+02 0.14117250391E+02 0.14596873673E+02
 0.15048854693E+02 0.15444430464E+02 0.15763052266E+02 0.15995631037E+02 0.16145500639E+02
 0.16227098534E+02 0.16261731497E+02 0.16271446003E+02 0.16272669393E+02 0.16271407426E+02
 0.16261640745E+02 0.16226958610E+02 0.16145418325E+02 0.15995714118E+02 0.15763213399E+02
 0.14323764302E+02 0.13907209967E+02 0.13476697214E+02 0.13060969475E+02 0.12686725025E+02
 0.12380688256E+02 0.12164000092E+02 0.12051655202E+02 0.12051655202E+02 0.12164000092E+02
 0.12380688256E+02 0.12686725025E+02 0.13060969475E+02 0.13476697214E+02 0.13907209967E+02
 0.14323764302E+02 0.14702458269E+02 0.15026507932E+02 0.15285930764E+02 0.15478999652E+02
 0.15611099699E+02 0.15691309116E+02 0.15728640941E+02 0.15728648980E+02 0.15691231424E+02
 0.15611000985E+02 0.15478839984E+02 0.15285880071E+02 0.15026666890E+02 0.14702652222E+02
 0.14323491644E+02 0.13907196724E+02 0.13476917196E+02 0.13060787391E+02 0.12686775365E+02
 0.12380687614E+02 0.12163951354E+02 0.12051660907E+02 0.12051660907E+02 0.12163951354E+02
 0.12380687614E+02 0.12686775365E+02 0.13060787391E+02 0.13476917196E+02 0.13907196724E+02
 0.14323491644E+02 0.14702652222E+02 0.15026666890E+02 0.15285880071E+02 0.15478839984E+02
 0.15611000985E+02 0.15691231424E+02 0.15728648980E+02 0.15728640941E+02 0.15691309116E+02
 0.15611099699E+02 0.15478999652E+02 0.15285930764E+02 0.15026507932E+02 0.14702458269E+02
 0.13134122970E+02 0.12759042506E+02 0.12402647637E+02 0.12089451719E+02 0.11842929610E+02
 0.11681966342E+02 0.11621263203E+02 0.11669058363E+02 0.11826412489E+02 0.12087280116E+02
 0.12437923648E+02 0.12858894467E+02 0.13323915298E+02 0.13805429843E+02 0.14273968285E+02
 0.14702458269E+02 0.15071561596E+02 0.15368773807E+02 0.15590931716E+02 0.15743766693E+02
 0.15838961709E+02 0.15889320594E+02 0.15904858620E+02 0.15889350185E+02 0.15838953542E+02
 0.15743715339E+02 0.15590742754E+02 0.15368669189E+02 0.15071696685E+02 0.14702664168E+02
 0.14273681148E+02 0.13805480859E+02 0.13324087821E+02 0.12858728455E+02 0.12438048895E+02
 0.12087216543E+02 0.11826429669E+02 0.11669026092E+02 0.11621296411E+02 0.11681955490E+02
 0.11842883429E+02 0.12089548461E+02 0.12402557719E+02 0.12758928945E+02 0.13134392603E+02
 0.13505505748E+02 0.13850991183E+02 0.14155084924E+02 0.14407297159E+02 0.14602440557E+02
 0.14739558301E+02 0.14820389735E+02 0.14847062775E+02 0.14820375676E+02 0.14739468946E+02
 0.14602314553E+02 0.14407135663E+02 0.14155091919E+02 0.13851270612E+02 0.13505519144E+02
 0.11980514123E+02 0.11684216567E+02 0.11431049722E+02 0.11241436743E+02 0.11133015699E+02
 0.11120075022E+02 0.11211217143E+02 0.11408661144E+02 0.11708492588E+02 0.12098653332E+02
 0.12561646631E+02 0.13072645627E+02 0.13603460439E+02 0.14124886147E+02 0.14606592072E+02
 0.15026507932E+02 0.15368773807E+02 0.15627459529E+02 0.15807112263E+02 0.15920390986E+02
 0.15983274146E+02 0.16010393690E+02 0.16010419079E+02 0.15983316293E+02 0.15920450383E+02
 0.15807100675E+02 0.15627295445E+02 0.15368638757E+02 0.15026653515E+02 0.14606752376E+02
 0.14124576855E+02 0.13603610188E+02 0.13072667684E+02 0.12561539678E+02 0.12098784336E+02
 0.11708392827E+02 0.11408724068E+02 0.11211142214E+02 0.11120081970E+02 0.11133034246E+02
 0.11241367734E+02 0.11431114376E+02 0.11684312037E+02 0.11980377285E+02 0.12297810002E+02
 0.12615836216E+02 0.12915845185E+02 0.13183522629E+02 0.13405760789E+02 0.13576813776E+02
 0.13692336283E+02 0.13750442473E+02 0.13750447276E+02 0.13692364613E+02 0.13576925568E+02
 0.13405913754E+02 0.13183653663E+02 0.12915702199E+02 0.12615614115E+02 0.12297933329E+02
 0.10923374148E+02 0.10727601080E+02 0.10591253722E+02 0.10531221309E+02 0.10561254678E+02
 0.10690316442E+02 0.10922080937E+02 0.11254426069E+02 0.11677713598E+02 0.12176323170E+02
 0.12727978789E+02 0.13304606762E+02 0.13877564098E+02 0.14414605395E+02 0.14890535050E+02
 0.15285930764E+02 0.15590931716E+02 0.15807112263E+02 0.15946235121E+02 0.16025767634E+02
 0.16064154500E+02 0.16075261312E+02 0.16064228643E+02 0.16025840066E+02 0.15946316088E+02
 0.15807118415E+02 0.15590784236E+02 0.15285812222E+02 0.14890744017E+02 0.14414644040E+02
 0.13877328288E+02 0.13304841740E+02 0.12727856299E+02 0.12176350841E+02 0.11677777841E+02
 0.11254376649E+02 0.10922169147E+02 0.10690298804E+02 0.10561259528E+02 0.10531273037E+02
 0.10591221379E+02 0.10727525147E+02 0.10923461769E+02 0.11160305979E+02 0.11418831396E+02
 0.11680415849E+02 0.11928464739E+02 0.12148647162E+02 0.12329991745E+02 0.12464680827E+02
 0.12547514838E+02 0.12575440464E+02 0.12547502263E+02 0.12464634193E+02 0.12329846465E+02
 0.12148494863E+02 0.11928444093E+02 0.11680596300E+02 0.11418916332E+02 0.11160213497E+02
 0.99955234419E+01 0.99080232924E+01 0.98914898995E+01 0.99590156401E+01 0.10120001794E+02
 0.10379602283E+02 0.10737206042E+02 0.11186014873E+02 0.11712579517E+02 0.12297434713E+02
 0.12914342005E+02 0.13534758000E+02 0.14126793427E+02 0.14661772947E+02 0.15117406476E+02
 0.15478999652E+02 0.15743766693E+02 0.15920390986E+02 0.16025767634E+02 0.16080309196E+02
 0.16102327009E+02 0.16102320807E+02 0.16080408471E+02 0.16025856758E+02 0.15920504726E+02
 0.15743729243E+02 0.15478861150E+02 0.15117321409E+02 0.14662031678E+02 0.14126620521E+02
 0.13534729033E+02 0.12914463648E+02 0.12297272429E+02 0.11712666152E+02 0.11185971987E+02
 0.10737201670E+02 0.10379594639E+02 0.10120030534E+02 0.99589701849E+01 0.98915316854E+01
 0.99080652680E+01 0.99954611024E+01 0.10137980898E+02 0.10318617649E+02 0.10519975077E+02
 0.10725504035E+02 0.10920057309E+02 0.11090966989E+02 0.11227941644E+02 0.11323352982E+02
 0.11372243825E+02 0.11372250939E+02 0.11323374282E+02 0.11228024213E+02 0.11091124799E+02
 0.10920142792E+02 0.10725445739E+02 0.10519874726E+02 0.10318557030E+02 0.10138054666E+02
 0.92073954855E+01 0.92287216889E+01 0.93277636509E+01 0.95143850569E+01 0.97948735145E+01
 0.10170177882E+02 0.10636138033E+02 0.11182093469E+02 0.11791074776E+02 0.12440287274E+02
 0.13101213180E+02 0.13744839509E+02 0.14338939990E+02 0.14858877106E+02 0.15285680345E+02
 0.15611099699E+02 0.15838961709E+02 0.15983274146E+02 0.16064154500E+02 0.16102327009E+02
 0.16113115703E+02 0.16102330414E+02 0.16064249979E+02 0.15983379558E+02 0.15839038682E+02
 0.15611058647E+02 0.15285529283E+02 0.14858952392E+02 0.14339086437E+02 0.13744613740E+02
 0.13101425478E+02 0.12440199849E+02 0.11791081224E+02 0.11182105474E+02 0.10636125737E+02
 0.10170202710E+02 0.97948291679E+01 0.95144269415E+01 0.93277079942E+01 0.92286874433E+01
 0.92074504179E+01 0.92512775621E+01 0.93455086291E+01 0.94746143605E+01 0.96230133244E+01
 0.97759476674E+01 0.99201770772E+01 0.10044333438E+02 0.10139435105E+02 0.10199091091E+02
 0.10219407996E+02 0.10199080744E+02 0.10139383128E+02 0.10044230232E+02 0.99200571026E+01
 0.97759346208E+01 0.96230472499E+01 0.94746875099E+01 0.93455572406E+01 0.92512179205E+01
 0.85571423770E+01 0.86815650894E+01 0.88875736131E+01 0.91820006877E+01 0.95675309177E+01
 0.10042146360E+02 0.10598232007E+02 0.11221545402E+02 0.11892831258E+02 0.12586024051E+02
 0.13273005442E+02 0.13922525664E+02 0.14506560860E+02 0.15003397332E+02 0.15399014162E+02
 0.15691309116E+02 0.15889320594E+02 0.16010393690E+02 0.16075261312E+02 0.16102320807E+02
 0.16102330414E+02 0.16075347845E+02 0.16010462950E+02 0.15889454352E+02 0.15691291726E+02
 0.15398929458E+02 0.15003296560E+02 0.14506772465E+02 0.13922352186E+02 0.13272988617E+02
 0.12586152548E+02 0.11892695920E+02 0.11221658428E+02 0.10598133893E+02 0.10042178013E+02
 0.95675189737E+01 0.91819865261E+01 0.88876052142E+01 0.86816108895E+01 0.85570884356E+01
 0.85040776127E+01 0.85103316927E+01 0.85623166600E+01 0.86459420562E+01 0.87473842379E+01
 0.88537114986E+01 0.89533967098E+01 0.90369042726E+01 0.90968119366E+01 0.91280424694E+01
 0.91280462253E+01 0.90968438954E+01 0.90369810874E+01 0.89534784583E+01 0.88537773907E+01
 0.87473971043E+01 0.86459166743E+01 0.85622580119E+01 0.85102936718E+01 0.85041221575E+01
 0.80338895389E+01 0.82531269120E+01 0.85549119992E+01 0.89434039232E+01 0.94186307374E+01
 0.99754403948E+01 0.10603157304E+02 0.11285249756E+02 0.11999807113E+02 0.12719499425E+02
 0.13416480778E+02 0.14060094922E+02 0.14626373513E+02 0.15097065534E+02 0.15463573165E+02
 0.15728640941E+02 0.15904858620E+02 0.16010419079E+02 0.16064228643E+02 0.16080408471E+02
 0.16064249979E+02 0.16010462950E+02 0.15905000723E+02 0.15728709844E+02 0.15463506826E+02
 0.15096935766E+02 0.14626511625E+02 0.14060170583E+02 0.13416290858E+02 0.12719677170E+02
 0.11999700599E+02 0.11285300322E+02 0.10603189167E+02 0.99754482475E+01 0.94186394511E+01
 0.89434250007E+01 0.85548875125E+01 0.82530922571E+01 0.80339349942E+01 0.78899571305E+01
 0.78112646407E+01 0.77862924428E+01 0.78026384199E+01 0.78476909398E+01 0.79093352024E+01
 0.79764010152E+01 0.80392660260E+01 0.80899710931E+01 0.81227451523E+01 0.81340511191E+01
 0.81227229020E+01 0.80899184947E+01 0.80391970150E+01 0.79763621889E+01 0.79092706078E+01
 0.78476855750E+01 0.78026565519E+01 0.77863404536E+01 0.78112975426E+01 0.78899220874E+01
 0.76232997246E+01 0.79265614080E+01 0.83115778108E+01 0.87800729810E+01 0.93290879672E+01
 0.99512452996E+01 0.10633181411E+02 0.11356425457E+02 0.12097505582E+02 0.12829031964E+02
 0.13523682346E+02 0.14153388491E+02 0.14697822081E+02 0.15142818318E+02 0.15484357365E+02
 0.15728648980E+02 0.15889350185E+02 0.15983316293E+02 0.16025840066E+02 0.16025856758E+02
 0.15983379558E+02 0.15889454352E+02 0.15728709844E+02 0.15484350058E+02 0.15142681648E+02
 0.14697808176E+02 0.14153548689E+02 0.13523477435E+02 0.12829157568E+02 0.12097461397E+02
 0.11356385726E+02 0.10633188257E+02 0.99511857579E+01 0.93291261614E+01 0.87800169944E+01
 0.83116297668E+01 0.79265591973E+01 0.76232786412E+01 0.73966279226E+01 0.72389344451E+01
 0.71405204979E+01 0.70907033279E+01 0.70781910604E+01 0.70919344856E+01 0.71213872269E+01
 0.71572183092E+01 0.71913726144E+01 0.72177505910E+01 0.72320194539E+01 0.72320506540E+01
 0.72177764885E+01 0.71914371896E+01 0.71572402023E+01 0.71214407292E+01 0.70919734290E+01
 0.70782111407E+01 0.70906719144E+01 0.71404995042E+01 0.72388848992E+01 0.73966746601E+01
 0.73086943009E+01 0.76847976868E+01 0.81401002612E+01 0.86739816027E+01 0.92814804560E+01
 0.99527998323E+01 0.10672652680E+02 0.11421507598E+02 0.12174782078E+02 0.12906389299E+02
 0.13589622686E+02 0.14200324094E+02 0.14721473000E+02 0.15142786277E+02 0.15463510415E+02
 0.15691231424E+02 0.15838953542E+02 0.15920450383E+02 0.15946316088E+02 0.15920504726E+02
 0.15839038682E+02 0.15691291726E+02 0.15463506826E+02 0.15142681648E+02 0.14721439573E+02
 0.14200525114E+02 0.13589460174E+02 0.12906436106E+02 0.12174859084E+02 0.11421431727E+02
 0.10672766943E+02 0.99527529424E+01 0.92815154850E+01 0.86739728652E+01 0.81400923135E+01
 0.76847696397E+01 0.73087473747E+01 0.70090432598E+01 0.67799959346E+01 0.66137759261E+01
 0.65013117295E+01 0.64327109322E+01 0.63980212192E+01 0.63875347162E+01 0.63923938349E+01
 0.64047754046E+01 0.64183931786E+01 0.64284607777E+01 0.64321331031E+01 0.64284280076E+01
 0.64183510121E+01 0.64047537042E+01 0.63923526679E+01 0.63875082966E+01 0.63979676837E+01
 0.64327129241E+01 0.65013180372E+01 0.66138133098E+01 0.67800193910E+01 0.70090303670E+01
 0.70741177705E+01 0.75112465038E+01 0.80238976720E+01 0.86094389036E+01 0.92607419203E+01
 0.99663755920E+01 0.10709746204E+02 0.11470433360E+02 0.12224196155E+02 0.12946330937E+02
 0.13611845502E+02 0.14200345664E+02 0.14697864898E+02 0.15097071375E+02 0.15398945266E+02
 0.15611000985E+02 0.15743715339E+02 0.15807100675E+02 0.15807118415E+02 0.15743729243E+02
 0.15611058647E+02 0.15398929458E+02 0.15096935766E+02 0.14697808176E+02 0.14200525114E+02
 0.13611705291E+02 0.12946329018E+02 0.12224243856E+02 0.11470341282E+02 0.10709773752E+02
 0.99663323240E+01 0.92607706642E+01 0.86094137321E+01 0.80239366476E+01 0.75112491748E+01
 0.70740821244E+01 0.67114729516E+01 0.64196031984E+01 0.61924024417E+01 0.60223223788E+01
 0.59008524772E+01 0.58191479789E+01 0.57684157048E+01 0.57404018128E+01 0.57276621770E+01
 0.57239303648E+01 0.57242417999E+01 0.57252762460E+01 0.57252907965E+01 0.57242800902E+01
 0.57239469126E+01 0.57276908123E+01 0.57404316638E+01 0.57684436866E+01 0.58191898877E+01
 0.59008587453E+01 0.60223083202E+01 0.61923819990E+01 0.64195674037E+01 0.67114962157E+01
 0.69042387391E+01 0.73912834581E+01 0.79490416462E+01 0.85730538455E+01 0.92547910040E+01
 0.99813668539E+01 0.10735382465E+02 0.11496520318E+02 0.12241097199E+02 0.12946316153E+02
 0.13589570294E+02 0.14153400005E+02 0.14626476007E+02 0.15003419212E+02 0.15285607392E+02
 0.15478839984E+02 0.15590742754E+02 0.15627295445E+02 0.15590784236E+02 0.15478861150E+02
 0.15285529283E+02 0.15003296560E+02 0.14626511625E+02 0.14153548689E+02 0.13589460174E+02
 0.12946329018E+02 0.12241195962E+02 0.11496442713E+02 0.10735480033E+02 0.99813296096E+01
 0.92548069208E+01 0.85730456871E+01 0.79490205944E+01 0.73912685090E+01 0.69042856914E+01
 0.64889002346E+01 0.61430264746E+01 0.58622107762E+01 0.56403798778E+01 0.54703265375E+01
 0.53443252850E+01 0.52544937381E+01 0.51932707631E+01 0.51536650819E+01 0.51296114278E+01
 0.51161197516E+01 0.51095536631E+01 0.51076033019E+01 0.51095311642E+01 0.51161035063E+01
 0.51295881076E+01 0.51536454385E+01 0.51932389902E+01 0.52544758421E+01 0.53442797704E+01
 0.54703275061E+01 0.56403849244E+01 0.58622341826E+01 0.61430535457E+01 0.64888903687E+01
 0.67864004054E+01 0.73124975243E+01 0.79038715710E+01 0.85546277046E+01 0.92547761759E+01
 0.99906521552E+01 0.10744615107E+02 0.11496508080E+02 0.12224230009E+02 0.12906411158E+02