Rubyvaspy :: si                         
    1.000000000000000     
     0.000000    2.734772    2.734772
     2.734772    0.000000    2.734772
     2.734772    2.734772    0.000000
   Si
   2
Direct
  0.000000  0.000000  0.000000
  0.250000  0.250000  0.250000
 
   60   60   60
 0.52341776530E+06 0.19021162948E+05 0.38433127058E+04 0.22594379701E+04 0.12229784334E+04
 0.60539034552E+03 0.28680179051E+03 0.13311664164E+03 0.61253921057E+02 0.28110285679E+02
 0.12916825745E+02 0.59665265325E+01 0.27759641946E+01 0.12984660310E+01 0.61077047922E+00
 0.28861288408E+00 0.13703827944E+00 0.65440983398E-01 0.31495856518E-01 0.15413446379E-01
 0.78093835626E-02 0.42733387127E-02 0.27318445256E-02 0.21294875647E-02 0.20414018253E-02
 0.21401366756E-02 0.23849738071E-02 0.25952722508E-02 0.28270824747E-02 0.29328878820E-02
 0.30108960922E-02 0.29329648747E-02 0.28268906030E-02 0.25947538929E-02 0.23859714510E-02
 0.21420360701E-02 0.20455943315E-02 0.21332435258E-02 0.27359620004E-02 0.42747232923E-02
 0.78058334189E-02 0.15406715590E-01 0.31495348601E-01 0.65448442553E-01 0.13703465620E+00
 0.28860966714E+00 0.61077623884E+00 0.12984621653E+01 0.27759638175E+01 0.59665280129E+01
 0.12916825167E+02 0.28110287124E+02 0.61253919653E+02 0.13311664180E+03 0.28680178951E+03
 0.60539034590E+03 0.12229784331E+04 0.22594379700E+04 0.38433127061E+04 0.19021162948E+05
 0.19021162948E+05 0.47666129260E+04 0.27230605294E+04 0.15800480701E+04 0.81788516860E+03
 0.39751335950E+03 0.18726207659E+03 0.86925404936E+02 0.40100660919E+02 0.18472789254E+02
 0.85336481266E+01 0.39667264087E+01 0.18541379300E+01 0.87201493319E+00 0.41132023941E+00
 0.19544708056E+00 0.92999870160E-01 0.44887923110E-01 0.21766696084E-01 0.11096814038E-01
 0.59761304691E-02 0.38982100795E-02 0.30253436467E-02 0.29950711878E-02 0.31921128444E-02
 0.36396560049E-02 0.40594732604E-02 0.44871444962E-02 0.47876471868E-02 0.49538662290E-02
 0.49624884654E-02 0.47789880903E-02 0.44967326726E-02 0.40496672877E-02 0.36454624369E-02
 0.31799981434E-02 0.29972331566E-02 0.30143049695E-02 0.39034317372E-02 0.59734872833E-02
 0.11111557618E-01 0.21760385993E-01 0.44886108816E-01 0.92998468619E-01 0.19545512840E+00
 0.41131056957E+00 0.87202020250E+00 0.18541417612E+01 0.39667172588E+01 0.85336559608E+01
 0.18472737008E+02 0.40100698651E+02 0.86925303330E+02 0.18726217352E+03 0.39751316426E+03
 0.81788511118E+03 0.15800480525E+04 0.27230602728E+04 0.47666132322E+04 0.19021163165E+05
 0.38433127058E+04 0.27230605294E+04 0.17250027760E+04 0.95718943531E+03 0.48846895589E+03
 0.23794709114E+03 0.11304931903E+03 0.53023771648E+02 0.24718300008E+02 0.11509815783E+02
 0.53772960592E+01 0.25248215156E+01 0.11906200881E+01 0.56362917702E+00 0.26810207243E+00
 0.12796625666E+00 0.61681675819E-01 0.30007040965E-01 0.15219304856E-01 0.82575653729E-02
 0.53351782232E-02 0.42302664389E-02 0.42259017203E-02 0.46494351383E-02 0.54157196287E-02
 0.61992335019E-02 0.70130738038E-02 0.76278968018E-02 0.80752292695E-02 0.81948320821E-02
 0.80751601724E-02 0.76269656344E-02 0.70141346193E-02 0.62026627684E-02 0.54205984749E-02
 0.46555839373E-02 0.42319552928E-02 0.42285661189E-02 0.53337418638E-02 0.82464311989E-02
 0.15220805963E-01 0.30012705816E-01 0.61678500512E-01 0.12795996413E+00 0.26811194267E+00
 0.56362163464E+00 0.11906195323E+01 0.25248370430E+01 0.53772910787E+01 0.11509776870E+02
 0.24718230990E+02 0.53023764154E+02 0.11304922403E+03 0.23794713653E+03 0.48846884386E+03
 0.95718946891E+03 0.17250028092E+04 0.27230605008E+04 0.38433127006E+04 0.47666132324E+04
 0.22594379701E+04 0.15800480701E+04 0.95718943531E+03 0.52417170884E+03 0.26930118646E+03
 0.13311680157E+03 0.64318506665E+02 0.30669615401E+02 0.14524512922E+02 0.68715545198E+01
 0.32586041617E+01 0.15488368837E+01 0.73874895467E+00 0.35298637467E+00 0.16954718958E+00
 0.81793908945E-01 0.40062641200E-01 0.20216392821E-01 0.11072610339E-01 0.70786178342E-02
 0.57753625010E-02 0.58150829766E-02 0.66618968975E-02 0.78697012876E-02 0.92969927552E-02
 0.10692961064E-01 0.11944608062E-01 0.12855964991E-01 0.13361052023E-01 0.13351546981E-01
 0.12867040740E-01 0.11933144774E-01 0.10699292139E-01 0.92795937457E-02 0.78741836842E-02
 0.66411653889E-02 0.58295935612E-02 0.57729851110E-02 0.70932925681E-02 0.11060883549E-01
 0.20219499891E-01 0.40062989539E-01 0.81810588276E-01 0.16952930697E+00 0.35300362085E+00
 0.73874016713E+00 0.15488386114E+01 0.32585906949E+01 0.68715615831E+01 0.14524570567E+02
 0.30669628611E+02 0.64318551425E+02 0.13311673987E+03 0.26930114340E+03 0.52417155214E+03
 0.95718938194E+03 0.15800480290E+04 0.22594381559E+04 0.27230605007E+04 0.27230602725E+04
 0.12229784334E+04 0.81788516860E+03 0.48846895589E+03 0.26930118646E+03 0.14071414464E+03
 0.70998607343E+02 0.35022620629E+02 0.17033682390E+02 0.82272119664E+01 0.39667282343E+01
 0.19114378055E+01 0.92222994555E+00 0.44472512557E+00 0.21552829716E+00 0.10448416269E+00
 0.51643943643E-01 0.25980324793E-01 0.14407479244E-01 0.90990061782E-02 0.77298338973E-02
 0.77738578303E-02 0.92804703777E-02 0.11064185851E-01 0.13598272458E-01 0.15843564757E-01
 0.18311541503E-01 0.19985951365E-01 0.21389297731E-01 0.21629573245E-01 0.21386937080E-01
 0.19988494277E-01 0.18315402551E-01 0.15854237683E-01 0.13606308985E-01 0.11071176064E-01
 0.92876628627E-02 0.77502342046E-02 0.77182416046E-02 0.91130651377E-02 0.14425661096E-01
 0.25966585822E-01 0.51632747945E-01 0.10448790060E+00 0.21551920115E+00 0.44471880701E+00
 0.92224733261E+00 0.19114274553E+01 0.39667208580E+01 0.82271544928E+01 0.17033695944E+02
 0.35022603966E+02 0.70998674318E+02 0.14071429868E+03 0.26930118161E+03 0.48846920228E+03
 0.81788518102E+03 0.12229782473E+04 0.15800480287E+04 0.17250028093E+04 0.15800480521E+04
 0.60539034552E+03 0.39751335950E+03 0.23794709114E+03 0.13311680157E+03 0.70998607343E+02
 0.36629389935E+02 0.18472592416E+02 0.91866144098E+01 0.45337804575E+01 0.22289272552E+01
 0.10926944662E+01 0.53455933566E+00 0.26193415392E+00 0.12839575101E+00 0.63853599747E-01
 0.32435756915E-01 0.17983223928E-01 0.11599321191E-01 0.97888921760E-02 0.10204459712E-01
 0.12371835279E-01 0.15366717825E-01 0.19152134303E-01 0.23148749785E-01 0.27136331020E-01
 0.30588744192E-01 0.33194754938E-01 0.34571297180E-01 0.34573392477E-01 0.33194455971E-01
 0.30579905157E-01 0.27128079156E-01 0.23130421562E-01 0.19148008422E-01 0.15372925820E-01
 0.12376340167E-01 0.10234023481E-01 0.97869755693E-02 0.11574316692E-01 0.17982895846E-01
 0.32433901834E-01 0.63842263104E-01 0.12840167576E+00 0.26194134136E+00 0.53453480288E+00
 0.10927142240E+01 0.22289023772E+01 0.45338453789E+01 0.91865809734E+01 0.18472709172E+02
 0.36629358056E+02 0.70998578354E+02 0.13311682140E+03 0.23794685423E+03 0.39751322280E+03
 0.60539033886E+03 0.81788518067E+03 0.95718938157E+03 0.95718946813E+03 0.81788511109E+03
 0.28680179051E+03 0.18726207659E+03 0.11304931903E+03 0.64318506665E+02 0.35022620629E+02
 0.18472592416E+02 0.95334551551E+01 0.48516610314E+01 0.24470313044E+01 0.12255988432E+01
 0.61097428653E+00 0.30388590228E+00 0.15115370854E+00 0.75865730723E-01 0.38995481758E-01
 0.21693372464E-01 0.14216207313E-01 0.12076253430E-01 0.12998688469E-01 0.16078585134E-01
 0.20629810185E-01 0.26285068222E-01 0.32605452349E-01 0.39212062186E-01 0.45329427980E-01
 0.50409837503E-01 0.53717932462E-01 0.54903420430E-01 0.53718167022E-01 0.50415382716E-01
 0.45348090481E-01 0.39220540271E-01 0.32618973302E-01 0.26273708982E-01 0.20581564082E-01
 0.16084462744E-01 0.13012579962E-01 0.12092126421E-01 0.14173572880E-01 0.21703663813E-01
 0.39009247451E-01 0.75882866589E-01 0.15114354078E+00 0.30393067754E+00 0.61093958824E+00
 0.12256384546E+01 0.24469313228E+01 0.48517214211E+01 0.95333497112E+01 0.18472649469E+02
 0.35022660742E+02 0.64318448728E+02 0.11304952609E+03 0.18726205997E+03 0.28680166025E+03
 0.39751322168E+03 0.48846920178E+03 0.52417155043E+03 0.48846884368E+03 0.39751316274E+03
 0.13311664164E+03 0.86925404936E+02 0.53023771648E+02 0.30669615401E+02 0.17033682390E+02
 0.91866144098E+01 0.48516610314E+01 0.25248356301E+01 0.12987488572E+01 0.66248450456E+00
 0.33603007228E+00 0.17003786228E+00 0.86567465320E-01 0.45050093203E-01 0.25321739655E-01
 0.16719243110E-01 0.14469185899E-01 0.16019627824E-01 0.20282793141E-01 0.26595736426E-01
 0.34878574109E-01 0.44504415952E-01 0.54954098610E-01 0.65280986787E-01 0.74403291925E-01
 0.81257318427E-01 0.84930222686E-01 0.84933892060E-01 0.81249085499E-01 0.74401081522E-01
 0.65257843433E-01 0.54974227112E-01 0.44531588809E-01 0.34912316118E-01 0.26630968302E-01
 0.20252891039E-01 0.15969857437E-01 0.14496038979E-01 0.16726615612E-01 0.25325749557E-01
 0.45071600880E-01 0.86588917650E-01 0.17001396452E+00 0.33607023921E+00 0.66245258689E+00
 0.12988325400E+01 0.25247707052E+01 0.48517718810E+01 0.91865752464E+01 0.17033663517E+02
 0.30669763856E+02 0.53023515869E+02 0.86925390274E+02 0.13311679602E+03 0.18726205943E+03
 0.23794685224E+03 0.26930117980E+03 0.26930114116E+03 0.23794713474E+03 0.18726217242E+03
 0.61253921057E+02 0.40100660919E+02 0.24718300008E+02 0.14524512922E+02 0.82272119664E+01
 0.45337804575E+01 0.24470313044E+01 0.12987488572E+01 0.68079411005E+00 0.35343398362E+00
 0.18263913111E+00 0.94556085120E-01 0.50070315578E-01 0.28427579212E-01 0.19052725645E-01
 0.16719243112E-01 0.19036366638E-01 0.24594598668E-01 0.33226009022E-01 0.44730530095E-01
 0.58826564593E-01 0.74522300016E-01 0.90907609083E-01 0.10638075618E+00 0.11921700612E+00
 0.12773282531E+00 0.13073142197E+00 0.12772515867E+00 0.11920791208E+00 0.10635990510E+00
 0.90869208479E-01 0.74468143379E-01 0.58735928079E-01 0.44772427858E-01 0.33282351137E-01
 0.24602514323E-01 0.18951703334E-01 0.16765673080E-01 0.19078815880E-01 0.28444124318E-01
 0.50052288959E-01 0.94609285812E-01 0.18258769038E+00 0.35350437478E+00 0.68068945537E+00
 0.12988309187E+01 0.24468893748E+01 0.45338258203E+01 0.82272917560E+01 0.14524294200E+02
 0.24718585956E+02 0.40100591991E+02 0.61253725223E+02 0.86925387403E+02 0.11304952329E+03
 0.13311681689E+03 0.14071429551E+03 0.13311673526E+03 0.11304922201E+03 0.86925300065E+02
 0.28110285679E+02 0.18472789254E+02 0.11509815783E+02 0.68715545198E+01 0.39667282343E+01
 0.22289272552E+01 0.12255988432E+01 0.66248450456E+00 0.35343398362E+00 0.18701937723E+00
 0.98915935602E-01 0.53326248773E-01 0.30779157096E-01 0.20902188557E-01 0.18733199894E-01
 0.21693372462E-01 0.28779116263E-01 0.40050158837E-01 0.55402211717E-01 0.74655188083E-01
 0.97245807532E-01 0.12191645487E+00 0.14674776874E+00 0.16903969493E+00 0.18589879583E+00
 0.19506008377E+00 0.19504255025E+00 0.18598673384E+00 0.16908655162E+00 0.14686040690E+00
 0.12200379805E+00 0.97279964911E-01 0.74583195376E-01 0.55361225983E-01 0.40018177092E-01
 0.28860720158E-01 0.21636207729E-01 0.18768008815E-01 0.20925695416E-01 0.30803209487E-01
 0.53274738915E-01 0.98970101518E-01 0.18695451769E+00 0.35354790420E+00 0.66241725038E+00
 0.12256999852E+01 0.22289265597E+01 0.39665484070E+01 0.68718258296E+01 0.11509471847E+02
 0.18472845484E+02 0.28110454655E+02 0.40100588053E+02 0.53023511702E+02 0.64318441373E+02
 0.70998572342E+02 0.70998666172E+02 0.64318545905E+02 0.53023757382E+02 0.40100696631E+02
 0.12916825745E+02 0.85336481266E+01 0.53772960592E+01 0.32586041617E+01 0.19114378055E+01
 0.10926944662E+01 0.61097428653E+00 0.33603007228E+00 0.18263913111E+00 0.98915935602E-01
 0.54458249318E-01 0.32014041606E-01 0.22130800597E-01 0.20213558713E-01 0.23830861700E-01
 0.32435756920E-01 0.46432974411E-01 0.65845304230E-01 0.90977067243E-01 0.12196720386E+00
 0.15755579780E+00 0.19515566118E+00 0.23123884455E+00 0.26137847863E+00 0.28151089377E+00
 0.28857918166E+00 0.28142718580E+00 0.26125728494E+00 0.23110451420E+00 0.19513420253E+00
 0.15757645649E+00 0.12210810930E+00 0.91067068355E-01 0.65754381688E-01 0.46319004823E-01
 0.32538397540E-01 0.23841916446E-01 0.20208190035E-01 0.22161286887E-01 0.32027418380E-01
 0.54428759135E-01 0.98949452958E-01 0.18257272692E+00 0.33606330573E+00 0.61094404414E+00
 0.10925993365E+01 0.19117146710E+01 0.32582223095E+01 0.53776791277E+01 0.85335652204E+01
 0.12916541802E+02 0.18472840697E+02 0.24718576198E+02 0.30669752121E+02 0.35022648034E+02
 0.36629344959E+02 0.35022591542E+02 0.30669616999E+02 0.24718222151E+02 0.18472730619E+02
 0.59665265325E+01 0.39667264087E+01 0.25248215156E+01 0.15488368837E+01 0.92222994555E+00
 0.53455933566E+00 0.30388590228E+00 0.17003786228E+00 0.94556085119E-01 0.53326248774E-01
 0.32014041606E-01 0.22577095989E-01 0.20984187870E-01 0.25238511256E-01 0.35168966862E-01
 0.51643943646E-01 0.74965189009E-01 0.10646844618E+00 0.14687195461E+00 0.19535373389E+00
 0.24890625560E+00 0.30340191332E+00 0.35287333549E+00 0.39078195332E+00 0.41144036769E+00
 0.41148373249E+00 0.39086099660E+00 0.35289257399E+00 0.30329155386E+00 0.24875907771E+00
 0.19515476171E+00 0.14697630437E+00 0.10662192279E+00 0.74948843427E-01 0.51468432412E-01
 0.35276693159E-01 0.25277578920E-01 0.20972625467E-01 0.22595491390E-01 0.32013482539E-01
 0.53311528809E-01 0.94598976802E-01 0.17005877022E+00 0.30386991441E+00 0.53471635916E+00
 0.92189734828E+00 0.15492162305E+01 0.25245515316E+01 0.39665480559E+01 0.59670716015E+01
 0.85335542285E+01 0.11509456339E+02 0.14524273894E+02 0.17033643194E+02 0.18472625642E+02
 0.18472687620E+02 0.17033672979E+02 0.14524552266E+02 0.11509759627E+02 0.85336478711E+01
 0.27759641946E+01 0.18541379300E+01 0.11906200881E+01 0.73874895467E+00 0.44472512557E+00
 0.26193415392E+00 0.15115370853E+00 0.86567465321E-01 0.50070315578E-01 0.30779157096E-01
 0.22130800597E-01 0.20984187870E-01 0.25720255114E-01 0.36653641948E-01 0.55025683919E-01
 0.81793908948E-01 0.11936987422E+00 0.16929897028E+00 0.23141070860E+00 0.30339414508E+00
 0.38076263380E+00 0.45625124187E+00 0.52028589348E+00 0.56342531323E+00 0.57871211153E+00
 0.56347449043E+00 0.52044901774E+00 0.45646857137E+00 0.38095674258E+00 0.30332027693E+00
 0.23119624880E+00 0.16923139796E+00 0.11952134445E+00 0.81830199502E-01 0.54874649193E-01
 0.36718364957E-01 0.25797790649E-01 0.20948884805E-01 0.22196285259E-01 0.30746948621E-01
 0.50084347393E-01 0.86521653855E-01 0.15122584021E+00 0.26175813016E+00 0.44502485657E+00
 0.73850193327E+00 0.11906530130E+01 0.18545641856E+01 0.27754395122E+01 0.39665318088E+01
 0.53776544456E+01 0.68717926835E+01 0.82272553007E+01 0.91865343596E+01 0.95333099964E+01
 0.91865404593E+01 0.82271179540E+01 0.68715281365E+01 0.53772656572E+01 0.39667005841E+01
 0.12984660310E+01 0.87201493319E+00 0.56362917702E+00 0.35298637467E+00 0.21552829716E+00
 0.12839575101E+00 0.75865730723E-01 0.45050093203E-01 0.28427579211E-01 0.20902188557E-01
 0.20213558713E-01 0.25238511255E-01 0.36653641948E-01 0.56199556367E-01 0.85461952203E-01
 0.12796625666E+00 0.18628832452E+00 0.26148501421E+00 0.35278037175E+00 0.45619317512E+00
 0.56343349829E+00 0.66219509948E+00 0.73844816555E+00 0.78020673802E+00 0.78011955001E+00
 0.73835946862E+00 0.66207765700E+00 0.56359608768E+00 0.45647290094E+00 0.35290439071E+00
 0.26134990075E+00 0.18614121544E+00 0.12803674177E+00 0.85557689568E-01 0.56037214882E-01
 0.36737099186E-01 0.25281658343E-01 0.20195961252E-01 0.20956407455E-01 0.28438331831E-01
 0.45108682580E-01 0.75837112654E-01 0.12852513504E+00 0.21530926806E+00 0.35309697440E+00
 0.56373004616E+00 0.87161348191E+00 0.12987058822E+01 0.18545413440E+01 0.25245057957E+01
 0.32581691268E+01 0.39664828289E+01 0.45337603552E+01 0.48516995329E+01 0.48516535893E+01
 0.45337750448E+01 0.39666609440E+01 0.32585329390E+01 0.25247970053E+01 0.18541126113E+01
 0.61077047921E+00 0.41132023941E+00 0.26810207243E+00 0.16954718958E+00 0.10448416269E+00
 0.63853599747E-01 0.38995481758E-01 0.25321739655E-01 0.19052725645E-01 0.18733199894E-01
 0.23830861700E-01 0.35168966862E-01 0.55025683919E-01 0.85461952203E-01 0.13098488155E+00
 0.19544708056E+00 0.28154973622E+00 0.39063375993E+00 0.52029204841E+00 0.66219438477E+00
 0.80222461946E+00 0.92196732458E+00 0.10032419351E+01 0.10320314789E+01 0.10031536898E+01
 0.92178400438E+00 0.80189689435E+00 0.66213279713E+00 0.52049652394E+00 0.39085960070E+00
 0.28151601204E+00 0.19526377710E+00 0.13103511851E+00 0.85549982040E-01 0.54864026014E-01
 0.35264424641E-01 0.23860659217E-01 0.18732322671E-01 0.19090095270E-01 0.25285016035E-01
 0.39056362824E-01 0.63731359439E-01 0.10467072863E+00 0.16946984167E+00 0.26801945691E+00
 0.41157073670E+00 0.61074268840E+00 0.87157391348E+00 0.11905783950E+01 0.15491309825E+01
 0.19116071291E+01 0.22288166116E+01 0.24467646665E+01 0.25246517487E+01 0.24468064690E+01
 0.22287920582E+01 0.19113185495E+01 0.15487537695E+01 0.11905451236E+01 0.87198370626E+00
 0.28861288408E+00 0.19544708056E+00 0.12796625666E+00 0.81793908949E-01 0.51643943644E-01
 0.32435756915E-01 0.21693372461E-01 0.16719243111E-01 0.16719243111E-01 0.21693372461E-01
 0.32435756915E-01 0.51643943644E-01 0.81793908949E-01 0.12796625666E+00 0.19544708056E+00
 0.28861288408E+00 0.41124224094E+00 0.56351368589E+00 0.73859168337E+00 0.92207949618E+00
 0.10925202753E+01 0.12254375783E+01 0.12986186570E+01 0.12986234267E+01 0.12254917369E+01
 0.10924113320E+01 0.92172195028E+00 0.73836193494E+00 0.56361685603E+00 0.41150568355E+00
 0.28861010895E+00 0.19526400506E+00 0.12804401915E+00 0.81841390903E-01 0.51479708669E-01
 0.32522840352E-01 0.21666723950E-01 0.16759630709E-01 0.16759630709E-01 0.21666723949E-01
 0.32522840352E-01 0.51479708669E-01 0.81841390903E-01 0.12804401915E+00 0.19526400506E+00
 0.28861010895E+00 0.41150568355E+00 0.56361685603E+00 0.73836193493E+00 0.92172195028E+00
 0.10924113320E+01 0.12254917369E+01 0.12986234267E+01 0.12986186570E+01 0.12254375783E+01
 0.10925202753E+01 0.92207949618E+00 0.73859168337E+00 0.56351368589E+00 0.41124224094E+00
 0.13703827944E+00 0.92999870160E-01 0.61681675819E-01 0.40062641201E-01 0.25980324794E-01
 0.17983223928E-01 0.14216207313E-01 0.14469185899E-01 0.19036366638E-01 0.28779116263E-01
 0.46432974411E-01 0.74965189009E-01 0.11936987422E+00 0.18628832452E+00 0.28154973622E+00
 0.41124224094E+00 0.57878707103E+00 0.78039322235E+00 0.10033280487E+01 0.12254428853E+01
 0.14174886166E+01 0.15488739265E+01 0.15956419183E+01 0.15489868031E+01 0.14177083813E+01
 0.12254892145E+01 0.10030232657E+01 0.78008326006E+00 0.57884984042E+00 0.41150795683E+00
 0.28151523780E+00 0.18613399184E+00 0.11951050831E+00 0.74936794593E-01 0.46334332155E-01
 0.28831108610E-01 0.18957573086E-01 0.14464790515E-01 0.14208013513E-01 0.17904669222E-01
 0.26106920079E-01 0.40039870461E-01 0.61614499471E-01 0.93136301448E-01 0.13705041267E+00
 0.19515956990E+00 0.26784808328E+00 0.35286520637E+00 0.44474642691E+00 0.53440363877E+00
 0.61060412388E+00 0.66205990813E+00 0.68032641792E+00 0.66209380225E+00 0.61059983779E+00
 0.53422004644E+00 0.44444349295E+00 0.35277130703E+00 0.26794020167E+00 0.19535072522E+00
 0.65440983398E-01 0.44887923110E-01 0.30007040965E-01 0.20216392820E-01 0.14407479244E-01
 0.11599321191E-01 0.12076253430E-01 0.16019627824E-01 0.24594598668E-01 0.40050158837E-01
 0.65845304229E-01 0.10646844618E+00 0.16929897028E+00 0.26148501421E+00 0.39063375993E+00
 0.56351368589E+00 0.78039322235E+00 0.10321313375E+01 0.12985440861E+01 0.15487473607E+01
 0.17455359733E+01 0.18542649170E+01 0.18543179288E+01 0.17456925242E+01 0.15490596408E+01
 0.12986915557E+01 0.10318529316E+01 0.78009284124E+00 0.56360806044E+00 0.39086521203E+00
 0.26135183143E+00 0.16924756332E+00 0.10662863367E+00 0.65745863865E-01 0.40039490648E-01
 0.24605337847E-01 0.15990240929E-01 0.12069490058E-01 0.11633009818E-01 0.14305722686E-01
 0.20225895694E-01 0.30074845236E-01 0.44768348355E-01 0.65445128231E-01 0.92979644797E-01
 0.12778171154E+00 0.16910339621E+00 0.21487274625E+00 0.26125008094E+00 0.30331129454E+00
 0.33546094324E+00 0.35293215463E+00 0.35288267700E+00 0.33547566982E+00 0.30336576156E+00
 0.26143872254E+00 0.21507451777E+00 0.16917292735E+00 0.12768605752E+00 0.92851266780E-01
 0.31495856518E-01 0.21766696084E-01 0.15219304856E-01 0.11072610340E-01 0.90990061781E-02
 0.97888921758E-02 0.12998688469E-01 0.20282793141E-01 0.33226009022E-01 0.55402211717E-01
 0.90977067242E-01 0.14687195461E+00 0.23141070860E+00 0.35278037175E+00 0.52029204841E+00
 0.73859168337E+00 0.10033280487E+01 0.12985440861E+01 0.15954901290E+01 0.18542216369E+01
 0.20318684771E+01 0.20952705671E+01 0.20319407175E+01 0.18543910314E+01 0.15958580513E+01
 0.12986744678E+01 0.10030078909E+01 0.73837443009E+00 0.52049640388E+00 0.35289329489E+00
 0.23119072080E+00 0.14695859942E+00 0.91085493200E-01 0.55331163523E-01 0.33288441987E-01
 0.20224889705E-01 0.13042598822E-01 0.97271259125E-02 0.92355216228E-02 0.11047827629E-01
 0.15180008226E-01 0.21844119702E-01 0.31507990727E-01 0.44539000040E-01 0.61211900854E-01
 0.81281188966E-01 0.10398733060E+00 0.12771559959E+00 0.15031692313E+00 0.16907104238E+00
 0.18153796150E+00 0.18590017815E+00 0.18155202633E+00 0.16902559188E+00 0.15023618555E+00
 0.12759357499E+00 0.10380057052E+00 0.81255867077E-01 0.61273497117E-01 0.44656418945E-01
 0.15413446378E-01 0.11096814038E-01 0.82575653732E-02 0.70786178336E-02 0.77298338981E-02
 0.10204459712E-01 0.16078585134E-01 0.26595736426E-01 0.44730530095E-01 0.74655188083E-01
 0.12196720386E+00 0.19535373389E+00 0.30339414508E+00 0.45619317512E+00 0.66219438477E+00
 0.92207949618E+00 0.12254428853E+01 0.15487473607E+01 0.18542216369E+01 0.20952576831E+01
 0.22288112033E+01 0.22288308966E+01 0.20953141109E+01 0.18544379692E+01 0.15491237393E+01
 0.12254535001E+01 0.92168635443E+00 0.66216287278E+00 0.45646594418E+00 0.30333830593E+00
 0.19516198619E+00 0.12210007591E+00 0.74602289107E-01 0.44776605437E-01 0.26647711220E-01
 0.16065704096E-01 0.10277498959E-01 0.76098120383E-02 0.70954870009E-02 0.82873018835E-02
 0.11036125883E-01 0.15406003410E-01 0.21514995788E-01 0.29470780571E-01 0.39206701625E-01
 0.50425546992E-01 0.62470433681E-01 0.74387464120E-01 0.84925459638E-01 0.92881779902E-01
 0.97181121359E-01 0.97194020186E-01 0.92900393239E-01 0.84983330886E-01 0.74439825170E-01
 0.62576617353E-01 0.50582716074E-01 0.39222050683E-01 0.29418965238E-01 0.21420375983E-01
 0.78093835671E-02 0.59761304688E-02 0.53351782235E-02 0.57753625004E-02 0.77738578304E-02
 0.12371835280E-01 0.20629810186E-01 0.34878574109E-01 0.58826564593E-01 0.97245807533E-01
 0.15755579780E+00 0.24890625560E+00 0.38076263380E+00 0.56343349829E+00 0.80222461946E+00
 0.10925202753E+01 0.14174886166E+01 0.17455359733E+01 0.20318684771E+01 0.22288112033E+01
 0.22990228737E+01 0.22288093164E+01 0.20319743524E+01 0.17457995595E+01 0.14177854935E+01
 0.10923194947E+01 0.80191343503E+00 0.56359496384E+00 0.38094131622E+00 0.24874846889E+00
 0.15758691115E+00 0.97260147143E-01 0.58732860092E-01 0.34895741295E-01 0.20600145440E-01
 0.12337567128E-01 0.78564875350E-02 0.57705797142E-02 0.53017648468E-02 0.60334338784E-02
 0.78061821482E-02 0.10560159832E-01 0.14308724356E-01 0.18998329780E-01 0.24522119423E-01
 0.30587065811E-01 0.36795761042E-01 0.42555147209E-01 0.47298065015E-01 0.50381352643E-01
 0.51446939394E-01 0.50344493182E-01 0.47268862656E-01 0.42517418327E-01 0.36747869322E-01
 0.30499745203E-01 0.24383125093E-01 0.18988225929E-01 0.14354830192E-01 0.10633766102E-01
 0.42733387115E-02 0.38982100794E-02 0.42302664393E-02 0.58150829765E-02 0.92804703781E-02
 0.15366717824E-01 0.26285068222E-01 0.44504415952E-01 0.74522300016E-01 0.12191645487E+00
 0.19515566118E+00 0.30340191332E+00 0.45625124187E+00 0.66219509948E+00 0.92196732458E+00
 0.12254375783E+01 0.15488739265E+01 0.18542649170E+01 0.20952705671E+01 0.22288308966E+01
 0.22288093164E+01 0.20953464464E+01 0.18544535766E+01 0.15491528215E+01 0.12254341549E+01
 0.92168925419E+00 0.66214959362E+00 0.45645961298E+00 0.30330812888E+00 0.19512551199E+00
 0.12201850367E+00 0.74475857672E-01 0.44541750015E-01 0.26261845093E-01 0.15400559807E-01
 0.91901925920E-02 0.58248675761E-02 0.42610437674E-02 0.38475628963E-02 0.42838990799E-02
 0.53711547831E-02 0.70653555767E-02 0.92786271536E-02 0.11977982085E-01 0.15003627701E-01
 0.18206728731E-01 0.21287954982E-01 0.23998309730E-01 0.25979076554E-01 0.27072065456E-01
 0.27083608000E-01 0.26034293241E-01 0.24001299238E-01 0.21333654920E-01 0.18236887723E-01
 0.15085836485E-01 0.12096792255E-01 0.92909071063E-02 0.70206699752E-02 0.53149729200E-02
 0.27318445225E-02 0.30253436465E-02 0.42259017203E-02 0.66618968976E-02 0.11064185851E-01
 0.19152134303E-01 0.32605452349E-01 0.54954098609E-01 0.90907609084E-01 0.14674776874E+00
 0.23123884455E+00 0.35287333549E+00 0.52028589348E+00 0.73844816555E+00 0.10032419351E+01
 0.12986186570E+01 0.15956419183E+01 0.18543179288E+01 0.20319407175E+01 0.20953141109E+01
 0.20319743524E+01 0.18544535766E+01 0.15959021373E+01 0.12986682595E+01 0.10029858308E+01
 0.73837623218E+00 0.52046650040E+00 0.35286302447E+00 0.23111667684E+00 0.14684398625E+00
 0.90865426763E-01 0.54961653700E-01 0.32633710071E-01 0.19121011376E-01 0.11170784136E-01
 0.66422001135E-02 0.42087072497E-02 0.30568915403E-02 0.27293520547E-02 0.29593176619E-02
 0.36160257490E-02 0.46110074663E-02 0.58946947395E-02 0.73896735127E-02 0.90173499446E-02
 0.10644536622E-01 0.12144127847E-01 0.13344870371E-01 0.14146121787E-01 0.14403078519E-01
 0.14114228275E-01 0.13315956379E-01 0.12130001119E-01 0.10616162080E-01 0.89814906194E-02
 0.73299323626E-02 0.57742141327E-02 0.46124541529E-02 0.36441566193E-02 0.30162633584E-02
 0.21294875642E-02 0.29950711877E-02 0.46494351388E-02 0.78697012873E-02 0.13598272458E-01
 0.23148749785E-01 0.39212062186E-01 0.65280986788E-01 0.10638075618E+00 0.16903969493E+00
 0.26137847863E+00 0.39078195332E+00 0.56342531323E+00 0.78020673802E+00 0.10320314789E+01
 0.12986234266E+01 0.15489868031E+01 0.17456925242E+01 0.18543910314E+01 0.18544379692E+01
 0.17457995595E+01 0.15491528215E+01 0.12986682595E+01 0.10318282393E+01 0.78008398846E+00
 0.56358713760E+00 0.39081581048E+00 0.26127667329E+00 0.16909132024E+00 0.10636872857E+00
 0.65263405944E-01 0.39212120082E-01 0.23147600303E-01 0.13513917597E-01 0.78673657718E-02
 0.46799978743E-02 0.29570108579E-02 0.21465660151E-02 0.18835719984E-02 0.20052040039E-02
 0.23741404693E-02 0.29544486076E-02 0.36639691569E-02 0.44845916983E-02 0.53212473456E-02
 0.61410710731E-02 0.68274334617E-02 0.73546993138E-02 0.76068350917E-02 0.76304040189E-02
 0.73627496243E-02 0.68672535078E-02 0.61398634038E-02 0.53567005606E-02 0.45048369091E-02
 0.37248467159E-02 0.30573942652E-02 0.23814335982E-02 0.19706707540E-02 0.18464821008E-02
 0.20414018246E-02 0.31921128445E-02 0.54157196291E-02 0.92969927554E-02 0.15843564758E-01
 0.27136331020E-01 0.45329427980E-01 0.74403291925E-01 0.11921700612E+00 0.18589879583E+00
 0.28151089377E+00 0.41144036769E+00 0.57871211153E+00 0.78011955001E+00 0.10031536898E+01
 0.12254917369E+01 0.14177083813E+01 0.15490596408E+01 0.15958580513E+01 0.15491237393E+01
 0.14177854935E+01 0.12254341549E+01 0.10029858308E+01 0.78008398846E+00 0.57882334349E+00
 0.41145852997E+00 0.28142677996E+00 0.18596621403E+00 0.11921045445E+00 0.74390784246E-01
 0.45361585265E-01 0.27109645452E-01 0.15950449186E-01 0.92813184438E-02 0.54045316104E-02
 0.32090090366E-02 0.20357816330E-02 0.14663501720E-02 0.12784919574E-02 0.13231998267E-02
 0.15350615309E-02 0.18501586484E-02 0.22451126340E-02 0.26697310402E-02 0.31027954529E-02
 0.34880019115E-02 0.38062421975E-02 0.40011602009E-02 0.40849241815E-02 0.39979119795E-02
 0.37861057030E-02 0.34633674859E-02 0.30952603421E-02 0.26490425066E-02 0.22178889898E-02
 0.18082593461E-02 0.14264719984E-02 0.13285726964E-02 0.12976006598E-02 0.15086230907E-02
 0.21401366755E-02 0.36396560051E-02 0.61992335015E-02 0.10692961064E-01 0.18311541503E-01
 0.30588744192E-01 0.50409837503E-01 0.81257318428E-01 0.12773282531E+00 0.19506008377E+00
 0.28857918166E+00 0.41148373249E+00 0.56347449043E+00 0.73835946862E+00 0.92178400438E+00
 0.10924113320E+01 0.12254892145E+01 0.12986915557E+01 0.12986744678E+01 0.12254535001E+01
 0.10923194947E+01 0.92168925419E+00 0.73837623218E+00 0.56358713760E+00 0.41145852997E+00
 0.28851922640E+00 0.19508911406E+00 0.12772493973E+00 0.81249043020E-01 0.50408566319E-01
 0.30588671535E-01 0.18225637349E-01 0.10692449402E-01 0.62214506340E-02 0.36170625656E-02
 0.21573873283E-02 0.13645924358E-02 0.98711092029E-03 0.84362872972E-03 0.86320874687E-03
 0.96770325922E-03 0.11459340279E-02 0.13469086197E-02 0.15740104561E-02 0.17781330909E-02
 0.19673398818E-02 0.20916148625E-02 0.21727812876E-02 0.21560579749E-02 0.21063018295E-02
 0.19763153570E-02 0.18088386828E-02 0.15709445927E-02 0.13724635267E-02 0.11617909154E-02
 0.10107342039E-02 0.95918979589E-03 0.84593358930E-03 0.96209654108E-03 0.13378978879E-02
 0.23849738051E-02 0.40594732601E-02 0.70130738042E-02 0.11944608062E-01 0.19985951365E-01
 0.33194754937E-01 0.53717932462E-01 0.84930222686E-01 0.13073142197E+00 0.19504255025E+00
 0.28142718580E+00 0.39086099660E+00 0.52044901774E+00 0.66207765700E+00 0.80189689435E+00
 0.92172195028E+00 0.10030232657E+01 0.10318529316E+01 0.10030078909E+01 0.92168635443E+00
 0.80191343503E+00 0.66214959362E+00 0.52046650040E+00 0.39081581048E+00 0.28142677996E+00
 0.19508911406E+00 0.13070724156E+00 0.84936536938E-01 0.53730155191E-01 0.33185793429E-01
 0.20081025696E-01 0.11936272827E-01 0.70007415498E-02 0.40689091835E-02 0.23740765332E-02
 0.14143647644E-02 0.90206333155E-03 0.64590734395E-03 0.55225953460E-03 0.54702685040E-03
 0.60621264711E-03 0.69257744457E-03 0.80320782040E-03 0.90943472701E-03 0.10145190855E-02
 0.10911005046E-02 0.11488020533E-02 0.11598007500E-02 0.11542934219E-02 0.10851525342E-02
 0.99903240593E-03 0.88857806786E-03 0.80085293038E-03 0.67722136456E-03 0.58596525998E-03
 0.51731164270E-03 0.45269169957E-03 0.65100502715E-03 0.91801025417E-03 0.14424636132E-02
 0.25952722503E-02 0.44871444963E-02 0.76278968029E-02 0.12855964991E-01 0.21389297732E-01
 0.34571297179E-01 0.54903420430E-01 0.84933892060E-01 0.12772515867E+00 0.18598673384E+00