Rubyvaspy :: si                         
    1.000000000000000     
     0.000000    2.734772    2.734772
     2.734772    0.000000    2.734772
     2.734772    2.734772    0.000000
   Si
   2
Direct
  0.000000  0.000000  0.000000
  0.250000  0.250000  0.250000
 
   60   60   60
 0.20559094774E+04 0.89340951924E+02 0.94802285268E+02 0.61297853261E+02 0.22918119895E+02
 0.42252933308E+01 0.20089835374E+00 0.28726472887E+01 0.73279743623E+01 0.11339309730E+02
 0.14199005888E+02 0.15900182319E+02 0.16641908606E+02 0.16651098664E+02 0.16154277907E+02
 0.15351269930E+02 0.14406570880E+02 0.13425456811E+02 0.12451431395E+02 0.11517346595E+02
 0.10648654507E+02 0.98620714740E+01 0.91658740690E+01 0.85615912109E+01 0.80464884462E+01
 0.76161305331E+01 0.72664167594E+01 0.69947312698E+01 0.68001547567E+01 0.66829605974E+01
 0.66437935835E+01 0.66829605974E+01 0.68001547567E+01 0.69947312698E+01 0.72664167594E+01
 0.76161305331E+01 0.80464884462E+01 0.85615912109E+01 0.91658740690E+01 0.98620714740E+01
 0.10648654507E+02 0.11517346595E+02 0.12451431395E+02 0.13425456811E+02 0.14406570880E+02
 0.15351269930E+02 0.16154277907E+02 0.16651098664E+02 0.16641908606E+02 0.15900182319E+02
 0.14199005888E+02 0.11339309730E+02 0.73279743623E+01 0.28726472887E+01 0.20089835374E+00
 0.42252933308E+01 0.22918119895E+02 0.61297853261E+02 0.94802285268E+02 0.89340951924E+02
 0.89340951924E+02 0.93931150959E+02 0.76954643290E+02 0.36175441712E+02 0.10089443173E+02
 0.11736886459E+01 0.18162939487E+01 0.59286908058E+01 0.10325185991E+02 0.13760037342E+02
 0.15988266615E+02 0.17155942992E+02 0.17482885789E+02 0.17199314112E+02 0.16519515490E+02
 0.15624257441E+02 0.14651573993E+02 0.13666652240E+02 0.12704610133E+02 0.11794595373E+02
 0.10957748503E+02 0.10206632049E+02 0.95462122455E+01 0.89759845327E+01 0.84925663503E+01
 0.80920611607E+01 0.77716723155E+01 0.75303359373E+01 0.73684600546E+01 0.72871115157E+01
 0.72871115157E+01 0.73684600546E+01 0.75303359373E+01 0.77716723155E+01 0.80920611607E+01
 0.84925663503E+01 0.89759845327E+01 0.95462122455E+01 0.10206632049E+02 0.10957748503E+02
 0.11794595373E+02 0.12704610133E+02 0.13666652240E+02 0.14651573993E+02 0.15624257441E+02
 0.16519515490E+02 0.17199314112E+02 0.17482885789E+02 0.17155942992E+02 0.15988266615E+02
 0.13760037342E+02 0.10325185991E+02 0.59286908058E+01 0.18162939487E+01 0.11736886459E+01
 0.10089443173E+02 0.36175441712E+02 0.76954643290E+02 0.93931150959E+02 0.89340951924E+02
 0.94802285268E+02 0.76954643290E+02 0.41701999615E+02 0.14519587330E+02 0.27087091270E+01
 0.14652626579E+01 0.49304187907E+01 0.94322223873E+01 0.13280381071E+02 0.15964705818E+02
 0.17530515656E+02 0.18176909278E+02 0.18126199444E+02 0.17597955754E+02 0.16783771356E+02
 0.15840378163E+02 0.14862531417E+02 0.13890056148E+02 0.12954478195E+02 0.12080454695E+02
 0.11284474991E+02 0.10575076139E+02 0.99544280063E+01 0.94207408516E+01 0.89707864326E+01
 0.86018920990E+01 0.83130062150E+01 0.81047588573E+01 0.79787550457E+01 0.79365444609E+01
 0.79787550457E+01 0.81047588573E+01 0.83130062150E+01 0.86018920990E+01 0.89707864326E+01
 0.94207408516E+01 0.99544280063E+01 0.10575076139E+02 0.11284474991E+02 0.12080454695E+02
 0.12954478195E+02 0.13890056148E+02 0.14862531417E+02 0.15840378163E+02 0.16783771356E+02
 0.17597955754E+02 0.18126199444E+02 0.18176909278E+02 0.17530515656E+02 0.15964705818E+02
 0.13280381071E+02 0.94322223873E+01 0.49304187907E+01 0.14652626579E+01 0.27087091270E+01
 0.14519587330E+02 0.41701999615E+02 0.76954643290E+02 0.94802285268E+02 0.93840849582E+02
 0.61297853261E+02 0.36175441712E+02 0.14519587330E+02 0.34431093850E+01 0.14687640257E+01
 0.43744816835E+01 0.87849448097E+01 0.12856385820E+02 0.15881340008E+02 0.17785242933E+02
 0.18727486571E+02 0.18912112986E+02 0.18553139531E+02 0.17846615071E+02 0.16957299802E+02
 0.16005280137E+02 0.15041483503E+02 0.14098535695E+02 0.13203497351E+02 0.12376083256E+02
 0.11628182523E+02 0.10964816862E+02 0.10386189171E+02 0.98901809609E+01 0.94746010583E+01
 0.91386429448E+01 0.88833058439E+01 0.87108783623E+01 0.86238644756E+01 0.86238644756E+01
 0.87108783623E+01 0.88833058439E+01 0.91386429448E+01 0.94746010583E+01 0.98901809609E+01
 0.10386189171E+02 0.10964816862E+02 0.11628182523E+02 0.12376083256E+02 0.13203497351E+02
 0.14098535695E+02 0.15041483503E+02 0.16005280137E+02 0.16957299802E+02 0.17846615071E+02
 0.18553139531E+02 0.18912112986E+02 0.18727486571E+02 0.17785242933E+02 0.15881340008E+02
 0.12856385820E+02 0.87849448097E+01 0.43744816835E+01 0.14687640257E+01 0.34431093850E+01
 0.14519587330E+02 0.36175441712E+02 0.61297853261E+02 0.76698689187E+02 0.76698689187E+02
 0.22918119895E+02 0.10089443173E+02 0.27087091270E+01 0.14687640257E+01 0.42029127771E+01
 0.84505345315E+01 0.12568485628E+02 0.15790122407E+02 0.17943798504E+02 0.19134955887E+02
 0.19539533560E+02 0.19355504031E+02 0.18775137805E+02 0.17965773204E+02 0.17058713877E+02
 0.16123646330E+02 0.15193232354E+02 0.14295800649E+02 0.13453373100E+02 0.12680660621E+02
 0.11985412741E+02 0.11370005269E+02 0.10833758812E+02 0.10375301365E+02 0.99943380802E+01
 0.96924298256E+01 0.94727246794E+01 0.93389198295E+01 0.92939478140E+01 0.93389198295E+01
 0.94727246794E+01 0.96924298256E+01 0.99943380802E+01 0.10375301365E+02 0.10833758812E+02
 0.11370005269E+02 0.11985412741E+02 0.12680660621E+02 0.13453373100E+02 0.14295800649E+02
 0.15193232354E+02 0.16123646330E+02 0.17058713877E+02 0.17965773204E+02 0.18775137805E+02
 0.19355504031E+02 0.19539533560E+02 0.19134955887E+02 0.17943798504E+02 0.15790122407E+02
 0.12568485628E+02 0.84505345315E+01 0.42029127771E+01 0.14687640257E+01 0.27087091270E+01
 0.10089443173E+02 0.22918119895E+02 0.35704527815E+02 0.41065409395E+02 0.35704527815E+02
 0.42252933308E+01 0.11736886459E+01 0.14652626579E+01 0.43744816835E+01 0.84505345315E+01
 0.12467085761E+02 0.15733016214E+02 0.18028353642E+02 0.19402924172E+02 0.19995865716E+02
 0.19980255615E+02 0.19536039123E+02 0.18825711610E+02 0.17985920492E+02 0.17099866410E+02
 0.16202770379E+02 0.15323218926E+02 0.14484548755E+02 0.13703539752E+02 0.12990262007E+02
 0.12349183425E+02 0.11781205688E+02 0.11286013186E+02 0.10864058054E+02 0.10517660502E+02
 0.10251015378E+02 0.10069255600E+02 0.99770090787E+01 0.99770090787E+01 0.10069255600E+02
 0.10251015378E+02 0.10517660502E+02 0.10864058054E+02 0.11286013186E+02 0.11781205688E+02
 0.12349183425E+02 0.12990262007E+02 0.13703539752E+02 0.14484548755E+02 0.15323218926E+02
 0.16202770379E+02 0.17099866410E+02 0.17985920492E+02 0.18825711610E+02 0.19536039123E+02
 0.19980255615E+02 0.19995865716E+02 0.19402924172E+02 0.18028353642E+02 0.15733016214E+02
 0.12467085761E+02 0.84505345315E+01 0.43744816835E+01 0.14652626579E+01 0.11736886459E+01
 0.42252933308E+01 0.93850052280E+01 0.13434366170E+02 0.13434366170E+02 0.93850052280E+01
 0.20089835374E+00 0.18162939487E+01 0.49304187907E+01 0.87849448097E+01 0.12568485628E+02
 0.15733016214E+02 0.18054636861E+02 0.19535586688E+02 0.20272794270E+02 0.20407894174E+02
 0.20101128172E+02 0.19504716457E+02 0.18751418895E+02 0.17934063849E+02 0.17091009798E+02
 0.16250295325E+02 0.15435629057E+02 0.14664995311E+02 0.13950156530E+02 0.13297334779E+02
 0.12708923840E+02 0.12185731593E+02 0.11729087941E+02 0.11342214644E+02 0.11030509983E+02
 0.10800761379E+02 0.10659635912E+02 0.10612000247E+02 0.10659635912E+02 0.10800761379E+02
 0.11030509983E+02 0.11342214644E+02 0.11729087941E+02 0.12185731593E+02 0.12708923840E+02
 0.13297334779E+02 0.13950156530E+02 0.14664995311E+02 0.15435629057E+02 0.16250295325E+02
 0.17091009798E+02 0.17934063849E+02 0.18751418895E+02 0.19504716457E+02 0.20101128172E+02
 0.20407894174E+02 0.20272794270E+02 0.19535586688E+02 0.18054636861E+02 0.15733016214E+02
 0.12568485628E+02 0.87849448097E+01 0.49304187907E+01 0.18162939487E+01 0.20089835374E+00
 0.24575176014E+00 0.11659789409E+01 0.16850103505E+01 0.11659789409E+01 0.24575176014E+00
 0.28726472887E+01 0.59286908058E+01 0.94322223873E+01 0.12856385820E+02 0.15790122407E+02
 0.18028353642E+02 0.19535586688E+02 0.20365609251E+02 0.20625142487E+02 0.20449127901E+02
 0.19974031645E+02 0.19323686943E+02 0.18593108881E+02 0.17823704637E+02 0.17042368314E+02
 0.16272365183E+02 0.15532012650E+02 0.14834004688E+02 0.14185768519E+02 0.13590868175E+02
 0.13051091281E+02 0.12568608996E+02 0.12147563757E+02 0.11794623412E+02 0.11518377255E+02
 0.11327817339E+02 0.11230418024E+02 0.11230418024E+02 0.11327817339E+02 0.11518377255E+02
 0.11794623412E+02 0.12147563757E+02 0.12568608996E+02 0.13051091281E+02 0.13590868175E+02
 0.14185768519E+02 0.14834004688E+02 0.15532012650E+02 0.16272365183E+02 0.17042368314E+02
 0.17823704637E+02 0.18593108881E+02 0.19323686943E+02 0.19974031645E+02 0.20449127901E+02
 0.20625142487E+02 0.20365609251E+02 0.19535586688E+02 0.18028353642E+02 0.15790122407E+02
 0.12856385820E+02 0.94322223873E+01 0.59286908058E+01 0.28726472887E+01 0.69602987679E+00
 -.49443602730E+00 -.94131973181E+00 -.94131973181E+00 -.49443602730E+00 0.69602987679E+00
 0.73279743623E+01 0.10325185991E+02 0.13280381071E+02 0.15881340008E+02 0.17943798504E+02
 0.19402924172E+02 0.20272794270E+02 0.20625142487E+02 0.20566655926E+02 0.20213838705E+02
 0.19677781808E+02 0.19049293475E+02 0.18370886771E+02 0.17667874018E+02 0.16962416480E+02
 0.16272365183E+02 0.15610545329E+02 0.14984904705E+02 0.14399662474E+02 0.13857231124E+02
 0.13360385439E+02 0.12914029210E+02 0.12526011376E+02 0.12206736442E+02 0.11967692562E+02
 0.11819346568E+02 0.11769021436E+02 0.11819346568E+02 0.11967692562E+02 0.12206736442E+02
 0.12526011376E+02 0.12914029210E+02 0.13360385439E+02 0.13857231124E+02 0.14399662474E+02
 0.14984904705E+02 0.15610545329E+02 0.16272365183E+02 0.16962416480E+02 0.17667874018E+02
 0.18370886771E+02 0.19049293475E+02 0.19677781808E+02 0.20213838705E+02 0.20566655926E+02
 0.20625142487E+02 0.20272794270E+02 0.19402924172E+02 0.17943798504E+02 0.15881340008E+02
 0.13280381071E+02 0.10325185991E+02 0.73279743623E+01 0.46584742361E+01 0.26262983317E+01
 0.13929324243E+01 0.98533011898E+00 0.13929324243E+01 0.26262983317E+01 0.46584742361E+01
 0.11339309730E+02 0.13760037342E+02 0.15964705818E+02 0.17785242933E+02 0.19134955887E+02
 0.19995865716E+02 0.20407894174E+02 0.20449127901E+02 0.20213838705E+02 0.19797659874E+02
 0.19282628132E+02 0.18709159748E+02 0.18100638206E+02 0.17477602929E+02 0.16856756278E+02
 0.16250295325E+02 0.15665955658E+02 0.15107974350E+02 0.14578864170E+02 0.14081572154E+02
 0.13621401465E+02 0.13207090538E+02 0.12850675117E+02 0.12566127105E+02 0.12367132389E+02
 0.12264608379E+02 0.12264608379E+02 0.12367132389E+02 0.12566127105E+02 0.12850675117E+02
 0.13207090538E+02 0.13621401465E+02 0.14081572154E+02 0.14578864170E+02 0.15107974350E+02
 0.15665955658E+02 0.16250295325E+02 0.16856756278E+02 0.17477602929E+02 0.18100638206E+02
 0.18709159748E+02 0.19282628132E+02 0.19797659874E+02 0.20213838705E+02 0.20449127901E+02
 0.20407894174E+02 0.19995865716E+02 0.19134955887E+02 0.17785242933E+02 0.15964705818E+02
 0.13760037342E+02 0.11339309730E+02 0.89490555582E+01 0.68688346527E+01 0.53452244938E+01
 0.45447390009E+01 0.45447390009E+01 0.53452244938E+01 0.68688346527E+01 0.89490555582E+01
 0.14199005888E+02 0.15988266615E+02 0.17530515656E+02 0.18727486571E+02 0.19539533560E+02
 0.19980255615E+02 0.20101128172E+02 0.19974031645E+02 0.19677781808E+02 0.19282628132E+02
 0.18823623296E+02 0.18321913510E+02 0.17796014306E+02 0.17260931920E+02 0.16727575611E+02
 0.16202770379E+02 0.15690098306E+02 0.15191551923E+02 0.14709675213E+02 0.14249625447E+02
 0.13820522563E+02 0.13435609161E+02 0.13109669518E+02 0.12860536547E+02 0.12703542907E+02
 0.12649867489E+02 0.12703542907E+02 0.12860536547E+02 0.13109669518E+02 0.13435609161E+02
 0.13820522563E+02 0.14249625447E+02 0.14709675213E+02 0.15191551923E+02 0.15690098306E+02
 0.16202770379E+02 0.16727575611E+02 0.17260931920E+02 0.17796014306E+02 0.18321913510E+02
 0.18823623296E+02 0.19282628132E+02 0.19677781808E+02 0.19974031645E+02 0.20101128172E+02
 0.19980255615E+02 0.19539533560E+02 0.18727486571E+02 0.17530515656E+02 0.15988266615E+02
 0.14199005888E+02 0.12316655649E+02 0.10539088478E+02 0.90785383311E+01 0.81198140016E+01
 0.77860989112E+01 0.81198140016E+01 0.90785383311E+01 0.10539088478E+02 0.12316655649E+02
 0.15900182319E+02 0.17155942992E+02 0.18176909278E+02 0.18912112986E+02 0.19355504031E+02
 0.19536039123E+02 0.19504716457E+02 0.19323686943E+02 0.19049293475E+02 0.18709159748E+02
 0.18321913510E+02 0.17903741145E+02 0.17467543762E+02 0.17022419953E+02 0.16573686602E+02
 0.16123646330E+02 0.15673143835E+02 0.15223682447E+02 0.14779608078E+02 0.14349731928E+02
 0.13945454618E+02 0.13584129756E+02 0.13286212768E+02 0.13072880338E+02 0.12961377034E+02
 0.12961377034E+02 0.13072880338E+02 0.13286212768E+02 0.13584129756E+02 0.13945454618E+02
 0.14349731928E+02 0.14779608078E+02 0.15223682447E+02 0.15673143835E+02 0.16123646330E+02
 0.16573686602E+02 0.17022419953E+02 0.17467543762E+02 0.17903741145E+02 0.18321913510E+02
 0.18709159748E+02 0.19049293475E+02 0.19323686943E+02 0.19504716457E+02 0.19536039123E+02
 0.19355504031E+02 0.18912112986E+02 0.18176909278E+02 0.17155942992E+02 0.15900182319E+02
 0.14507237318E+02 0.13112572353E+02 0.11872675144E+02 0.10941250799E+02 0.10441469631E+02
 0.10441469631E+02 0.10941250799E+02 0.11872675144E+02 0.13112572353E+02 0.14507237318E+02
 0.16641908606E+02 0.17482885789E+02 0.18126199444E+02 0.18553139531E+02 0.18775137805E+02
 0.18825711610E+02 0.18751418895E+02 0.18593108881E+02 0.18370886771E+02 0.18100638206E+02
 0.17796014306E+02 0.17467543762E+02 0.17122150563E+02 0.16763193291E+02 0.16391187524E+02
 0.16005280137E+02 0.15605327802E+02 0.15194173015E+02 0.14778115589E+02 0.14367190191E+02
 0.13978411606E+02 0.13635741489E+02 0.13365883391E+02 0.13192741605E+02 0.13133033964E+02
 0.13192741605E+02 0.13365883391E+02 0.13635741489E+02 0.13978411606E+02 0.14367190191E+02
 0.14778115589E+02 0.15194173015E+02 0.15605327802E+02 0.16005280137E+02 0.16391187524E+02
 0.16763193291E+02 0.17122150563E+02 0.17467543762E+02 0.17796014306E+02 0.18100638206E+02
 0.18370886771E+02 0.18593108881E+02 0.18751418895E+02 0.18825711610E+02 0.18775137805E+02
 0.18553139531E+02 0.18126199444E+02 0.17482885789E+02 0.16641908606E+02 0.15657218501E+02
 0.14616216802E+02 0.13629826422E+02 0.12815815902E+02 0.12278847991E+02 0.12091238911E+02
 0.12278847991E+02 0.12815815902E+02 0.13629826422E+02 0.14616216802E+02 0.15657218501E+02
 0.16651098664E+02 0.17199314112E+02 0.17597955754E+02 0.17846615071E+02 0.17965773204E+02
 0.17985920492E+02 0.17934063849E+02 0.17823704637E+02 0.17667874018E+02 0.17477602929E+02
 0.17260931920E+02 0.17022419953E+02 0.16763193291E+02 0.16481636353E+02 0.16174791246E+02
 0.15840378163E+02 0.15479118805E+02 0.15093543316E+02 0.14690558029E+02 0.14286471417E+02
 0.13907306040E+02 0.13584056956E+02 0.13347605121E+02 0.13222526700E+02 0.13222526700E+02
 0.13347605121E+02 0.13584056956E+02 0.13907306040E+02 0.14286471417E+02 0.14690558029E+02
 0.15093543316E+02 0.15479118805E+02 0.15840378163E+02 0.16174791246E+02 0.16481636353E+02
 0.16763193291E+02 0.17022419953E+02 0.17260931920E+02 0.17477602929E+02 0.17667874018E+02
 0.17823704637E+02 0.17934063849E+02 0.17985920492E+02 0.17965773204E+02 0.17846615071E+02
 0.17597955754E+02 0.17199314112E+02 0.16651098664E+02 0.15978316480E+02 0.15231794763E+02
 0.14484007290E+02 0.13819344753E+02 0.13320287716E+02 0.13052555909E+02 0.13052555909E+02
 0.13320287716E+02 0.13819344753E+02 0.14484007290E+02 0.15231794763E+02 0.15978316480E+02
 0.16154277907E+02 0.16519515490E+02 0.16783771356E+02 0.16957299802E+02 0.17058713877E+02
 0.17099866410E+02 0.17091009798E+02 0.17042368314E+02 0.16962416480E+02 0.16856756278E+02
 0.16727575611E+02 0.16573686602E+02 0.16391187524E+02 0.16174791246E+02 0.15919766900E+02
 0.15624257441E+02 0.15286393556E+02 0.14909123472E+02 0.14506211865E+02 0.14103543018E+02
 0.13735247392E+02 0.13437939445E+02 0.13244414276E+02 0.13177215691E+02 0.13244414276E+02
 0.13437939445E+02 0.13735247392E+02 0.14103543018E+02 0.14506211865E+02 0.14909123472E+02
 0.15286393556E+02 0.15624257441E+02 0.15919766900E+02 0.16174791246E+02 0.16391187524E+02
 0.16573686602E+02 0.16727575611E+02 0.16856756278E+02 0.16962416480E+02 0.17042368314E+02
 0.17091009798E+02 0.17099866410E+02 0.17058713877E+02 0.16957299802E+02 0.16783771356E+02
 0.16519515490E+02 0.16154277907E+02 0.15695202730E+02 0.15168411401E+02 0.14617650680E+02
 0.14099098511E+02 0.13672806887E+02 0.13392261489E+02 0.13294357182E+02 0.13392261489E+02
 0.13672806887E+02 0.14099098511E+02 0.14617650680E+02 0.15168411401E+02 0.15695202730E+02
 0.15351269930E+02 0.15624257441E+02 0.15840378163E+02 0.16005280137E+02 0.16123646330E+02
 0.16202770379E+02 0.16250295325E+02 0.16272365183E+02 0.16272365183E+02 0.16250295325E+02
 0.16202770379E+02 0.16123646330E+02 0.16005280137E+02 0.15840378163E+02 0.15624257441E+02
 0.15351269930E+02 0.15019211457E+02 0.14637518013E+02 0.14229789643E+02 0.13830767667E+02
 0.13481292368E+02 0.13221207724E+02 0.13082384338E+02 0.13082384338E+02 0.13221207724E+02
 0.13481292368E+02 0.13830767667E+02 0.14229789643E+02 0.14637518013E+02 0.15019211457E+02
 0.15351269930E+02 0.15624257441E+02 0.15840378163E+02 0.16005280137E+02 0.16123646330E+02
 0.16202770379E+02 0.16250295325E+02 0.16272365183E+02 0.16272365183E+02 0.16250295325E+02
 0.16202770379E+02 0.16123646330E+02 0.16005280137E+02 0.15840378163E+02 0.15624257441E+02
 0.15351269930E+02 0.15019211457E+02 0.14637518013E+02 0.14229789643E+02 0.13830767667E+02
 0.13481292368E+02 0.13221207724E+02 0.13082384338E+02 0.13082384338E+02 0.13221207724E+02
 0.13481292368E+02 0.13830767667E+02 0.14229789643E+02 0.14637518013E+02 0.15019211457E+02
 0.14406570880E+02 0.14651573993E+02 0.14862531417E+02 0.15041483503E+02 0.15193232354E+02
 0.15323218926E+02 0.15435629057E+02 0.15532012650E+02 0.15610545329E+02 0.15665955658E+02
 0.15690098306E+02 0.15673143835E+02 0.15605327802E+02 0.15479118805E+02 0.15286393556E+02
 0.15019211457E+02 0.14681156509E+02 0.14291274752E+02 0.13882316561E+02 0.13496524194E+02
 0.13179086093E+02 0.12970041395E+02 0.12897069864E+02 0.12970041395E+02 0.13179086093E+02
 0.13496524194E+02 0.13882316561E+02 0.14291274752E+02 0.14681156509E+02 0.15019211457E+02
 0.15286393556E+02 0.15479118805E+02 0.15605327802E+02 0.15673143835E+02 0.15690098306E+02
 0.15665955658E+02 0.15610545329E+02 0.15532012650E+02 0.15435629057E+02 0.15323218926E+02
 0.15193232354E+02 0.15041483503E+02 0.14862531417E+02 0.14651573993E+02 0.14406570880E+02
 0.14130166706E+02 0.13827089834E+02 0.13508336385E+02 0.13192635296E+02 0.12905657926E+02
 0.12674918666E+02 0.12525101136E+02 0.12473156204E+02 0.12525101136E+02 0.12674918666E+02
 0.12905657926E+02 0.13192635296E+02 0.13508336385E+02 0.13827089834E+02 0.14130166706E+02
 0.13425456811E+02 0.13666652240E+02 0.13890056148E+02 0.14098535695E+02 0.14295800649E+02
 0.14484548755E+02 0.14664995311E+02 0.14834004688E+02 0.14984904705E+02 0.15107974350E+02
 0.15191551923E+02 0.15223682447E+02 0.15194173015E+02 0.15093543316E+02 0.14909123472E+02
 0.14637518013E+02 0.14291274752E+02 0.13898442983E+02 0.13499631931E+02 0.13142257056E+02
 0.12872599631E+02 0.12727562930E+02 0.12727562930E+02 0.12872599631E+02 0.13142257056E+02
 0.13499631931E+02 0.13898442983E+02 0.14291274752E+02 0.14637518013E+02 0.14909123472E+02
 0.15093543316E+02 0.15194173015E+02 0.15223682447E+02 0.15191551923E+02 0.15107974350E+02
 0.14984904705E+02 0.14834004688E+02 0.14664995311E+02 0.14484548755E+02 0.14295800649E+02
 0.14098535695E+02 0.13890056148E+02 0.13666652240E+02 0.13425456811E+02 0.13166324558E+02
 0.12893296444E+02 0.12615249481E+02 0.12345504102E+02 0.12097125575E+02 0.11889588347E+02
 0.11739458423E+02 0.11660571923E+02 0.11660571923E+02 0.11739458423E+02 0.11889588347E+02
 0.12097125575E+02 0.12345504102E+02 0.12615249481E+02 0.12893296444E+02 0.13166324558E+02
 0.12451431395E+02 0.12704610133E+02 0.12954478195E+02 0.13203497351E+02 0.13453373100E+02
 0.13703539752E+02 0.13950156530E+02 0.14185768519E+02 0.14399662474E+02 0.14578864170E+02
 0.14709675213E+02 0.14779608078E+02 0.14778115589E+02 0.14690558029E+02 0.14506211865E+02
 0.14229789643E+02 0.13882316561E+02 0.13499631931E+02 0.13127913729E+02 0.12816487037E+02
 0.12609274153E+02 0.12536594359E+02 0.12609274153E+02 0.12816487037E+02 0.13127913729E+02
 0.13499631931E+02 0.13882316561E+02 0.14229789643E+02 0.14506211865E+02 0.14690558029E+02
 0.14778115589E+02 0.14779608078E+02 0.14709675213E+02 0.14578864170E+02 0.14399662474E+02
 0.14185768519E+02 0.13950156530E+02 0.13703539752E+02 0.13453373100E+02 0.13203497351E+02
 0.12954478195E+02 0.12704610133E+02 0.12451431395E+02 0.12193458037E+02 0.11931746946E+02
 0.11670895530E+02 0.11419206309E+02 0.11187959705E+02 0.10989972086E+02 0.10837780889E+02
 0.10741842365E+02 0.10709060028E+02 0.10741842365E+02 0.10837780889E+02 0.10989972086E+02
 0.11187959705E+02 0.11419206309E+02 0.11670895530E+02 0.11931746946E+02 0.12193458037E+02
 0.11517346595E+02 0.11794595373E+02 0.12080454695E+02 0.12376083256E+02 0.12680660621E+02
 0.12990262007E+02 0.13297334779E+02 0.13590868175E+02 0.13857231124E+02 0.14081572154E+02
 0.14249625447E+02 0.14349731928E+02 0.14367190191E+02 0.14286471417E+02 0.14103543018E+02
 0.13830767667E+02 0.13496524194E+02 0.13142257056E+02 0.12816487037E+02 0.12566891921E+02
 0.12431525889E+02 0.12431525889E+02 0.12566891921E+02 0.12816487037E+02 0.13142257056E+02
 0.13496524194E+02 0.13830767667E+02 0.14103543018E+02 0.14286471417E+02 0.14367190191E+02
 0.14349731928E+02 0.14249625447E+02 0.14081572154E+02 0.13857231124E+02 0.13590868175E+02
 0.13297334779E+02 0.12990262007E+02 0.12680660621E+02 0.12376083256E+02 0.12080454695E+02
 0.11794595373E+02 0.11517346595E+02 0.11247071593E+02 0.10983195696E+02 0.10727412716E+02
 0.10484256650E+02 0.10260909322E+02 0.10066327866E+02 0.99099487397E+01 0.98002936513E+01
 0.97437587007E+01 0.97437587007E+01 0.98002936513E+01 0.99099487397E+01 0.10066327866E+02
 0.10260909322E+02 0.10484256650E+02 0.10727412716E+02 0.10983195696E+02 0.11247071593E+02
 0.10648654507E+02 0.10957748503E+02 0.11284474991E+02 0.11628182523E+02 0.11985412741E+02
 0.12349183425E+02 0.12708923840E+02 0.13051091281E+02 0.13360385439E+02 0.13621401465E+02
 0.13820522563E+02 0.13945454618E+02 0.13978411606E+02 0.13907306040E+02 0.13735247392E+02
 0.13481292368E+02 0.13179086093E+02 0.12872599631E+02 0.12609274153E+02 0.12431525889E+02
 0.12368774571E+02 0.12431525889E+02 0.12609274153E+02 0.12872599631E+02 0.13179086093E+02
 0.13481292368E+02 0.13735247392E+02 0.13907306040E+02 0.13978411606E+02 0.13945454618E+02
 0.13820522563E+02 0.13621401465E+02 0.13360385439E+02 0.13051091281E+02 0.12708923840E+02
 0.12349183425E+02 0.11985412741E+02 0.11628182523E+02 0.11284474991E+02 0.10957748503E+02
 0.10648654507E+02 0.10356245219E+02 0.10079391334E+02 0.98180669364E+01 0.95741892321E+01
 0.93518287013E+01 0.91567922593E+01 0.89957569933E+01 0.88752260510E+01 0.88005635957E+01
 0.87752716404E+01 0.88005635957E+01 0.88752260510E+01 0.89957569933E+01 0.91567922593E+01
 0.93518287013E+01 0.95741892321E+01 0.98180669364E+01 0.10079391334E+02 0.10356245219E+02
 0.98620714740E+01 0.10206632049E+02 0.10575076139E+02 0.10964816862E+02 0.11370005269E+02
 0.11781205688E+02 0.12185731593E+02 0.12568608996E+02 0.12914029210E+02 0.13207090538E+02
 0.13435609161E+02 0.13584129756E+02 0.13635741489E+02 0.13584056956E+02 0.13437939445E+02
 0.13221207724E+02 0.12970041395E+02 0.12727562930E+02 0.12536594359E+02 0.12431525889E+02
 0.12431525889E+02 0.12536594359E+02 0.12727562930E+02 0.12970041395E+02 0.13221207724E+02
 0.13437939445E+02 0.13584056956E+02 0.13635741489E+02 0.13584129756E+02 0.13435609161E+02
 0.13207090538E+02 0.12914029210E+02 0.12568608996E+02 0.12185731593E+02 0.11781205688E+02
 0.11370005269E+02 0.10964816862E+02 0.10575076139E+02 0.10206632049E+02 0.98620714740E+01
 0.95416064485E+01 0.92443004365E+01 0.89693287197E+01 0.87169647284E+01 0.84890720511E+01
 0.82890385090E+01 0.81212574831E+01 0.79903753080E+01 0.79005400935E+01 0.78548154123E+01
 0.78548154123E+01 0.79005400935E+01 0.79903753080E+01 0.81212574831E+01 0.82890385090E+01
 0.84890720511E+01 0.87169647284E+01 0.89693287197E+01 0.92443004365E+01 0.95416064485E+01
 0.91658740690E+01 0.95462122455E+01 0.99544280063E+01 0.10386189171E+02 0.10833758812E+02
 0.11286013186E+02 0.11729087941E+02 0.12147563757E+02 0.12526011376E+02 0.12850675117E+02
 0.13109669518E+02 0.13286212768E+02 0.13365883391E+02 0.13347605121E+02 0.13244414276E+02
 0.13082384338E+02 0.12897069864E+02 0.12727562930E+02 0.12609274153E+02 0.12566891921E+02
 0.12609274153E+02 0.12727562930E+02 0.12897069864E+02 0.13082384338E+02 0.13244414276E+02
 0.13347605121E+02 0.13365883391E+02 0.13286212768E+02 0.13109669518E+02 0.12850675117E+02
 0.12526011376E+02 0.12147563757E+02 0.11729087941E+02 0.11286013186E+02 0.10833758812E+02
 0.10386189171E+02 0.99544280063E+01 0.95462122455E+01 0.91658740690E+01 0.88149145727E+01
 0.84930032004E+01 0.81991411942E+01 0.79326974169E+01 0.76940780248E+01 0.74849168502E+01
 0.73078286815E+01 0.71658924170E+01 0.70620758650E+01 0.69987689020E+01 0.69774935019E+01
 0.69987689020E+01 0.70620758650E+01 0.71658924170E+01 0.73078286815E+01 0.74849168502E+01
 0.76940780248E+01 0.79326974169E+01 0.81991411942E+01 0.84930032004E+01 0.88149145727E+01
 0.85615912109E+01 0.89759845327E+01 0.94207408516E+01 0.98901809609E+01 0.10375301365E+02
 0.10864058054E+02 0.11342214644E+02 0.11794623412E+02 0.12206736442E+02 0.12566127105E+02
 0.12860536547E+02 0.13072880338E+02 0.13192741605E+02 0.13222526700E+02 0.13177215691E+02
 0.13082384338E+02 0.12970041395E+02 0.12872599631E+02 0.12816487037E+02 0.12816487037E+02
 0.12872599631E+02 0.12970041395E+02 0.13082384338E+02 0.13177215691E+02 0.13222526700E+02
 0.13192741605E+02 0.13072880338E+02 0.12860536547E+02 0.12566127105E+02 0.12206736442E+02
 0.11794623412E+02 0.11342214644E+02 0.10864058054E+02 0.10375301365E+02 0.98901809609E+01
 0.94207408516E+01 0.89759845327E+01 0.85615912109E+01 0.81802139428E+01 0.78322495156E+01
 0.75168644911E+01 0.72330113663E+01 0.69801927685E+01 0.67588272047E+01 0.65702069752E+01
 0.64161663173E+01 0.62986447409E+01 0.62193133289E+01 0.61793494496E+01 0.61793494496E+01
 0.62193133289E+01 0.62986447409E+01 0.64161663173E+01 0.65702069752E+01 0.67588272047E+01
 0.69801927685E+01 0.72330113663E+01 0.75168644911E+01 0.78322495156E+01 0.81802139428E+01
 0.80464884462E+01 0.84925663503E+01 0.89707864326E+01 0.94746010583E+01 0.99943380802E+01
 0.10517660502E+02 0.11030509983E+02 0.11518377255E+02 0.11967692562E+02 0.12367132389E+02
 0.12703542907E+02 0.12961377034E+02 0.13133033964E+02 0.13222526700E+02 0.13244414276E+02
 0.13221207724E+02 0.13179086093E+02 0.13142257056E+02 0.13127913729E+02 0.13142257056E+02
 0.13179086093E+02 0.13221207724E+02 0.13244414276E+02 0.13222526700E+02 0.13133033964E+02
 0.12961377034E+02 0.12703542907E+02 0.12367132389E+02 0.11967692562E+02 0.11518377255E+02
 0.11030509983E+02 0.10517660502E+02 0.99943380802E+01 0.94746010583E+01 0.89707864326E+01
 0.84925663503E+01 0.80464884462E+01 0.76360594037E+01 0.72623107633E+01 0.69246771250E+01
 0.66219519841E+01 0.63530869431E+01 0.61176688247E+01 0.59160258568E+01 0.57490372328E+01
 0.56178019398E+01 0.55233310757E+01 0.54663661807E+01 0.54473328091E+01 0.54663661807E+01
 0.55233310757E+01 0.56178019398E+01 0.57490372328E+01 0.59160258568E+01 0.61176688247E+01
 0.63530869431E+01 0.66219519841E+01 0.69246771250E+01 0.72623107633E+01 0.76360594037E+01
 0.76161305331E+01 0.80920611607E+01 0.86018920990E+01 0.91386429448E+01 0.96924298256E+01
 0.10251015378E+02 0.10800761379E+02 0.11327817339E+02 0.11819346568E+02 0.12264608379E+02
 0.12649867489E+02 0.12961377034E+02 0.13192741605E+02 0.13347605121E+02 0.13437939445E+02
 0.13481292368E+02 0.13496524194E+02 0.13499631931E+02 0.13499631931E+02 0.13496524194E+02
 0.13481292368E+02 0.13437939445E+02 0.13347605121E+02 0.13192741605E+02 0.12961377034E+02
 0.12649867489E+02 0.12264608379E+02 0.11819346568E+02 0.11327817339E+02 0.10800761379E+02
 0.10251015378E+02 0.96924298256E+01 0.91386429448E+01 0.86018920990E+01 0.80920611607E+01
 0.76161305331E+01 0.71781163654E+01 0.67794767025E+01 0.64198557993E+01 0.60979648552E+01
 0.58123804154E+01 0.55620876240E+01 0.53466915907E+01 0.51663340730E+01 0.50214417926E+01
 0.49124619711E+01 0.48397013480E+01 0.48033014976E+01 0.48033014976E+01 0.48397013480E+01
 0.49124619711E+01 0.50214417926E+01 0.51663340730E+01 0.53466915907E+01 0.55620876240E+01
 0.58123804154E+01 0.60979648552E+01 0.64198557993E+01 0.67794767025E+01 0.71781163654E+01
 0.72664167594E+01 0.77716723155E+01 0.83130062150E+01 0.88833058439E+01 0.94727246794E+01
 0.10069255600E+02 0.10659635912E+02 0.11230418024E+02 0.11769021436E+02 0.12264608379E+02
 0.12703542907E+02 0.13072880338E+02 0.13365883391E+02 0.13584056956E+02 0.13735247392E+02
 0.13830767667E+02 0.13882316561E+02 0.13898442983E+02 0.13882316561E+02 0.13830767667E+02
 0.13735247392E+02 0.13584056956E+02 0.13365883391E+02 0.13072880338E+02 0.12703542907E+02
 0.12264608379E+02 0.11769021436E+02 0.11230418024E+02 0.10659635912E+02 0.10069255600E+02
 0.94727246794E+01 0.88833058439E+01 0.83130062150E+01 0.77716723155E+01 0.72664167594E+01
 0.68014776882E+01 0.63785157789E+01 0.59972534169E+01 0.56562851779E+01 0.53538601642E+01
 0.50884644425E+01 0.48591088227E+01 0.46653291549E+01 0.45069969900E+01 0.43840831062E+01
 0.42964985371E+01 0.42440692700E+01 0.42266177919E+01 0.42440692700E+01 0.42964985371E+01
 0.43840831062E+01 0.45069969900E+01 0.46653291549E+01 0.48591088227E+01 0.50884644425E+01
 0.53538601642E+01 0.56562851779E+01 0.59972534169E+01 0.63785157789E+01 0.68014776882E+01
 0.69947312698E+01 0.75303359373E+01 0.81047588573E+01 0.87108783623E+01 0.93389198295E+01
 0.99770090787E+01 0.10612000247E+02 0.11230418024E+02 0.11819346568E+02 0.12367132389E+02