   2   2   1   0
  0.2045330E+02  0.3867552E-09  0.3867552E-09  0.3867552E-09  0.5000000E-15
   1.0000000000000000E-004
  CAR 
 Rubyvaspy :: si                         
     18.09197289     -7.30513355  301      5.57331584      1.00000000
     -7.305  0.0000E+00  0.0000E+00  0.0000E+00  0.0000E+00
     -7.220  0.0000E+00  0.0000E+00  0.0000E+00  0.0000E+00
     -7.136  0.0000E+00  0.0000E+00  0.0000E+00  0.0000E+00
     -7.051  0.0000E+00  0.0000E+00  0.0000E+00  0.0000E+00
     -6.967  0.0000E+00  0.0000E+00  0.0000E+00  0.0000E+00
     -6.882  0.0000E+00  0.0000E+00  0.0000E+00  0.0000E+00
     -6.797  0.0000E+00  0.0000E+00  0.0000E+00  0.0000E+00
     -6.713  0.0000E+00  0.0000E+00  0.0000E+00  0.0000E+00
     -6.628  0.0000E+00  0.0000E+00  0.0000E+00  0.0000E+00
     -6.543  0.0000E+00  0.0000E+00  0.0000E+00  0.0000E+00
     -6.459  0.0000E+00  0.0000E+00  0.0000E+00  0.0000E+00
     -6.374  0.0000E+00  0.0000E+00  0.0000E+00  0.0000E+00
     -6.289  0.0000E+00  0.0000E+00  0.0000E+00  0.0000E+00
     -6.205  0.0000E+00  0.0000E+00  0.0000E+00  0.0000E+00
     -6.120  0.3277E-01  0.3278E-01  0.1325E-02  0.1326E-02
     -6.035  0.7072E-01  0.7074E-01  0.5622E-02  0.5624E-02
     -5.951  0.8285E-01  0.8285E-01  0.1209E-01  0.1209E-01
     -5.866  0.9594E-01  0.9595E-01  0.1964E-01  0.1964E-01
     -5.781  0.1152E+00  0.1152E+00  0.2855E-01  0.2856E-01
     -5.697  0.1263E+00  0.1264E+00  0.3884E-01  0.3885E-01
     -5.612  0.1342E+00  0.1342E+00  0.4988E-01  0.4988E-01
     -5.527  0.1457E+00  0.1457E+00  0.6171E-01  0.6171E-01
     -5.443  0.1585E+00  0.1585E+00  0.7458E-01  0.7459E-01
     -5.358  0.1715E+00  0.1716E+00  0.8855E-01  0.8855E-01
     -5.273  0.1787E+00  0.1787E+00  0.1033E+00  0.1033E+00
     -5.189  0.1870E+00  0.1870E+00  0.1188E+00  0.1188E+00
     -5.104  0.1965E+00  0.1965E+00  0.1350E+00  0.1350E+00
     -5.019  0.2062E+00  0.2062E+00  0.1521E+00  0.1521E+00
     -4.935  0.2173E+00  0.2173E+00  0.1700E+00  0.1700E+00
     -4.850  0.2299E+00  0.2300E+00  0.1889E+00  0.1889E+00
     -4.765  0.2391E+00  0.2391E+00  0.2088E+00  0.2088E+00
     -4.681  0.2479E+00  0.2479E+00  0.2294E+00  0.2294E+00
     -4.596  0.2579E+00  0.2579E+00  0.2508E+00  0.2508E+00
     -4.511  0.2698E+00  0.2698E+00  0.2731E+00  0.2731E+00
     -4.427  0.2835E+00  0.2835E+00  0.2965E+00  0.2965E+00
     -4.342  0.2988E+00  0.2988E+00  0.3211E+00  0.3211E+00
     -4.257  0.3163E+00  0.3163E+00  0.3472E+00  0.3472E+00
     -4.173  0.3349E+00  0.3350E+00  0.3747E+00  0.3747E+00
     -4.088  0.3614E+00  0.3614E+00  0.4041E+00  0.4041E+00
     -4.004  0.3965E+00  0.3965E+00  0.4361E+00  0.4361E+00
     -3.919  0.4784E+00  0.4784E+00  0.4730E+00  0.4730E+00
     -3.834  0.4421E+00  0.4421E+00  0.5117E+00  0.5117E+00
     -3.750  0.4322E+00  0.4322E+00  0.5485E+00  0.5485E+00
     -3.665  0.4294E+00  0.4294E+00  0.5857E+00  0.5857E+00
     -3.580  0.4081E+00  0.4081E+00  0.6214E+00  0.6214E+00
     -3.496  0.3910E+00  0.3910E+00  0.6552E+00  0.6552E+00
     -3.411  0.3726E+00  0.3726E+00  0.6875E+00  0.6876E+00
     -3.326  0.3634E+00  0.3634E+00  0.7185E+00  0.7185E+00
     -3.242  0.3593E+00  0.3593E+00  0.7492E+00  0.7492E+00
     -3.157  0.3383E+00  0.3383E+00  0.7787E+00  0.7787E+00
     -3.072  0.3188E+00  0.3188E+00  0.8064E+00  0.8064E+00
     -2.988  0.2992E+00  0.2992E+00  0.8326E+00  0.8326E+00
     -2.903  0.2813E+00  0.2813E+00  0.8571E+00  0.8571E+00
     -2.818  0.2679E+00  0.2679E+00  0.8804E+00  0.8804E+00
     -2.734  0.2537E+00  0.2537E+00  0.9024E+00  0.9024E+00
     -2.649  0.2408E+00  0.2408E+00  0.9233E+00  0.9234E+00
     -2.564  0.4936E+00  0.4937E+00  0.9508E+00  0.9508E+00
     -2.480  0.2183E+00  0.2182E+00  0.9825E+00  0.9825E+00
     -2.395  0.1225E+00  0.1225E+00  0.9966E+00  0.9966E+00
     -2.310  0.0000E+00  0.0000E+00  0.1000E+01  0.1000E+01
     -2.226  0.0000E+00  0.0000E+00  0.1000E+01  0.1000E+01
     -2.141  0.0000E+00  0.0000E+00  0.1000E+01  0.1000E+01
     -2.056  0.0000E+00  0.0000E+00  0.1000E+01  0.1000E+01
     -1.972  0.0000E+00  0.0000E+00  0.1000E+01  0.1000E+01
     -1.887  0.0000E+00  0.0000E+00  0.1000E+01  0.1000E+01
     -1.802  0.0000E+00  0.0000E+00  0.1000E+01  0.1000E+01
     -1.718  0.0000E+00  0.0000E+00  0.1000E+01  0.1000E+01
     -1.633  0.5259E+00  0.5263E+00  0.1007E+01  0.1007E+01
     -1.548  0.2727E+00  0.2727E+00  0.1047E+01  0.1047E+01
     -1.464  0.2608E+00  0.2608E+00  0.1069E+01  0.1069E+01
     -1.379  0.2685E+00  0.2685E+00  0.1091E+01  0.1091E+01
     -1.294  0.2938E+00  0.2938E+00  0.1115E+01  0.1115E+01
     -1.210  0.3278E+00  0.3278E+00  0.1141E+01  0.1141E+01
     -1.125  0.5802E+00  0.5803E+00  0.1179E+01  0.1179E+01
     -1.041  0.8129E+00  0.8129E+00  0.1249E+01  0.1249E+01
     -0.956  0.6566E+00  0.6566E+00  0.1311E+01  0.1311E+01
     -0.871  0.5149E+00  0.5149E+00  0.1360E+01  0.1360E+01
     -0.787  0.4378E+00  0.4378E+00  0.1400E+01  0.1400E+01
     -0.702  0.3955E+00  0.3955E+00  0.1435E+01  0.1435E+01
     -0.617  0.3579E+00  0.3579E+00  0.1467E+01  0.1467E+01
     -0.533  0.3270E+00  0.3270E+00  0.1496E+01  0.1496E+01
     -0.448  0.3012E+00  0.3012E+00  0.1523E+01  0.1523E+01
     -0.363  0.2831E+00  0.2831E+00  0.1547E+01  0.1547E+01
     -0.279  0.2670E+00  0.2670E+00  0.1571E+01  0.1571E+01
     -0.194  0.2522E+00  0.2522E+00  0.1593E+01  0.1593E+01
     -0.109  0.2386E+00  0.2386E+00  0.1613E+01  0.1613E+01
     -0.025  0.2255E+00  0.2255E+00  0.1633E+01  0.1633E+01
      0.060  0.2134E+00  0.2134E+00  0.1652E+01  0.1652E+01
      0.145  0.2026E+00  0.2026E+00  0.1669E+01  0.1669E+01
      0.229  0.1935E+00  0.1935E+00  0.1686E+01  0.1686E+01
      0.314  0.1846E+00  0.1846E+00  0.1702E+01  0.1702E+01
      0.399  0.1757E+00  0.1757E+00  0.1717E+01  0.1717E+01
      0.483  0.1670E+00  0.1670E+00  0.1732E+01  0.1732E+01
      0.568  0.1589E+00  0.1589E+00  0.1746E+01  0.1746E+01
      0.653  0.1505E+00  0.1505E+00  0.1759E+01  0.1759E+01
      0.737  0.1441E+00  0.1441E+00  0.1771E+01  0.1771E+01
      0.822  0.1382E+00  0.1382E+00  0.1783E+01  0.1783E+01
      0.907  0.1324E+00  0.1324E+00  0.1795E+01  0.1795E+01
      0.991  0.1268E+00  0.1268E+00  0.1806E+01  0.1806E+01
      1.076  0.1213E+00  0.1213E+00  0.1816E+01  0.1816E+01
      1.161  0.1158E+00  0.1158E+00  0.1826E+01  0.1826E+01
      1.245  0.1103E+00  0.1103E+00  0.1836E+01  0.1836E+01
      1.330  0.1048E+00  0.1048E+00  0.1845E+01  0.1845E+01
      1.415  0.2173E+00  0.2174E+00  0.1856E+01  0.1856E+01
      1.499  0.3917E+00  0.3917E+00  0.1887E+01  0.1887E+01
      1.584  0.5361E+00  0.5362E+00  0.1926E+01  0.1926E+01
      1.669  0.6300E+00  0.6300E+00  0.1983E+01  0.1983E+01
      1.753  0.6345E+00  0.6345E+00  0.2037E+01  0.2037E+01
      1.838  0.5903E+00  0.5903E+00  0.2089E+01  0.2089E+01
      1.922  0.5380E+00  0.5380E+00  0.2136E+01  0.2136E+01
      2.007  0.5134E+00  0.5134E+00  0.2180E+01  0.2180E+01
      2.092  0.5011E+00  0.5011E+00  0.2223E+01  0.2223E+01
      2.176  0.4884E+00  0.4884E+00  0.2265E+01  0.2265E+01
      2.261  0.5327E+00  0.5327E+00  0.2310E+01  0.2310E+01
      2.346  0.5476E+00  0.5476E+00  0.2356E+01  0.2356E+01
      2.430  0.5686E+00  0.5686E+00  0.2403E+01  0.2403E+01
      2.515  0.5856E+00  0.5856E+00  0.2452E+01  0.2452E+01
      2.600  0.6097E+00  0.6097E+00  0.2502E+01  0.2502E+01
      2.684  0.6369E+00  0.6369E+00  0.2557E+01  0.2557E+01
      2.769  0.7317E+00  0.7317E+00  0.2614E+01  0.2614E+01
      2.854  0.8126E+00  0.8127E+00  0.2679E+01  0.2679E+01
      2.938  0.7877E+00  0.7877E+00  0.2748E+01  0.2748E+01
      3.023  0.7556E+00  0.7556E+00  0.2813E+01  0.2813E+01
      3.108  0.7614E+00  0.7614E+00  0.2879E+01  0.2879E+01
      3.192  0.7491E+00  0.7491E+00  0.2943E+01  0.2943E+01
      3.277  0.7331E+00  0.7331E+00  0.3006E+01  0.3006E+01
      3.362  0.7136E+00  0.7135E+00  0.3067E+01  0.3067E+01
      3.446  0.6931E+00  0.6931E+00  0.3127E+01  0.3127E+01
      3.531  0.7360E+00  0.7360E+00  0.3186E+01  0.3186E+01
      3.616  0.6995E+00  0.6995E+00  0.3246E+01  0.3246E+01
      3.700  0.6775E+00  0.6775E+00  0.3304E+01  0.3304E+01
      3.785  0.6583E+00  0.6583E+00  0.3361E+01  0.3361E+01
      3.870  0.6464E+00  0.6464E+00  0.3416E+01  0.3416E+01
      3.954  0.6424E+00  0.6424E+00  0.3470E+01  0.3470E+01
      4.039  0.6400E+00  0.6400E+00  0.3524E+01  0.3524E+01
      4.124  0.6649E+00  0.6649E+00  0.3581E+01  0.3581E+01
      4.208  0.6363E+00  0.6363E+00  0.3635E+01  0.3635E+01
      4.293  0.5981E+00  0.5981E+00  0.3688E+01  0.3688E+01
      4.378  0.5356E+00  0.5356E+00  0.3737E+01  0.3737E+01
      4.462  0.4754E+00  0.4754E+00  0.3780E+01  0.3780E+01
      4.547  0.3867E+00  0.3867E+00  0.3816E+01  0.3816E+01
      4.632  0.3498E+00  0.3498E+00  0.3848E+01  0.3848E+01
      4.716  0.2675E+00  0.2675E+00  0.3873E+01  0.3873E+01
      4.801  0.2437E+00  0.2437E+00  0.3895E+01  0.3895E+01
      4.885  0.2519E+00  0.2519E+00  0.3916E+01  0.3916E+01
      4.970  0.2088E+00  0.2087E+00  0.3935E+01  0.3935E+01
      5.055  0.2031E+00  0.2031E+00  0.3952E+01  0.3952E+01
      5.139  0.1229E+00  0.1229E+00  0.3966E+01  0.3966E+01
      5.224  0.1022E+00  0.1021E+00  0.3975E+01  0.3975E+01
      5.309  0.1239E+00  0.1239E+00  0.3985E+01  0.3985E+01
      5.393  0.7402E-01  0.7399E-01  0.3994E+01  0.3994E+01
      5.478  0.3278E-01  0.3277E-01  0.3998E+01  0.3998E+01
      5.563  0.0000E+00  0.0000E+00  0.4000E+01  0.4000E+01
      5.647  0.0000E+00  0.0000E+00  0.4000E+01  0.4000E+01
      5.732  0.0000E+00  0.0000E+00  0.4000E+01  0.4000E+01
      5.817  0.0000E+00  0.0000E+00  0.4000E+01  0.4000E+01
      5.901  0.0000E+00  0.0000E+00  0.4000E+01  0.4000E+01
      5.986  0.0000E+00  0.0000E+00  0.4000E+01  0.4000E+01
      6.071  0.0000E+00  0.0000E+00  0.4000E+01  0.4000E+01
      6.155  0.0000E+00  0.0000E+00  0.4000E+01  0.4000E+01
      6.240  0.0000E+00  0.0000E+00  0.4000E+01  0.4000E+01
      6.325  0.0000E+00  0.0000E+00  0.4000E+01  0.4000E+01
      6.409  0.6894E-01  0.6897E-01  0.4006E+01  0.4006E+01
      6.494  0.9976E-01  0.9979E-01  0.4013E+01  0.4013E+01
      6.579  0.1165E+00  0.1165E+00  0.4022E+01  0.4022E+01
      6.663  0.1442E+00  0.1442E+00  0.4033E+01  0.4033E+01
      6.748  0.2097E+00  0.2097E+00  0.4049E+01  0.4049E+01
      6.833  0.2356E+00  0.2356E+00  0.4069E+01  0.4069E+01
      6.917  0.2350E+00  0.2350E+00  0.4089E+01  0.4089E+01
      7.002  0.2583E+00  0.2583E+00  0.4110E+01  0.4110E+01
      7.087  0.2860E+00  0.2860E+00  0.4133E+01  0.4133E+01
      7.171  0.3725E+00  0.3726E+00  0.4159E+01  0.4159E+01
      7.256  0.3643E+00  0.3643E+00  0.4188E+01  0.4188E+01
      7.341  0.3999E+00  0.3999E+00  0.4221E+01  0.4221E+01
      7.425  0.4535E+00  0.4536E+00  0.4257E+01  0.4257E+01
      7.510  0.5317E+00  0.5317E+00  0.4299E+01  0.4299E+01
      7.595  0.5965E+00  0.5966E+00  0.4347E+01  0.4347E+01
      7.679  0.6805E+00  0.6806E+00  0.4401E+01  0.4401E+01
      7.764  0.7911E+00  0.7912E+00  0.4464E+01  0.4464E+01
      7.848  0.9850E+00  0.9850E+00  0.4538E+01  0.4538E+01
      7.933  0.9860E+00  0.9860E+00  0.4623E+01  0.4623E+01
      8.018  0.8831E+00  0.8831E+00  0.4702E+01  0.4702E+01
      8.102  0.8391E+00  0.8391E+00  0.4774E+01  0.4774E+01
      8.187  0.8104E+00  0.8104E+00  0.4845E+01  0.4845E+01
      8.272  0.6815E+00  0.6815E+00  0.4908E+01  0.4908E+01
      8.356  0.6451E+00  0.6450E+00  0.4971E+01  0.4971E+01
      8.441  0.5459E+00  0.5459E+00  0.5021E+01  0.5021E+01
      8.526  0.4563E+00  0.4563E+00  0.5063E+01  0.5063E+01
      8.610  0.3686E+00  0.3686E+00  0.5102E+01  0.5102E+01
      8.695  0.3710E+00  0.3710E+00  0.5133E+01  0.5133E+01
      8.780  0.4085E+00  0.4085E+00  0.5165E+01  0.5165E+01
      8.864  0.7287E+00  0.7287E+00  0.5209E+01  0.5210E+01
      8.949  0.1168E+01  0.1168E+01  0.5288E+01  0.5288E+01
      9.034  0.1123E+01  0.1123E+01  0.5391E+01  0.5391E+01
      9.118  0.9317E+00  0.9317E+00  0.5477E+01  0.5477E+01
      9.203  0.9232E+00  0.9233E+00  0.5556E+01  0.5556E+01
      9.288  0.1044E+01  0.1044E+01  0.5636E+01  0.5636E+01
      9.372  0.1001E+01  0.1001E+01  0.5727E+01  0.5727E+01
      9.457  0.8181E+00  0.8181E+00  0.5804E+01  0.5804E+01
      9.542  0.6991E+00  0.6990E+00  0.5868E+01  0.5868E+01
      9.626  0.6541E+00  0.6541E+00  0.5926E+01  0.5926E+01
      9.711  0.6168E+00  0.6167E+00  0.5980E+01  0.5980E+01
      9.796  0.5823E+00  0.5822E+00  0.6030E+01  0.6030E+01
      9.880  0.5650E+00  0.5650E+00  0.6079E+01  0.6079E+01
      9.965  0.5912E+00  0.5912E+00  0.6130E+01  0.6130E+01
     10.050  0.6144E+00  0.6144E+00  0.6182E+01  0.6182E+01
     10.134  0.5987E+00  0.5987E+00  0.6233E+01  0.6233E+01
     10.219  0.5862E+00  0.5862E+00  0.6283E+01  0.6283E+01
     10.304  0.5976E+00  0.5976E+00  0.6333E+01  0.6333E+01
     10.388  0.6268E+00  0.6268E+00  0.6385E+01  0.6385E+01
     10.473  0.6167E+00  0.6167E+00  0.6438E+01  0.6438E+01
     10.557  0.6203E+00  0.6203E+00  0.6490E+01  0.6490E+01
     10.642  0.6588E+00  0.6589E+00  0.6547E+01  0.6547E+01
     10.727  0.6648E+00  0.6648E+00  0.6605E+01  0.6605E+01
     10.811  0.6153E+00  0.6153E+00  0.6658E+01  0.6658E+01
     10.896  0.5988E+00  0.5988E+00  0.6710E+01  0.6710E+01
     10.981  0.5479E+00  0.5478E+00  0.6761E+01  0.6761E+01
     11.065  0.5409E+00  0.5409E+00  0.6807E+01  0.6807E+01
     11.150  0.5470E+00  0.5470E+00  0.6853E+01  0.6853E+01
     11.235  0.5512E+00  0.5512E+00  0.6899E+01  0.6899E+01
     11.319  0.5899E+00  0.5899E+00  0.6948E+01  0.6948E+01
     11.404  0.5315E+00  0.5314E+00  0.6997E+01  0.6997E+01
     11.489  0.4846E+00  0.4846E+00  0.7039E+01  0.7039E+01
     11.573  0.4670E+00  0.4669E+00  0.7080E+01  0.7080E+01
     11.658  0.4930E+00  0.4930E+00  0.7125E+01  0.7125E+01
     11.743  0.4757E+00  0.4757E+00  0.7166E+01  0.7166E+01
     11.827  0.4772E+00  0.4772E+00  0.7206E+01  0.7206E+01
     11.912  0.4984E+00  0.4984E+00  0.7247E+01  0.7247E+01
     11.997  0.5446E+00  0.5446E+00  0.7291E+01  0.7291E+01
     12.081  0.6173E+00  0.6174E+00  0.7339E+01  0.7339E+01
     12.166  0.5485E+00  0.5485E+00  0.7384E+01  0.7384E+01
     12.251  0.7008E+00  0.7008E+00  0.7435E+01  0.7435E+01
     12.335  0.9872E+00  0.9875E+00  0.7501E+01  0.7501E+01
     12.420  0.7513E+00  0.7513E+00  0.7569E+01  0.7569E+01
     12.505  0.6739E+00  0.6739E+00  0.7628E+01  0.7628E+01
     12.589  0.6637E+00  0.6637E+00  0.7684E+01  0.7684E+01
     12.674  0.6317E+00  0.6317E+00  0.7742E+01  0.7742E+01
     12.759  0.5498E+00  0.5498E+00  0.7791E+01  0.7791E+01
     12.843  0.5280E+00  0.5280E+00  0.7837E+01  0.7837E+01
     12.928  0.5351E+00  0.5351E+00  0.7881E+01  0.7882E+01
     13.013  0.5438E+00  0.5438E+00  0.7927E+01  0.7927E+01
     13.097  0.5444E+00  0.5444E+00  0.7973E+01  0.7973E+01
     13.182  0.6206E+00  0.6207E+00  0.8023E+01  0.8023E+01
     13.267  0.6621E+00  0.6622E+00  0.8077E+01  0.8078E+01
     13.351  0.6424E+00  0.6425E+00  0.8134E+01  0.8134E+01
     13.436  0.6441E+00  0.6441E+00  0.8188E+01  0.8188E+01
     13.520  0.5755E+00  0.5754E+00  0.8240E+01  0.8240E+01
     13.605  0.5582E+00  0.5581E+00  0.8289E+01  0.8289E+01
     13.690  0.5341E+00  0.5341E+00  0.8335E+01  0.8335E+01
     13.774  0.5558E+00  0.5558E+00  0.8381E+01  0.8381E+01
     13.859  0.5786E+00  0.5786E+00  0.8429E+01  0.8429E+01
     13.944  0.6007E+00  0.6006E+00  0.8479E+01  0.8479E+01
     14.028  0.5872E+00  0.5870E+00  0.8530E+01  0.8530E+01
     14.113  0.6097E+00  0.6090E+00  0.8581E+01  0.8581E+01
     14.198  0.6124E+00  0.6118E+00  0.8632E+01  0.8632E+01
     14.282  0.6207E+00  0.6199E+00  0.8685E+01  0.8685E+01
     14.367  0.6220E+00  0.6212E+00  0.8737E+01  0.8737E+01
     14.452  0.5927E+00  0.5918E+00  0.8789E+01  0.8788E+01
     14.536  0.5856E+00  0.5848E+00  0.8838E+01  0.8838E+01
     14.621  0.5979E+00  0.5975E+00  0.8888E+01  0.8887E+01
     14.706  0.5854E+00  0.5861E+00  0.8938E+01  0.8937E+01
     14.790  0.5801E+00  0.5827E+00  0.8987E+01  0.8987E+01
     14.875  0.5775E+00  0.5826E+00  0.9036E+01  0.9036E+01
     14.960  0.5781E+00  0.5865E+00  0.9087E+01  0.9087E+01
     15.044  0.5797E+00  0.5911E+00  0.9137E+01  0.9139E+01
     15.129  0.6066E+00  0.6203E+00  0.9196E+01  0.9198E+01
     15.214  0.5946E+00  0.6102E+00  0.9247E+01  0.9251E+01
     15.298  0.5550E+00  0.5749E+00  0.9297E+01  0.9302E+01
     15.383  0.5564E+00  0.5816E+00  0.9344E+01  0.9351E+01
     15.468  0.5660E+00  0.6041E+00  0.9391E+01  0.9401E+01
     15.552  0.5881E+00  0.6240E+00  0.9440E+01  0.9453E+01
     15.637  0.5884E+00  0.6081E+00  0.9490E+01  0.9505E+01
     15.722  0.5878E+00  0.5908E+00  0.9541E+01  0.9557E+01
     15.806  0.5653E+00  0.5597E+00  0.9589E+01  0.9605E+01
     15.891  0.5424E+00  0.5253E+00  0.9636E+01  0.9651E+01
     15.976  0.5162E+00  0.4883E+00  0.9681E+01  0.9694E+01
     16.060  0.4862E+00  0.4478E+00  0.9723E+01  0.9733E+01
     16.145  0.4687E+00  0.4327E+00  0.9764E+01  0.9771E+01
     16.230  0.4382E+00  0.4126E+00  0.9803E+01  0.9807E+01
     16.314  0.4071E+00  0.3885E+00  0.9838E+01  0.9841E+01
     16.399  0.4397E+00  0.4255E+00  0.9874E+01  0.9875E+01
     16.483  0.4787E+00  0.4698E+00  0.9926E+01  0.9927E+01
     16.568  0.2163E+00  0.2129E+00  0.9960E+01  0.9959E+01
     16.653  0.1555E+00  0.1545E+00  0.9975E+01  0.9975E+01
     16.737  0.1103E+00  0.1090E+00  0.9986E+01  0.9986E+01
     16.822  0.7695E-01  0.7766E-01  0.9994E+01  0.9994E+01
     16.907  0.3804E-01  0.4476E-01  0.9999E+01  0.9999E+01
     16.991  0.0000E+00  0.0000E+00  0.1000E+02  0.1000E+02
     17.076  0.0000E+00  0.0000E+00  0.1000E+02  0.1000E+02
     17.161  0.0000E+00  0.0000E+00  0.1000E+02  0.1000E+02
     17.245  0.0000E+00  0.0000E+00  0.1000E+02  0.1000E+02
     17.330  0.0000E+00  0.0000E+00  0.1000E+02  0.1000E+02
     17.415  0.0000E+00  0.0000E+00  0.1000E+02  0.1000E+02
     17.499  0.0000E+00  0.0000E+00  0.1000E+02  0.1000E+02
     17.584  0.0000E+00  0.0000E+00  0.1000E+02  0.1000E+02
     17.669  0.0000E+00  0.0000E+00  0.1000E+02  0.1000E+02
     17.753  0.0000E+00  0.0000E+00  0.1000E+02  0.1000E+02
     17.838  0.0000E+00  0.0000E+00  0.1000E+02  0.1000E+02
     17.923  0.0000E+00  0.0000E+00  0.1000E+02  0.1000E+02
     18.007  0.0000E+00  0.0000E+00  0.1000E+02  0.1000E+02
     18.092  0.0000E+00  0.0000E+00  0.1000E+02  0.1000E+02
     18.09197289     -7.30513355  301      5.57331584      1.00000000
     -7.305  0.0000E+00  0.0000E+00  0.0000E+00  0.0000E+00  0.0000E+00  0.0000E+00  0.0000E+00  0.0000E+00  0.0000E+00  0.0000E+00  0.0000E+00  0.0000E+00  0.0000E+00  0.0000E+00  0.0000E+00  0.0000E+00  0.0000E+00  0.0000E+00
     -7.220  0.0000E+00  0.0000E+00  0.0000E+00  0.0000E+00  0.0000E+00  0.0000E+00  0.0000E+00  0.0000E+00  0.0000E+00  0.0000E+00  0.0000E+00  0.0000E+00  0.0000E+00  0.0000E+00  0.0000E+00  0.0000E+00  0.0000E+00  0.0000E+00
     -7.136  0.0000E+00  0.0000E+00  0.0000E+00  0.0000E+00  0.0000E+00  0.0000E+00  0.0000E+00  0.0000E+00  0.0000E+00  0.0000E+00  0.0000E+00  0.0000E+00  0.0000E+00  0.0000E+00  0.0000E+00  0.0000E+00  0.0000E+00  0.0000E+00
     -7.051  0.0000E+00  0.0000E+00  0.0000E+00  0.0000E+00  0.0000E+00  0.0000E+00  0.0000E+00  0.0000E+00  0.0000E+00  0.0000E+00  0.0000E+00  0.0000E+00  0.0000E+00  0.0000E+00  0.0000E+00  0.0000E+00  0.0000E+00  0.0000E+00
     -6.967  0.0000E+00  0.0000E+00  0.0000E+00  0.0000E+00  0.0000E+00  0.0000E+00  0.0000E+00  0.0000E+00  0.0000E+00  0.0000E+00  0.0000E+00  0.0000E+00  0.0000E+00  0.0000E+00  0.0000E+00  0.0000E+00  0.0000E+00  0.0000E+00
     -6.882  0.0000E+00  0.0000E+00  0.0000E+00  0.0000E+00  0.0000E+00  0.0000E+00  0.0000E+00  0.0000E+00  0.0000E+00  0.0000E+00  0.0000E+00  0.0000E+00  0.0000E+00  0.0000E+00  0.0000E+00  0.0000E+00  0.0000E+00  0.0000E+00
     -6.797  0.0000E+00  0.0000E+00  0.0000E+00  0.0000E+00  0.0000E+00  0.0000E+00  0.0000E+00  0.0000E+00  0.0000E+00  0.0000E+00  0.0000E+00  0.0000E+00  0.0000E+00  0.0000E+00  0.0000E+00  0.0000E+00  0.0000E+00  0.0000E+00
     -6.713  0.0000E+00  0.0000E+00  0.0000E+00  0.0000E+00  0.0000E+00  0.0000E+00  0.0000E+00  0.0000E+00  0.0000E+00  0.0000E+00  0.0000E+00  0.0000E+00  0.0000E+00  0.0000E+00  0.0000E+00  0.0000E+00  0.0000E+00  0.0000E+00
     -6.628  0.0000E+00  0.0000E+00  0.0000E+00  0.0000E+00  0.0000E+00  0.0000E+00  0.0000E+00  0.0000E+00  0.0000E+00  0.0000E+00  0.0000E+00  0.0000E+00  0.0000E+00  0.0000E+00  0.0000E+00  0.0000E+00  0.0000E+00  0.0000E+00
     -6.543  0.0000E+00  0.0000E+00  0.0000E+00  0.0000E+00  0.0000E+00  0.0000E+00  0.0000E+00  0.0000E+00  0.0000E+00  0.0000E+00  0.0000E+00  0.0000E+00  0.0000E+00  0.0000E+00  0.0000E+00  0.0000E+00  0.0000E+00  0.0000E+00
     -6.459  0.0000E+00  0.0000E+00  0.0000E+00  0.0000E+00  0.0000E+00  0.0000E+00  0.0000E+00  0.0000E+00  0.0000E+00  0.0000E+00  0.0000E+00  0.0000E+00  0.0000E+00  0.0000E+00  0.0000E+00  0.0000E+00  0.0000E+00  0.0000E+00
     -6.374  0.0000E+00  0.0000E+00  0.0000E+00  0.0000E+00  0.0000E+00  0.0000E+00  0.0000E+00  0.0000E+00  0.0000E+00  0.0000E+00  0.0000E+00  0.0000E+00  0.0000E+00  0.0000E+00  0.0000E+00  0.0000E+00  0.0000E+00  0.0000E+00
     -6.289  0.0000E+00  0.0000E+00  0.0000E+00  0.0000E+00  0.0000E+00  0.0000E+00  0.0000E+00  0.0000E+00  0.0000E+00  0.0000E+00  0.0000E+00  0.0000E+00  0.0000E+00  0.0000E+00  0.0000E+00  0.0000E+00  0.0000E+00  0.0000E+00
     -6.205  0.0000E+00  0.0000E+00  0.0000E+00  0.0000E+00  0.0000E+00  0.0000E+00  0.0000E+00  0.0000E+00  0.0000E+00  0.0000E+00  0.0000E+00  0.0000E+00  0.0000E+00  0.0000E+00  0.0000E+00  0.0000E+00  0.0000E+00  0.0000E+00
     -6.120  0.6926E-02  0.6928E-02  0.8102E-05  0.8106E-05  0.8102E-05  0.8106E-05  0.2410E-04  0.2411E-04  0.0000E+00  0.0000E+00  0.0000E+00  0.0000E+00  0.0000E+00  0.0000E+00  0.0000E+00  0.0000E+00  0.0000E+00  0.0000E+00
     -6.035  0.1493E-01  0.1494E-01  0.2552E-04  0.2553E-04  0.2552E-04  0.2553E-04  0.7154E-04  0.7155E-04  0.0000E+00  0.0000E+00  0.0000E+00  0.0000E+00  0.0000E+00  0.0000E+00  0.0000E+00  0.0000E+00  0.0000E+00  0.0000E+00
     -5.951  0.1745E-01  0.1745E-01  0.5906E-04  0.5906E-04  0.9251E-04  0.9252E-04  0.8948E-04  0.8948E-04  0.0000E+00  0.0000E+00  0.0000E+00  0.0000E+00  0.0000E+00  0.0000E+00  0.0000E+00  0.0000E+00  0.0000E+00  0.0000E+00
     -5.866  0.2018E-01  0.2018E-01  0.8430E-04  0.8430E-04  0.1504E-03  0.1504E-03  0.1260E-03  0.1260E-03  0.0000E+00  0.0000E+00  0.0000E+00  0.0000E+00  0.0000E+00  0.0000E+00  0.0000E+00  0.0000E+00  0.0000E+00  0.0000E+00
     -5.781  0.2418E-01  0.2419E-01  0.1228E-03  0.1228E-03  0.1999E-03  0.1998E-03  0.1951E-03  0.1951E-03  0.0000E+00  0.0000E+00  0.0000E+00  0.0000E+00  0.0000E+00  0.0000E+00  0.0000E+00  0.0000E+00  0.0000E+00  0.0000E+00
     -5.697  0.2649E-01  0.2649E-01  0.1582E-03  0.1582E-03  0.2657E-03  0.2657E-03  0.2617E-03  0.2617E-03  0.0000E+00  0.0000E+00  0.0000E+00  0.0000E+00  0.0000E+00  0.0000E+00  0.0000E+00  0.0000E+00  0.0000E+00  0.0000E+00
     -5.612  0.2810E-01  0.2810E-01  0.1921E-03  0.1921E-03  0.3703E-03  0.3703E-03  0.2991E-03  0.2991E-03  0.0000E+00  0.0000E+00  0.0000E+00  0.0000E+00  0.0000E+00  0.0000E+00  0.0000E+00  0.0000E+00  0.0000E+00  0.0000E+00
     -5.527  0.3045E-01  0.3045E-01  0.2361E-03  0.2361E-03  0.4900E-03  0.4900E-03  0.3285E-03  0.3285E-03  0.0000E+00  0.0000E+00  0.0000E+00  0.0000E+00  0.0000E+00  0.0000E+00  0.0000E+00  0.0000E+00  0.0000E+00  0.0000E+00
     -5.443  0.3310E-01  0.3310E-01  0.2833E-03  0.2833E-03  0.6179E-03  0.6179E-03  0.3571E-03  0.3571E-03  0.0000E+00  0.0000E+00  0.0000E+00  0.0000E+00  0.0000E+00  0.0000E+00  0.0000E+00  0.0000E+00  0.0000E+00  0.0000E+00
     -5.358  0.3580E-01  0.3580E-01  0.3277E-03  0.3277E-03  0.7541E-03  0.7541E-03  0.3878E-03  0.3878E-03  0.0000E+00  0.0000E+00  0.0000E+00  0.0000E+00  0.0000E+00  0.0000E+00  0.0000E+00  0.0000E+00  0.0000E+00  0.0000E+00
     -5.273  0.3725E-01  0.3725E-01  0.3819E-03  0.3819E-03  0.8934E-03  0.8933E-03  0.4356E-03  0.4356E-03  0.0000E+00  0.0000E+00  0.0000E+00  0.0000E+00  0.0000E+00  0.0000E+00  0.0000E+00  0.0000E+00  0.0000E+00  0.0000E+00
     -5.189  0.3894E-01  0.3894E-01  0.4383E-03  0.4383E-03  0.1013E-02  0.1013E-02  0.5139E-03  0.5138E-03  0.0000E+00  0.0000E+00  0.0000E+00  0.0000E+00  0.0000E+00  0.0000E+00  0.0000E+00  0.0000E+00  0.0000E+00  0.0000E+00
     -5.104  0.4089E-01  0.4090E-01  0.4849E-03  0.4848E-03  0.1125E-02  0.1125E-02  0.5985E-03  0.5984E-03  0.0000E+00  0.0000E+00  0.0000E+00  0.0000E+00  0.0000E+00  0.0000E+00  0.0000E+00  0.0000E+00  0.0000E+00  0.0000E+00
     -5.019  0.4289E-01  0.4289E-01  0.5259E-03  0.5259E-03  0.1244E-02  0.1244E-02  0.6847E-03  0.6847E-03  0.0000E+00  0.0000E+00  0.0000E+00  0.0000E+00  0.0000E+00  0.0000E+00  0.0000E+00  0.0000E+00  0.0000E+00  0.0000E+00
     -4.935  0.4519E-01  0.4519E-01  0.5828E-03  0.5828E-03  0.1382E-02  0.1382E-02  0.7814E-03  0.7814E-03  0.0000E+00  0.0000E+00  0.0000E+00  0.0000E+00  0.0000E+00  0.0000E+00  0.0000E+00  0.0000E+00  0.0000E+00  0.0000E+00
     -4.850  0.4781E-01  0.4781E-01  0.6462E-03  0.6461E-03  0.1531E-02  0.1531E-02  0.8748E-03  0.8747E-03  0.0000E+00  0.0000E+00  0.0000E+00  0.0000E+00  0.0000E+00  0.0000E+00  0.0000E+00  0.0000E+00  0.0000E+00  0.0000E+00
     -4.765  0.4970E-01  0.4970E-01  0.7061E-03  0.7060E-03  0.1702E-02  0.1702E-02  0.9519E-03  0.9519E-03  0.0000E+00  0.0000E+00  0.0000E+00  0.0000E+00  0.0000E+00  0.0000E+00  0.0000E+00  0.0000E+00  0.0000E+00  0.0000E+00
     -4.681  0.5154E-01  0.5155E-01  0.7641E-03  0.7640E-03  0.1900E-02  0.1900E-02  0.1008E-02  0.1008E-02  0.0000E+00  0.0000E+00  0.0000E+00  0.0000E+00  0.0000E+00  0.0000E+00  0.0000E+00  0.0000E+00  0.0000E+00  0.0000E+00
     -4.596  0.5365E-01  0.5365E-01  0.8192E-03  0.8192E-03  0.2108E-02  0.2108E-02  0.1063E-02  0.1063E-02  0.0000E+00  0.0000E+00  0.0000E+00  0.0000E+00  0.0000E+00  0.0000E+00  0.0000E+00  0.0000E+00  0.0000E+00  0.0000E+00
     -4.511  0.5617E-01  0.5617E-01  0.8901E-03  0.8901E-03  0.2324E-02  0.2324E-02  0.1147E-02  0.1147E-02  0.0000E+00  0.0000E+00  0.0000E+00  0.0000E+00  0.0000E+00  0.0000E+00  0.0000E+00  0.0000E+00  0.0000E+00  0.0000E+00
     -4.427  0.5908E-01  0.5909E-01  0.9640E-03  0.9639E-03  0.2522E-02  0.2522E-02  0.1271E-02  0.1271E-02  0.0000E+00  0.0000E+00  0.0000E+00  0.0000E+00  0.0000E+00  0.0000E+00  0.0000E+00  0.0000E+00  0.0000E+00  0.0000E+00
     -4.342  0.6237E-01  0.6237E-01  0.1034E-02  0.1034E-02  0.2706E-02  0.2706E-02  0.1420E-02  0.1420E-02  0.0000E+00  0.0000E+00  0.0000E+00  0.0000E+00  0.0000E+00  0.0000E+00  0.0000E+00  0.0000E+00  0.0000E+00  0.0000E+00
     -4.257  0.6615E-01  0.6615E-01  0.1107E-02  0.1107E-02  0.2894E-02  0.2894E-02  0.1594E-02  0.1594E-02  0.0000E+00  0.0000E+00  0.0000E+00  0.0000E+00  0.0000E+00  0.0000E+00  0.0000E+00  0.0000E+00  0.0000E+00  0.0000E+00
     -4.173  0.7020E-01  0.7020E-01  0.1185E-02  0.1185E-02  0.3093E-02  0.3093E-02  0.1788E-02  0.1788E-02  0.0000E+00  0.0000E+00  0.0000E+00  0.0000E+00  0.0000E+00  0.0000E+00  0.0000E+00  0.0000E+00  0.0000E+00  0.0000E+00
     -4.088  0.7598E-01  0.7598E-01  0.1313E-02  0.1313E-02  0.3365E-02  0.3365E-02  0.2061E-02  0.2061E-02  0.0000E+00  0.0000E+00  0.0000E+00  0.0000E+00  0.0000E+00  0.0000E+00  0.0000E+00  0.0000E+00  0.0000E+00  0.0000E+00
     -4.004  0.8371E-01  0.8371E-01  0.1466E-02  0.1466E-02  0.3710E-02  0.3710E-02  0.2353E-02  0.2353E-02  0.0000E+00  0.0000E+00  0.0000E+00  0.0000E+00  0.0000E+00  0.0000E+00  0.0000E+00  0.0000E+00  0.0000E+00  0.0000E+00
     -3.919  0.1018E+00  0.1018E+00  0.1810E-02  0.1810E-02  0.4310E-02  0.4310E-02  0.2925E-02  0.2925E-02  0.0000E+00  0.0000E+00  0.0000E+00  0.0000E+00  0.0000E+00  0.0000E+00  0.0000E+00  0.0000E+00  0.0000E+00  0.0000E+00
     -3.834  0.9380E-01  0.9380E-01  0.1629E-02  0.1629E-02  0.4469E-02  0.4469E-02  0.2708E-02  0.2708E-02  0.0000E+00  0.0000E+00  0.0000E+00  0.0000E+00  0.0000E+00  0.0000E+00  0.0000E+00  0.0000E+00  0.0000E+00  0.0000E+00
     -3.750  0.9160E-01  0.9161E-01  0.1550E-02  0.1550E-02  0.4733E-02  0.4733E-02  0.2657E-02  0.2657E-02  0.0000E+00  0.0000E+00  0.0000E+00  0.0000E+00  0.0000E+00  0.0000E+00  0.0000E+00  0.0000E+00  0.0000E+00  0.0000E+00
     -3.665  0.9095E-01  0.9095E-01  0.1519E-02  0.1519E-02  0.5146E-02  0.5146E-02  0.2632E-02  0.2631E-02  0.0000E+00  0.0000E+00  0.0000E+00  0.0000E+00  0.0000E+00  0.0000E+00  0.0000E+00  0.0000E+00  0.0000E+00  0.0000E+00
     -3.580  0.8624E-01  0.8624E-01  0.1381E-02  0.1381E-02  0.5302E-02  0.5302E-02  0.2581E-02  0.2581E-02  0.0000E+00  0.0000E+00  0.0000E+00  0.0000E+00  0.0000E+00  0.0000E+00  0.0000E+00  0.0000E+00  0.0000E+00  0.0000E+00
     -3.496  0.8251E-01  0.8251E-01  0.1261E-02  0.1261E-02  0.5312E-02  0.5312E-02  0.2585E-02  0.2586E-02  0.0000E+00  0.0000E+00  0.0000E+00  0.0000E+00  0.0000E+00  0.0000E+00  0.0000E+00  0.0000E+00  0.0000E+00  0.0000E+00
     -3.411  0.7849E-01  0.7849E-01  0.1145E-02  0.1145E-02  0.5297E-02  0.5297E-02  0.2581E-02  0.2581E-02  0.0000E+00  0.0000E+00  0.0000E+00  0.0000E+00  0.0000E+00  0.0000E+00  0.0000E+00  0.0000E+00  0.0000E+00  0.0000E+00
     -3.326  0.7646E-01  0.7646E-01  0.1078E-02  0.1078E-02  0.5393E-02  0.5393E-02  0.2664E-02  0.2664E-02  0.0000E+00  0.0000E+00  0.0000E+00  0.0000E+00  0.0000E+00  0.0000E+00  0.0000E+00  0.0000E+00  0.0000E+00  0.0000E+00
     -3.242  0.7552E-01  0.7552E-01  0.1030E-02  0.1030E-02  0.5559E-02  0.5559E-02  0.2834E-02  0.2834E-02  0.0000E+00  0.0000E+00  0.0000E+00  0.0000E+00  0.0000E+00  0.0000E+00  0.0000E+00  0.0000E+00  0.0000E+00  0.0000E+00
     -3.157  0.7095E-01  0.7095E-01  0.9170E-03  0.9170E-03  0.5566E-02  0.5566E-02  0.2816E-02  0.2816E-02  0.0000E+00  0.0000E+00  0.0000E+00  0.0000E+00  0.0000E+00  0.0000E+00  0.0000E+00  0.0000E+00  0.0000E+00  0.0000E+00
     -3.072  0.6671E-01  0.6671E-01  0.7912E-03  0.7912E-03  0.5528E-02  0.5528E-02  0.2760E-02  0.2760E-02  0.0000E+00  0.0000E+00  0.0000E+00  0.0000E+00  0.0000E+00  0.0000E+00  0.0000E+00  0.0000E+00  0.0000E+00  0.0000E+00