PROCAR lm decomposed
# of k-points:   60         # of bands:  10         # of ions:   2

 k-point    1 :    0.06250000 0.06250000 0.06250000     weight = 0.00390625

band   1 # energy   -6.15068789 # occ.  1.00000000
 
ion      s     py     pz     px    dxy    dyz    dz2    dxz    dx2    tot
  1  0.212  0.000  0.000  0.000  0.000  0.000  0.000  0.000  0.000  0.212
  2  0.212  0.000  0.000  0.000  0.000  0.000  0.000  0.000  0.000  0.212
tot  0.423  0.000  0.000  0.000  0.000  0.000  0.000  0.000  0.000  0.424
 
band   2 # energy    5.07962338 # occ.  1.00000000
 
ion      s     py     pz     px    dxy    dyz    dz2    dxz    dx2    tot
  1  0.031  0.062  0.062  0.062  0.000  0.000  0.000  0.000  0.000  0.218
  2  0.031  0.062  0.062  0.062  0.000  0.000  0.000  0.000  0.000  0.218
tot  0.062  0.124  0.124  0.124  0.000  0.000  0.000  0.000  0.000  0.435
 
band   3 # energy    5.52834065 # occ.  1.00000000
 
ion      s     py     pz     px    dxy    dyz    dz2    dxz    dx2    tot
  1  0.000  0.106  0.000  0.106  0.000  0.000  0.000  0.000  0.000  0.213
  2  0.000  0.106  0.000  0.106  0.000  0.000  0.000  0.000  0.000  0.213
tot  0.000  0.213  0.000  0.213  0.000  0.000  0.000  0.000  0.000  0.425
 
band   4 # energy    5.52834089 # occ.  1.00000000
 
ion      s     py     pz     px    dxy    dyz    dz2    dxz    dx2    tot
  1  0.000  0.035  0.142  0.035  0.000  0.000  0.000  0.000  0.000  0.213
  2  0.000  0.035  0.142  0.035  0.000  0.000  0.000  0.000  0.000  0.213
tot  0.000  0.071  0.284  0.071  0.000  0.000  0.000  0.000  0.000  0.425
 
band   5 # energy    8.20675832 # occ.  0.00000000
 
ion      s     py     pz     px    dxy    dyz    dz2    dxz    dx2    tot
  1  0.049  0.042  0.042  0.042  0.000  0.000  0.000  0.000  0.000  0.175
  2  0.049  0.042  0.042  0.042  0.000  0.000  0.000  0.000  0.000  0.175
tot  0.099  0.084  0.084  0.084  0.000  0.000  0.000  0.000  0.000  0.349
 
band   6 # energy    8.28896260 # occ.  0.00000000
 
ion      s     py     pz     px    dxy    dyz    dz2    dxz    dx2    tot
  1  0.000  0.025  0.101  0.025  0.000  0.000  0.000  0.000  0.000  0.152
  2  0.000  0.025  0.101  0.025  0.000  0.000  0.000  0.000  0.000  0.152
tot  0.000  0.051  0.203  0.051  0.000  0.000  0.000  0.000  0.000  0.304
 
band   7 # energy    8.28896264 # occ.  0.00000000
 
ion      s     py     pz     px    dxy    dyz    dz2    dxz    dx2    tot
  1  0.000  0.076  0.000  0.076  0.000  0.000  0.000  0.000  0.000  0.152
  2  0.000  0.076  0.000  0.076  0.000  0.000  0.000  0.000  0.000  0.152
tot  0.000  0.152  0.000  0.152  0.000  0.000  0.000  0.000  0.000  0.304
 
band   8 # energy    9.14612186 # occ.  0.00000000
 
ion      s     py     pz     px    dxy    dyz    dz2    dxz    dx2    tot
  1  0.282  0.015  0.015  0.015  0.000  0.000  0.000  0.000  0.000  0.328
  2  0.282  0.015  0.015  0.015  0.000  0.000  0.000  0.000  0.000  0.328
tot  0.564  0.031  0.031  0.031  0.000  0.000  0.000  0.000  0.000  0.656
 
band   9 # energy   13.15817349 # occ.  0.00000000
 
ion      s     py     pz     px    dxy    dyz    dz2    dxz    dx2    tot
  1  0.000  0.000  0.000  0.000  0.000  0.000  0.000  0.000  0.000  0.001
  2  0.000  0.000  0.000  0.000  0.000  0.000  0.000  0.000  0.000  0.001
tot  0.000  0.000  0.001  0.001  0.000  0.000  0.000  0.000  0.000  0.002
 
band  10 # energy   13.15817486 # occ.  0.00000000
 
ion      s     py     pz     px    dxy    dyz    dz2    dxz    dx2    tot
  1  0.000  0.000  0.000  0.000  0.000  0.000  0.000  0.000  0.000  0.001
  2  0.000  0.000  0.000  0.000  0.000  0.000  0.000  0.000  0.000  0.001
tot  0.000  0.001  0.001  0.000  0.000  0.000  0.000  0.000  0.000  0.002
 

 k-point    2 :    0.18750000 0.06250000 0.06250000     weight = 0.01171875

band   1 # energy   -5.88447714 # occ.  1.00000000
 
ion      s     py     pz     px    dxy    dyz    dz2    dxz    dx2    tot
  1  0.210  0.002  0.002  0.000  0.000  0.000  0.000  0.000  0.000  0.214
  2  0.210  0.002  0.002  0.000  0.000  0.000  0.000  0.000  0.000  0.214
tot  0.421  0.003  0.003  0.000  0.000  0.000  0.000  0.000  0.000  0.428
 
band   2 # energy    3.58026255 # occ.  1.00000000
 
ion      s     py     pz     px    dxy    dyz    dz2    dxz    dx2    tot
  1  0.080  0.054  0.054  0.035  0.000  0.000  0.000  0.000  0.000  0.224
  2  0.080  0.054  0.054  0.035  0.000  0.000  0.000  0.000  0.000  0.224
tot  0.161  0.109  0.109  0.070  0.000  0.000  0.000  0.000  0.000  0.448
 
band   3 # energy    4.72800188 # occ.  1.00000000
 
ion      s     py     pz     px    dxy    dyz    dz2    dxz    dx2    tot
  1  0.006  0.029  0.029  0.137  0.000  0.000  0.000  0.000  0.000  0.200
  2  0.006  0.029  0.029  0.137  0.000  0.000  0.000  0.000  0.000  0.200
tot  0.013  0.057  0.057  0.273  0.000  0.000  0.000  0.000  0.000  0.400
 
band   4 # energy    5.41157928 # occ.  1.00000000
 
ion      s     py     pz     px    dxy    dyz    dz2    dxz    dx2    tot
  1  0.000  0.108  0.108  0.000  0.000  0.000  0.000  0.000  0.000  0.216
  2  0.000  0.108  0.108  0.000  0.000  0.000  0.000  0.000  0.000  0.216
tot  0.000  0.216  0.216  0.000  0.000  0.000  0.000  0.000  0.000  0.432
 
band   5 # energy    8.25869923 # occ.  0.00000000
 
ion      s     py     pz     px    dxy    dyz    dz2    dxz    dx2    tot
  1  0.103  0.014  0.014  0.067  0.000  0.000  0.000  0.000  0.000  0.199
  2  0.103  0.014  0.014  0.067  0.000  0.000  0.000  0.000  0.000  0.199
tot  0.206  0.029  0.029  0.134  0.000  0.000  0.000  0.000  0.000  0.397
 
band   6 # energy    8.53199295 # occ.  0.00000000
 
ion      s     py     pz     px    dxy    dyz    dz2    dxz    dx2    tot
  1  0.000  0.075  0.075  0.000  0.000  0.000  0.000  0.000  0.000  0.151
  2  0.000  0.075  0.075  0.000  0.000  0.000  0.000  0.000  0.000  0.151
tot  0.000  0.151  0.151  0.000  0.000  0.000  0.000  0.000  0.000  0.301
 
band   7 # energy    8.82062479 # occ.  0.00000000
 
ion      s     py     pz     px    dxy    dyz    dz2    dxz    dx2    tot
  1  0.021  0.022  0.022  0.099  0.000  0.000  0.000  0.000  0.000  0.164
  2  0.021  0.022  0.022  0.099  0.000  0.000  0.000  0.000  0.000  0.164
tot  0.042  0.043  0.043  0.198  0.000  0.000  0.000  0.000  0.000  0.327
 
band   8 # energy   10.61571890 # occ.  0.00000000
 
ion      s     py     pz     px    dxy    dyz    dz2    dxz    dx2    tot
  1  0.155  0.050  0.050  0.018  0.000  0.000  0.000  0.000  0.000  0.273
  2  0.155  0.050  0.050  0.018  0.000  0.000  0.000  0.000  0.000  0.273
tot  0.310  0.100  0.100  0.036  0.000  0.000  0.000  0.000  0.000  0.546
 
band   9 # energy   12.34476816 # occ.  0.00000000
 
ion      s     py     pz     px    dxy    dyz    dz2    dxz    dx2    tot
  1  0.000  0.001  0.001  0.000  0.000  0.000  0.000  0.000  0.000  0.001
  2  0.000  0.001  0.001  0.000  0.000  0.000  0.000  0.000  0.000  0.001
tot  0.000  0.001  0.001  0.000  0.000  0.000  0.000  0.000  0.000  0.002
 
band  10 # energy   13.12388455 # occ.  0.00000000
 
ion      s     py     pz     px    dxy    dyz    dz2    dxz    dx2    tot
  1  0.010  0.001  0.001  0.005  0.000  0.000  0.000  0.000  0.000  0.017
  2  0.010  0.001  0.001  0.005  0.000  0.000  0.000  0.000  0.000  0.017
tot  0.021  0.001  0.001  0.010  0.000  0.000  0.000  0.000  0.000  0.033
 

 k-point    3 :    0.31250000 0.06250000 0.06250000     weight = 0.01171875

band   1 # energy   -5.24214927 # occ.  1.00000000
 
ion      s     py     pz     px    dxy    dyz    dz2    dxz    dx2    tot
  1  0.209  0.004  0.004  0.002  0.000  0.000  0.000  0.000  0.000  0.218
  2  0.209  0.004  0.004  0.002  0.000  0.000  0.000  0.000  0.000  0.218
tot  0.418  0.008  0.008  0.003  0.000  0.000  0.000  0.000  0.000  0.437
 
band   2 # energy    1.36884182 # occ.  1.00000000
 
ion      s     py     pz     px    dxy    dyz    dz2    dxz    dx2    tot
  1  0.104  0.037  0.037  0.038  0.000  0.000  0.000  0.000  0.000  0.215
  2  0.104  0.037  0.037  0.038  0.000  0.000  0.000  0.000  0.000  0.215
tot  0.207  0.074  0.074  0.076  0.000  0.000  0.000  0.000  0.000  0.430
 
band   3 # energy    4.24329484 # occ.  1.00000000
 
ion      s     py     pz     px    dxy    dyz    dz2    dxz    dx2    tot
  1  0.014  0.036  0.036  0.118  0.000  0.000  0.000  0.000  0.000  0.203
  2  0.014  0.036  0.036  0.118  0.000  0.000  0.000  0.000  0.000  0.203
tot  0.027  0.071  0.071  0.236  0.000  0.000  0.000  0.000  0.000  0.406
 
band   4 # energy    4.95308481 # occ.  1.00000000
 
ion      s     py     pz     px    dxy    dyz    dz2    dxz    dx2    tot
  1  0.000  0.108  0.108  0.000  0.000  0.000  0.000  0.000  0.000  0.216
  2  0.000  0.108  0.108  0.000  0.000  0.000  0.000  0.000  0.000  0.216
tot  0.000  0.216  0.216  0.000  0.000  0.000  0.000  0.000  0.000  0.432
 
band   5 # energy    7.81200941 # occ.  0.00000000
 
ion      s     py     pz     px    dxy    dyz    dz2    dxz    dx2    tot
  1  0.142  0.007  0.007  0.048  0.000  0.000  0.000  0.000  0.000  0.204
  2  0.142  0.007  0.007  0.048  0.000  0.000  0.000  0.000  0.000  0.204
tot  0.284  0.014  0.014  0.096  0.000  0.000  0.000  0.000  0.000  0.408
 
band   6 # energy    9.02124831 # occ.  0.00000000
 
ion      s     py     pz     px    dxy    dyz    dz2    dxz    dx2    tot
  1  0.000  0.067  0.067  0.000  0.000  0.000  0.000  0.000  0.000  0.133
  2  0.000  0.067  0.067  0.000  0.000  0.000  0.000  0.000  0.000  0.133
tot  0.000  0.133  0.133  0.000  0.000  0.000  0.000  0.000  0.000  0.266
 
band   7 # energy    9.30509368 # occ.  0.00000000
 
ion      s     py     pz     px    dxy    dyz    dz2    dxz    dx2    tot
  1  0.004  0.019  0.019  0.092  0.000  0.000  0.000  0.000  0.000  0.133
  2  0.004  0.019  0.019  0.092  0.000  0.000  0.000  0.000  0.000  0.133
tot  0.009  0.037  0.037  0.183  0.000  0.000  0.000  0.000  0.000  0.266
 
band   8 # energy   12.15220333 # occ.  0.00000000
 
ion      s     py     pz     px    dxy    dyz    dz2    dxz    dx2    tot
  1  0.062  0.037  0.037  0.038  0.000  0.000  0.000  0.000  0.000  0.175
  2  0.062  0.037  0.037  0.038  0.000  0.000  0.000  0.000  0.000  0.175
tot  0.125  0.075  0.075  0.076  0.000  0.000  0.000  0.000  0.000  0.350
 
band   9 # energy   12.38641670 # occ.  0.00000000
 
ion      s     py     pz     px    dxy    dyz    dz2    dxz    dx2    tot
  1  0.000  0.009  0.009  0.000  0.000  0.000  0.000  0.000  0.000  0.017
  2  0.000  0.009  0.009  0.000  0.000  0.000  0.000  0.000  0.000  0.017
tot  0.000  0.017  0.017  0.000  0.000  0.000  0.000  0.000  0.000  0.034
 
band  10 # energy   14.05476096 # occ.  0.00000000
 
ion      s     py     pz     px    dxy    dyz    dz2    dxz    dx2    tot
  1  0.041  0.026  0.026  0.018  0.000  0.000  0.000  0.000  0.000  0.111
  2  0.041  0.026  0.026  0.018  0.000  0.000  0.000  0.000  0.000  0.112
tot  0.083  0.052  0.052  0.036  0.000  0.000  0.000  0.000  0.000  0.223
 

 k-point    4 :    0.43750000 0.06250000 0.06250000     weight = 0.01171875

band   1 # energy   -4.34673560 # occ.  1.00000000
 
ion      s     py     pz     px    dxy    dyz    dz2    dxz    dx2    tot
  1  0.213  0.006  0.006  0.003  0.000  0.000  0.000  0.000  0.000  0.228
  2  0.213  0.006  0.006  0.003  0.000  0.000  0.000  0.000  0.000  0.228
tot  0.426  0.011  0.011  0.007  0.000  0.000  0.000  0.000  0.000  0.456
 
band   2 # energy   -0.50462438 # occ.  1.00000000
 
ion      s     py     pz     px    dxy    dyz    dz2    dxz    dx2    tot
  1  0.110  0.030  0.030  0.033  0.000  0.000  0.000  0.000  0.000  0.203
  2  0.110  0.030  0.030  0.033  0.000  0.000  0.000  0.000  0.000  0.203
tot  0.219  0.060  0.060  0.067  0.000  0.000  0.000  0.000  0.000  0.406
 
band   3 # energy    4.02818611 # occ.  1.00000000
 
ion      s     py     pz     px    dxy    dyz    dz2    dxz    dx2    tot
  1  0.018  0.035  0.035  0.120  0.000  0.000  0.000  0.000  0.000  0.207
  2  0.018  0.035  0.035  0.120  0.000  0.000  0.000  0.000  0.000  0.207
tot  0.035  0.070  0.070  0.239  0.000  0.000  0.000  0.000  0.000  0.415
 
band   4 # energy    4.54921466 # occ.  1.00000000
 
ion      s     py     pz     px    dxy    dyz    dz2    dxz    dx2    tot
  1  0.000  0.108  0.108  0.000  0.000  0.000  0.000  0.000  0.000  0.215
  2  0.000  0.108  0.108  0.000  0.000  0.000  0.000  0.000  0.000  0.215
tot  0.000  0.215  0.215  0.000  0.000  0.000  0.000  0.000  0.000  0.431
 
band   5 # energy    7.49787255 # occ.  0.00000000
 
ion      s     py     pz     px    dxy    dyz    dz2    dxz    dx2    tot
  1  0.158  0.005  0.005  0.036  0.000  0.000  0.000  0.000  0.000  0.205
  2  0.158  0.005  0.005  0.036  0.000  0.000  0.000  0.000  0.000  0.205
tot  0.317  0.010  0.010  0.072  0.000  0.000  0.000  0.000  0.000  0.409
 
band   6 # energy    9.08278480 # occ.  0.00000000
 
ion      s     py     pz     px    dxy    dyz    dz2    dxz    dx2    tot
  1  0.000  0.052  0.052  0.000  0.000  0.000  0.000  0.000  0.000  0.104
  2  0.000  0.052  0.052  0.000  0.000  0.000  0.000  0.000  0.000  0.104
tot  0.000  0.104  0.104  0.000  0.000  0.000  0.000  0.000  0.000  0.207
 
band   7 # energy    9.09635800 # occ.  0.00000000
 
ion      s     py     pz     px    dxy    dyz    dz2    dxz    dx2    tot
  1  0.002  0.018  0.018  0.064  0.000  0.000  0.000  0.000  0.000  0.102
  2  0.002  0.018  0.018  0.064  0.000  0.000  0.000  0.000  0.000  0.102
tot  0.005  0.036  0.036  0.127  0.000  0.000  0.000  0.000  0.000  0.204
 
band   8 # energy   13.39570644 # occ.  0.00000000
 
ion      s     py     pz     px    dxy    dyz    dz2    dxz    dx2    tot
  1  0.005  0.025  0.025  0.055  0.000  0.000  0.000  0.000  0.000  0.111
  2  0.005  0.025  0.025  0.055  0.000  0.000  0.000  0.000  0.000  0.111
tot  0.011  0.051  0.051  0.109  0.000  0.000  0.000  0.000  0.000  0.221
 
band   9 # energy   13.86825648 # occ.  0.00000000
 
ion      s     py     pz     px    dxy    dyz    dz2    dxz    dx2    tot
  1  0.000  0.021  0.021  0.000  0.000  0.000  0.000  0.000  0.000  0.043
  2  0.000  0.021  0.021  0.000  0.000  0.000  0.000  0.000  0.000  0.043
tot  0.000  0.043  0.043  0.000  0.000  0.000  0.000  0.000  0.000  0.085
 
band  10 # energy   14.68877437 # occ.  0.00000000
 
ion      s     py     pz     px    dxy    dyz    dz2    dxz    dx2    tot
  1  0.037  0.005  0.005  0.022  0.000  0.000  0.000  0.000  0.000  0.069
  2  0.037  0.005  0.005  0.022  0.000  0.000  0.000  0.000  0.000  0.069
tot  0.073  0.010  0.010  0.044  0.000  0.000  0.000  0.000  0.000  0.138
 

 k-point    5 :   -0.43750000 0.06250000 0.06250000     weight = 0.01171875

band   1 # energy   -3.90249397 # occ.  1.00000000
 
ion      s     py     pz     px    dxy    dyz    dz2    dxz    dx2    tot
  1  0.222  0.004  0.004  0.006  0.000  0.000  0.000  0.000  0.000  0.236
  2  0.222  0.004  0.004  0.006  0.000  0.000  0.000  0.000  0.000  0.236
tot  0.445  0.008  0.008  0.011  0.000  0.000  0.000  0.000  0.000  0.473
 
band   2 # energy   -1.19939119 # occ.  1.00000000
 
ion      s     py     pz     px    dxy    dyz    dz2    dxz    dx2    tot
  1  0.103  0.030  0.030  0.030  0.000  0.000  0.000  0.000  0.000  0.194
  2  0.103  0.030  0.030  0.030  0.000  0.000  0.000  0.000  0.000  0.194
tot  0.206  0.061  0.061  0.060  0.000  0.000  0.000  0.000  0.000  0.388
 
band   3 # energy    4.07738308 # occ.  1.00000000
 
ion      s     py     pz     px    dxy    dyz    dz2    dxz    dx2    tot
  1  0.020  0.033  0.033  0.125  0.000  0.000  0.000  0.000  0.000  0.211
  2  0.020  0.033  0.033  0.125  0.000  0.000  0.000  0.000  0.000  0.211
tot  0.040  0.066  0.066  0.250  0.000  0.000  0.000  0.000  0.000  0.422
 
band   4 # energy    4.33263344 # occ.  1.00000000
 
ion      s     py     pz     px    dxy    dyz    dz2    dxz    dx2    tot
  1  0.000  0.106  0.106  0.000  0.000  0.000  0.000  0.000  0.000  0.213
  2  0.000  0.106  0.106  0.000  0.000  0.000  0.000  0.000  0.000  0.213
tot  0.000  0.213  0.213  0.000  0.000  0.000  0.000  0.000  0.000  0.426
 
band   5 # energy    7.41784899 # occ.  0.00000000
 
ion      s     py     pz     px    dxy    dyz    dz2    dxz    dx2    tot
  1  0.160  0.008  0.008  0.029  0.000  0.000  0.000  0.000  0.000  0.204
  2  0.160  0.008  0.008  0.029  0.000  0.000  0.000  0.000  0.000  0.204
tot  0.320  0.016  0.016  0.057  0.000  0.000  0.000  0.000  0.000  0.408
 
band   6 # energy    8.89020459 # occ.  0.00000000
 
ion      s     py     pz     px    dxy    dyz    dz2    dxz    dx2    tot
  1  0.003  0.019  0.019  0.054  0.000  0.000  0.000  0.000  0.000  0.095
  2  0.003  0.019  0.019  0.054  0.000  0.000  0.000  0.000  0.000  0.095
tot  0.007  0.037  0.037  0.109  0.000  0.000  0.000  0.000  0.000  0.190
 
band   7 # energy    9.15899535 # occ.  0.00000000
 
ion      s     py     pz     px    dxy    dyz    dz2    dxz    dx2    tot
  1  0.000  0.049  0.049  0.000  0.000  0.000  0.000  0.000  0.000  0.098
  2  0.000  0.049  0.049  0.000  0.000  0.000  0.000  0.000  0.000  0.098
tot  0.000  0.098  0.098  0.000  0.000  0.000  0.000  0.000  0.000  0.196
 
band   8 # energy   13.46797391 # occ.  0.00000000
 
ion      s     py     pz     px    dxy    dyz    dz2    dxz    dx2    tot
  1  0.002  0.024  0.024  0.029  0.000  0.000  0.000  0.000  0.000  0.079
  2  0.002  0.024  0.024  0.029  0.000  0.000  0.000  0.000  0.000  0.079
tot  0.004  0.048  0.048  0.059  0.000  0.000  0.000  0.000  0.000  0.159
 
band   9 # energy   14.94427908 # occ.  0.00000000
 
ion      s     py     pz     px    dxy    dyz    dz2    dxz    dx2    tot
  1  0.013  0.023  0.023  0.000  0.000  0.000  0.000  0.000  0.000  0.059
  2  0.013  0.023  0.023  0.000  0.000  0.000  0.000  0.000  0.000  0.059
tot  0.025  0.047  0.047  0.000  0.000  0.000  0.000  0.000  0.000  0.119
 
band  10 # energy   16.07367836 # occ.  0.00000000
 
ion      s     py     pz     px    dxy    dyz    dz2    dxz    dx2    tot
  1  0.000  0.006  0.005  0.000  0.000  0.000  0.000  0.000  0.000  0.011
  2  0.000  0.006  0.005  0.000  0.000  0.000  0.000  0.000  0.000  0.011
tot  0.000  0.011  0.011  0.000  0.000  0.000  0.000  0.000  0.000  0.022
 

 k-point    6 :   -0.31250000 0.06250000 0.06250000     weight = 0.01171875

band   1 # energy   -4.65327026 # occ.  1.00000000
 
ion      s     py     pz     px    dxy    dyz    dz2    dxz    dx2    tot
  1  0.210  0.003  0.003  0.007  0.000  0.000  0.000  0.000  0.000  0.224
  2  0.210  0.003  0.003  0.007  0.000  0.000  0.000  0.000  0.000  0.224
tot  0.421  0.007  0.007  0.014  0.000  0.000  0.000  0.000  0.000  0.448
 
band   2 # energy    0.04924282 # occ.  1.00000000
 
ion      s     py     pz     px    dxy    dyz    dz2    dxz    dx2    tot
  1  0.110  0.033  0.033  0.032  0.000  0.000  0.000  0.000  0.000  0.208
  2  0.110  0.033  0.033  0.032  0.000  0.000  0.000  0.000  0.000  0.208
tot  0.220  0.066  0.066  0.063  0.000  0.000  0.000  0.000  0.000  0.415
 
band   3 # energy    4.35313411 # occ.  1.00000000
 
ion      s     py     pz     px    dxy    dyz    dz2    dxz    dx2    tot
  1  0.000  0.104  0.104  0.000  0.000  0.000  0.000  0.000  0.000  0.209
  2  0.000  0.104  0.104  0.000  0.000  0.000  0.000  0.000  0.000  0.209
tot  0.000  0.209  0.209  0.000  0.000  0.000  0.000  0.000  0.000  0.417
 
band   4 # energy    4.36197264 # occ.  1.00000000
 
ion      s     py     pz     px    dxy    dyz    dz2    dxz    dx2    tot
  1  0.020  0.032  0.032  0.128  0.000  0.000  0.000  0.000  0.000  0.213
  2  0.020  0.032  0.032  0.128  0.000  0.000  0.000  0.000  0.000  0.213
tot  0.039  0.064  0.064  0.257  0.000  0.000  0.000  0.000  0.000  0.425
 
band   5 # energy    7.58412145 # occ.  0.00000000
 
ion      s     py     pz     px    dxy    dyz    dz2    dxz    dx2    tot
  1  0.148  0.014  0.014  0.026  0.000  0.000  0.000  0.000  0.000  0.202
  2  0.148  0.014  0.014  0.026  0.000  0.000  0.000  0.000  0.000  0.202
tot  0.296  0.028  0.028  0.052  0.000  0.000  0.000  0.000  0.000  0.404
 
band   6 # energy    8.89749462 # occ.  0.00000000
 
ion      s     py     pz     px    dxy    dyz    dz2    dxz    dx2    tot
  1  0.006  0.023  0.023  0.058  0.000  0.000  0.000  0.000  0.000  0.110
  2  0.006  0.023  0.023  0.058  0.000  0.000  0.000  0.000  0.000  0.110
tot  0.012  0.046  0.046  0.116  0.000  0.000  0.000  0.000  0.000  0.221
 
band   7 # energy    9.41609722 # occ.  0.00000000
 
ion      s     py     pz     px    dxy    dyz    dz2    dxz    dx2    tot
  1  0.000  0.057  0.057  0.000  0.000  0.000  0.000  0.000  0.000  0.114
  2  0.000  0.057  0.057  0.000  0.000  0.000  0.000  0.000  0.000  0.114
tot  0.000  0.114  0.114  0.000  0.000  0.000  0.000  0.000  0.000  0.227
 
band   8 # energy   12.51345527 # occ.  0.00000000
 
ion      s     py     pz     px    dxy    dyz    dz2    dxz    dx2    tot
  1  0.014  0.031  0.031  0.021  0.000  0.000  0.000  0.000  0.000  0.098
  2  0.014  0.031  0.031  0.021  0.000  0.000  0.000  0.000  0.000  0.098
tot  0.028  0.063  0.063  0.042  0.000  0.000  0.000  0.000  0.000  0.195
 
band   9 # energy   14.12382817 # occ.  0.00000000
 
ion      s     py     pz     px    dxy    dyz    dz2    dxz    dx2    tot
  1  0.003  0.018  0.018  0.021  0.000  0.000  0.000  0.000  0.000  0.060
  2  0.003  0.018  0.018  0.021  0.000  0.000  0.000  0.000  0.000  0.060
tot  0.007  0.035  0.035  0.043  0.000  0.000  0.000  0.000  0.000  0.120
 
band  10 # energy   14.49659823 # occ.  0.00000000
 
ion      s     py     pz     px    dxy    dyz    dz2    dxz    dx2    tot
  1  0.000  0.018  0.019  0.000  0.000  0.000  0.000  0.000  0.000  0.037
  2  0.000  0.019  0.018  0.000  0.000  0.000  0.000  0.000  0.000  0.037
tot  0.000  0.037  0.037  0.000  0.000  0.000  0.000  0.000  0.000  0.074
 

 k-point    7 :   -0.18750000 0.06250000 0.06250000     weight = 0.01171875

band   1 # energy   -5.49394869 # occ.  1.00000000
 
ion      s     py     pz     px    dxy    dyz    dz2    dxz    dx2    tot
  1  0.209  0.001  0.001  0.004  0.000  0.000  0.000  0.000  0.000  0.216
  2  0.209  0.001  0.001  0.004  0.000  0.000  0.000  0.000  0.000  0.216
tot  0.418  0.003  0.003  0.008  0.000  0.000  0.000  0.000  0.000  0.433
 
band   2 # energy    2.09400265 # occ.  1.00000000
 
ion      s     py     pz     px    dxy    dyz    dz2    dxz    dx2    tot
  1  0.098  0.038  0.038  0.044  0.000  0.000  0.000  0.000  0.000  0.218
  2  0.098  0.038  0.038  0.044  0.000  0.000  0.000  0.000  0.000  0.218
tot  0.195  0.077  0.077  0.087  0.000  0.000  0.000  0.000  0.000  0.436
 
band   3 # energy    4.62717799 # occ.  1.00000000
 
ion      s     py     pz     px    dxy    dyz    dz2    dxz    dx2    tot
  1  0.000  0.103  0.103  0.000  0.000  0.000  0.000  0.000  0.000  0.205
  2  0.000  0.103  0.103  0.000  0.000  0.000  0.000  0.000  0.000  0.205
tot  0.000  0.205  0.205  0.000  0.000  0.000  0.000  0.000  0.000  0.410
 
band   4 # energy    4.82315955 # occ.  1.00000000
 
ion      s     py     pz     px    dxy    dyz    dz2    dxz    dx2    tot
  1  0.017  0.036  0.036  0.125  0.000  0.000  0.000  0.000  0.000  0.213
  2  0.017  0.036  0.036  0.125  0.000  0.000  0.000  0.000  0.000  0.213
tot  0.033  0.071  0.071  0.249  0.000  0.000  0.000  0.000  0.000  0.425
 
band   5 # energy    7.93903901 # occ.  0.00000000
 
ion      s     py     pz     px    dxy    dyz    dz2    dxz    dx2    tot
  1  0.115  0.020  0.020  0.038  0.000  0.000  0.000  0.000  0.000  0.194
  2  0.115  0.020  0.020  0.038  0.000  0.000  0.000  0.000  0.000  0.194
tot  0.229  0.041  0.041  0.077  0.000  0.000  0.000  0.000  0.000  0.388
 
band   6 # energy    8.76074680 # occ.  0.00000000
 
ion      s     py     pz     px    dxy    dyz    dz2    dxz    dx2    tot
  1  0.021  0.035  0.035  0.063  0.000  0.000  0.000  0.000  0.000  0.153
  2  0.021  0.035  0.035  0.063  0.000  0.000  0.000  0.000  0.000  0.153
tot  0.041  0.070  0.070  0.125  0.000  0.000  0.000  0.000  0.000  0.306
 
band   7 # energy    9.47359037 # occ.  0.00000000
 
ion      s     py     pz     px    dxy    dyz    dz2    dxz    dx2    tot
  1  0.000  0.074  0.074  0.000  0.000  0.000  0.000  0.000  0.000  0.147
  2  0.000  0.074  0.074  0.000  0.000  0.000  0.000  0.000  0.000  0.147
tot  0.000  0.147  0.147  0.000  0.000  0.000  0.000  0.000  0.000  0.295
 
band   8 # energy   11.33185685 # occ.  0.00000000
 
ion      s     py     pz     px    dxy    dyz    dz2    dxz    dx2    tot
  1  0.054  0.022  0.022  0.032  0.000  0.000  0.000  0.000  0.000  0.130
  2  0.054  0.022  0.022  0.032  0.000  0.000  0.000  0.000  0.000  0.130
tot  0.107  0.045  0.045  0.064  0.000  0.000  0.000  0.000  0.000  0.260
 
band   9 # energy   12.82601894 # occ.  0.00000000
 
ion      s     py     pz     px    dxy    dyz    dz2    dxz    dx2    tot
  1  0.073  0.019  0.019  0.040  0.000  0.000  0.000  0.000  0.000  0.151
  2  0.073  0.019  0.019  0.040  0.000  0.000  0.000  0.000  0.000  0.151
tot  0.145  0.039  0.039  0.079  0.000  0.000  0.000  0.000  0.000  0.302
 
band  10 # energy   13.28304967 # occ.  0.00000000
 
ion      s     py     pz     px    dxy    dyz    dz2    dxz    dx2    tot
  1  0.000  0.006  0.006  0.000  0.000  0.000  0.000  0.000  0.000  0.013
  2  0.000  0.006  0.006  0.000  0.000  0.000  0.000  0.000  0.000  0.013
tot  0.000  0.013  0.013  0.000  0.000  0.000  0.000  0.000  0.000  0.026
 

 k-point    8 :   -0.06250000 0.06250000 0.06250000     weight = 0.01171875

band   1 # energy   -6.01689584 # occ.  1.00000000
 
ion      s     py     pz     px    dxy    dyz    dz2    dxz    dx2    tot
  1  0.211  0.000  0.000  0.002  0.000  0.000  0.000  0.000  0.000  0.213
  2  0.211  0.000  0.000  0.002  0.000  0.000  0.000  0.000  0.000  0.213
tot  0.422  0.000  0.000  0.003  0.000  0.000  0.000  0.000  0.000  0.426
 
band   2 # energy    4.33008732 # occ.  1.00000000
 
ion      s     py     pz     px    dxy    dyz    dz2    dxz    dx2    tot
  1  0.066  0.038  0.038  0.084  0.000  0.000  0.000  0.000  0.000  0.225
  2  0.066  0.038  0.038  0.084  0.000  0.000  0.000  0.000  0.000  0.225
tot  0.131  0.076  0.076  0.168  0.000  0.000  0.000  0.000  0.000  0.450
 
band   3 # energy    5.10530576 # occ.  1.00000000
 
ion      s     py     pz     px    dxy    dyz    dz2    dxz    dx2    tot
  1  0.000  0.103  0.103  0.000  0.000  0.000  0.000  0.000  0.000  0.205
  2  0.000  0.103  0.103  0.000  0.000  0.000  0.000  0.000  0.000  0.205
tot  0.000  0.205  0.205  0.000  0.000  0.000  0.000  0.000  0.000  0.411
 
band   4 # energy    5.26273773 # occ.  1.00000000
 
ion      s     py     pz     px    dxy    dyz    dz2    dxz    dx2    tot
  1  0.011  0.057  0.057  0.088  0.000  0.000  0.000  0.000  0.000  0.213
  2  0.011  0.057  0.057  0.088  0.000  0.000  0.000  0.000  0.000  0.213
tot  0.021  0.115  0.115  0.176  0.000  0.000  0.000  0.000  0.000  0.427
 
band   5 # energy    8.00417046 # occ.  0.00000000
 
ion      s     py     pz     px    dxy    dyz    dz2    dxz    dx2    tot
  1  0.015  0.005  0.005  0.122  0.000  0.000  0.000  0.000  0.000  0.147
  2  0.015  0.005  0.005  0.122  0.000  0.000  0.000  0.000  0.000  0.147
tot  0.030  0.010  0.010  0.244  0.000  0.000  0.000  0.000  0.000  0.295
 
band   6 # energy    8.57341416 # occ.  0.00000000
 
ion      s     py     pz     px    dxy    dyz    dz2    dxz    dx2    tot
  1  0.068  0.060  0.060  0.004  0.000  0.000  0.000  0.000  0.000  0.192
  2  0.068  0.060  0.060  0.004  0.000  0.000  0.000  0.000  0.000  0.192
tot  0.137  0.119  0.119  0.009  0.000  0.000  0.000  0.000  0.000  0.384
 
band   7 # energy    8.86470545 # occ.  0.00000000
 
ion      s     py     pz     px    dxy    dyz    dz2    dxz    dx2    tot
  1  0.000  0.080  0.080  0.000  0.000  0.000  0.000  0.000  0.000  0.159
  2  0.000  0.080  0.080  0.000  0.000  0.000  0.000  0.000  0.000  0.159
tot  0.000  0.159  0.159  0.000  0.000  0.000  0.000  0.000  0.000  0.318
 
band   8 # energy    9.88353516 # occ.  0.00000000
 
ion      s     py     pz     px    dxy    dyz    dz2    dxz    dx2    tot
  1  0.204  0.020  0.020  0.053  0.000  0.000  0.000  0.000  0.000  0.296
  2  0.204  0.020  0.020  0.053  0.000  0.000  0.000  0.000  0.000  0.296
tot  0.408  0.040  0.040  0.105  0.000  0.000  0.000  0.000  0.000  0.592
 
band   9 # energy   12.45241816 # occ.  0.00000000
 
ion      s     py     pz     px    dxy    dyz    dz2    dxz    dx2    tot
  1  0.008  0.000  0.000  0.000  0.000  0.000  0.000  0.000  0.000  0.009
  2  0.008  0.000  0.000  0.000  0.000  0.000  0.000  0.000  0.000  0.009
tot  0.016  0.001  0.001  0.000  0.000  0.000  0.000  0.000  0.000  0.018
 
band  10 # energy   13.33240362 # occ.  0.00000000
 
ion      s     py     pz     px    dxy    dyz    dz2    dxz    dx2    tot
  1  0.000  0.000  0.000  0.000  0.000  0.000  0.000  0.000  0.000  0.001
  2  0.000  0.000  0.000  0.000  0.000  0.000  0.000  0.000  0.000  0.001
tot  0.000  0.001  0.001  0.000  0.000  0.000  0.000  0.000  0.000  0.002
 

 k-point    9 :    0.18750000 0.18750000 0.06250000     weight = 0.01171875

band   1 # energy   -5.75052472 # occ.  1.00000000
 
ion      s     py     pz     px    dxy    dyz    dz2    dxz    dx2    tot
  1  0.210  0.000  0.004  0.000  0.000  0.000  0.000  0.000  0.000  0.215
  2  0.210  0.000  0.004  0.000  0.000  0.000  0.000  0.000  0.000  0.215
tot  0.420  0.000  0.009  0.000  0.000  0.000  0.000  0.000  0.000  0.429
 
band   2 # energy    3.43809933 # occ.  1.00000000
 
ion      s     py     pz     px    dxy    dyz    dz2    dxz    dx2    tot
  1  0.104  0.022  0.089  0.022  0.000  0.000  0.000  0.000  0.000  0.237
  2  0.104  0.022  0.089  0.022  0.000  0.000  0.000  0.000  0.000  0.237
tot  0.209  0.043  0.179  0.043  0.000  0.000  0.000  0.000  0.000  0.474
 
band   3 # energy    4.55182868 # occ.  1.00000000
 
ion      s     py     pz     px    dxy    dyz    dz2    dxz    dx2    tot
  1  0.000  0.100  0.000  0.100  0.000  0.000  0.000  0.000  0.000  0.200
  2  0.000  0.100  0.000  0.100  0.000  0.000  0.000  0.000  0.000  0.200
tot  0.000  0.200  0.000  0.200  0.000  0.000  0.000  0.000  0.000  0.400
 
band   4 # energy    4.63426792 # occ.  1.00000000
 