<?xml version="1.0" encoding="ISO-8859-1"?>
<modeling>
 <generator>
  <i name="program" type="string">vasp </i>
  <i name="version" type="string">5.2.2  </i>
  <i name="subversion" type="string">15Apr09 complex  parallel </i>
  <i name="platform" type="string">unknown </i>
  <i name="date" type="string">2013 09 21 </i>
  <i name="time" type="string">11:51:49 </i>
 </generator>
 <incar>
  <i type="string" name="SYSTEM"> Rubyvaspy :: si</i>
  <i type="string" name="PREC">accurate</i>
  <i type="string" name="ALGO"> Fast</i>
  <i type="int" name="ISPIN">     2</i>
  <i type="int" name="ICHARG">     0</i>
  <i type="int" name="NELM">   100</i>
  <i type="int" name="NELMIN">     3</i>
  <i type="int" name="IBRION">    -1</i>
  <i name="EDIFF">      0.00000200</i>
  <i type="int" name="NSW">     0</i>
  <i type="int" name="ISIF">     3</i>
  <i name="ENCUT">    520.00000000</i>
  <v name="MAGMOM">      0.60000000      0.60000000</v>
  <i type="string" name="LREAL"> Auto</i>
  <i type="int" name="ISMEAR">    -5</i>
  <i name="SIGMA">      0.05000000</i>
  <i type="logical" name="LWAVE"> F  </i>
  <i type="logical" name="LCHARG"> T  </i>
  <i type="logical" name="LORBIT"> F  </i>
  <i type="logical" name="LAECHG"> T  </i>
  <i type="int" name="NELM">   100</i>
  <i type="logical" name="LPEAD"> F  </i>
  <i type="logical" name="LCALCPOL"> F  </i>
  <i type="logical" name="LCALCEPS"> F  </i>
  <v name="EFIELD_PEAD">      0.00000000      0.00000000      0.00000000</v>
  <i type="logical" name="LEFG"> F  </i>
 </incar>
 <kpoints>
  <generation param="Monkhorst-Pack">
   <v type="int" name="divisions">       8        8        8 </v>
   <v name="usershift">      0.00000000       0.00000000       0.00000000 </v>
   <v name="genvec1">      0.12500000       0.00000000       0.00000000 </v>
   <v name="genvec2">      0.00000000       0.12500000       0.00000000 </v>
   <v name="genvec3">      0.00000000       0.00000000       0.12500000 </v>
   <v name="shift">      0.50000000       0.50000000       0.50000000 </v>
  </generation>
  <varray name="kpointlist" >
   <v>       0.06250000       0.06250000       0.06250000 </v>
   <v>       0.18750000       0.06250000       0.06250000 </v>
   <v>       0.31250000       0.06250000       0.06250000 </v>
   <v>       0.43750000       0.06250000       0.06250000 </v>
   <v>      -0.43750000       0.06250000       0.06250000 </v>
   <v>      -0.31250000       0.06250000       0.06250000 </v>
   <v>      -0.18750000       0.06250000       0.06250000 </v>
   <v>      -0.06250000       0.06250000       0.06250000 </v>
   <v>       0.18750000       0.18750000       0.06250000 </v>
   <v>       0.31250000       0.18750000       0.06250000 </v>
   <v>       0.43750000       0.18750000       0.06250000 </v>
   <v>      -0.43750000       0.18750000       0.06250000 </v>
   <v>      -0.31250000       0.18750000       0.06250000 </v>
   <v>      -0.18750000       0.18750000       0.06250000 </v>
   <v>      -0.06250000       0.18750000       0.06250000 </v>
   <v>       0.31250000       0.31250000       0.06250000 </v>
   <v>       0.43750000       0.31250000       0.06250000 </v>
   <v>      -0.43750000       0.31250000       0.06250000 </v>
   <v>      -0.31250000       0.31250000       0.06250000 </v>
   <v>      -0.18750000       0.31250000       0.06250000 </v>
   <v>      -0.06250000       0.31250000       0.06250000 </v>
   <v>       0.43750000       0.43750000       0.06250000 </v>
   <v>      -0.43750000       0.43750000       0.06250000 </v>
   <v>      -0.31250000       0.43750000       0.06250000 </v>
   <v>      -0.18750000       0.43750000       0.06250000 </v>
   <v>      -0.06250000       0.43750000       0.06250000 </v>
   <v>      -0.43750000      -0.43750000       0.06250000 </v>
   <v>      -0.31250000      -0.43750000       0.06250000 </v>
   <v>      -0.18750000      -0.43750000       0.06250000 </v>
   <v>      -0.31250000      -0.31250000       0.06250000 </v>
   <v>      -0.18750000      -0.31250000       0.06250000 </v>
   <v>      -0.18750000      -0.18750000       0.06250000 </v>
   <v>       0.18750000       0.18750000       0.18750000 </v>
   <v>       0.31250000       0.18750000       0.18750000 </v>
   <v>       0.43750000       0.18750000       0.18750000 </v>
   <v>      -0.43750000       0.18750000       0.18750000 </v>
   <v>      -0.31250000       0.18750000       0.18750000 </v>
   <v>      -0.18750000       0.18750000       0.18750000 </v>
   <v>       0.31250000       0.31250000       0.18750000 </v>
   <v>       0.43750000       0.31250000       0.18750000 </v>
   <v>      -0.43750000       0.31250000       0.18750000 </v>
   <v>      -0.31250000       0.31250000       0.18750000 </v>
   <v>      -0.18750000       0.31250000       0.18750000 </v>
   <v>       0.43750000       0.43750000       0.18750000 </v>
   <v>      -0.43750000       0.43750000       0.18750000 </v>
   <v>      -0.31250000       0.43750000       0.18750000 </v>
   <v>      -0.18750000       0.43750000       0.18750000 </v>
   <v>      -0.43750000      -0.43750000       0.18750000 </v>
   <v>      -0.31250000      -0.43750000       0.18750000 </v>
   <v>      -0.31250000      -0.31250000       0.18750000 </v>
   <v>       0.31250000       0.31250000       0.31250000 </v>
   <v>       0.43750000       0.31250000       0.31250000 </v>
   <v>      -0.43750000       0.31250000       0.31250000 </v>
   <v>      -0.31250000       0.31250000       0.31250000 </v>
   <v>       0.43750000       0.43750000       0.31250000 </v>
   <v>      -0.43750000       0.43750000       0.31250000 </v>
   <v>      -0.31250000       0.43750000       0.31250000 </v>
   <v>      -0.43750000      -0.43750000       0.31250000 </v>
   <v>       0.43750000       0.43750000       0.43750000 </v>
   <v>      -0.43750000       0.43750000       0.43750000 </v>
  </varray>
  <varray name="weights" >
   <v>       0.00390625 </v>
   <v>       0.01171875 </v>
   <v>       0.01171875 </v>
   <v>       0.01171875 </v>
   <v>       0.01171875 </v>
   <v>       0.01171875 </v>
   <v>       0.01171875 </v>
   <v>       0.01171875 </v>
   <v>       0.01171875 </v>
   <v>       0.02343750 </v>
   <v>       0.02343750 </v>
   <v>       0.02343750 </v>
   <v>       0.02343750 </v>
   <v>       0.02343750 </v>
   <v>       0.02343750 </v>
   <v>       0.01171875 </v>
   <v>       0.02343750 </v>
   <v>       0.02343750 </v>
   <v>       0.02343750 </v>
   <v>       0.02343750 </v>
   <v>       0.02343750 </v>
   <v>       0.01171875 </v>
   <v>       0.02343750 </v>
   <v>       0.02343750 </v>
   <v>       0.02343750 </v>
   <v>       0.02343750 </v>
   <v>       0.01171875 </v>
   <v>       0.02343750 </v>
   <v>       0.02343750 </v>
   <v>       0.01171875 </v>
   <v>       0.02343750 </v>
   <v>       0.01171875 </v>
   <v>       0.00390625 </v>
   <v>       0.01171875 </v>
   <v>       0.01171875 </v>
   <v>       0.01171875 </v>
   <v>       0.01171875 </v>
   <v>       0.01171875 </v>
   <v>       0.01171875 </v>
   <v>       0.02343750 </v>
   <v>       0.02343750 </v>
   <v>       0.02343750 </v>
   <v>       0.02343750 </v>
   <v>       0.01171875 </v>
   <v>       0.02343750 </v>
   <v>       0.02343750 </v>
   <v>       0.02343750 </v>
   <v>       0.01171875 </v>
   <v>       0.02343750 </v>
   <v>       0.01171875 </v>
   <v>       0.00390625 </v>
   <v>       0.01171875 </v>
   <v>       0.01171875 </v>
   <v>       0.01171875 </v>
   <v>       0.01171875 </v>
   <v>       0.02343750 </v>
   <v>       0.02343750 </v>
   <v>       0.01171875 </v>
   <v>       0.00390625 </v>
   <v>       0.01171875 </v>
  </varray>
  <varray name="tetrahedronlist"  type="int" >
   <v type="int" >       24        1        2        8       33 </v>
   <v type="int" >       24        2        7        8       15 </v>
   <v type="int" >       24        7        8        9       15 </v>
   <v type="int" >       24        2        7        8       33 </v>
   <v type="int" >       24        9       10       15       39 </v>
   <v type="int" >       24        9       10       32       39 </v>
   <v type="int" >       24        7        9       15       39 </v>
   <v type="int" >       24       10       31       32       38 </v>
   <v type="int" >       24       16       31       32       38 </v>
   <v type="int" >       24       10       32       38       39 </v>
   <v type="int" >       24       16       17       31       44 </v>
   <v type="int" >       24       16       17       30       44 </v>
   <v type="int" >       24       16       31       38       44 </v>
   <v type="int" >       24       17       28       30       50 </v>
   <v type="int" >       24       22       28       30       50 </v>
   <v type="int" >       24       17       30       44       50 </v>
   <v type="int" >       24       22       23       28       48 </v>
   <v type="int" >       24       22       23       27       48 </v>
   <v type="int" >       24       22       28       48       50 </v>
   <v type="int" >       24       23       23       27       48 </v>
   <v type="int" >       24       23       27       27       48 </v>
   <v type="int" >       24       23       27       48       48 </v>
   <v type="int" >       24       23       27       28       50 </v>
   <v type="int" >       24       22       27       28       50 </v>
   <v type="int" >       24       23       27       48       50 </v>
   <v type="int" >       24       17       22       28       44 </v>
   <v type="int" >       24       17       22       30       44 </v>
   <v type="int" >       24       22       28       44       50 </v>
   <v type="int" >       24       17       30       31       38 </v>
   <v type="int" >       24       16       30       31       38 </v>
   <v type="int" >       24       17       30       38       44 </v>
   <v type="int" >       24       10       16       31       39 </v>
   <v type="int" >       24       10       16       32       39 </v>
   <v type="int" >       24       16       31       38       39 </v>
   <v type="int" >       24        7       10       15       32 </v>
   <v type="int" >       24        7        9       15       32 </v>
   <v type="int" >       24        7       10       32       39 </v>
   <v type="int" >       24        2        9       15       33 </v>
   <v type="int" >       24        2        8        9       33 </v>
   <v type="int" >       24        7        9       15       33 </v>
   <v type="int" >       36        2        2        8        8 </v>
   <v type="int" >       48        1        2        8        8 </v>
   <v type="int" >       24        2        2        8       33 </v>
   <v type="int" >       24        1        1        2        8 </v>
   <v type="int" >       24        1        2        2        8 </v>
   <v type="int" >       24        2        3       15       34 </v>
   <v type="int" >       24        2        3        7       15 </v>
   <v type="int" >       24        2        3        7       33 </v>
   <v type="int" >       24       14       15       21       34 </v>
   <v type="int" >       24       10       14       15       21 </v>
   <v type="int" >       24       10       15       21       39 </v>
   <v type="int" >       24        3       15       21       34 </v>
   <v type="int" >       24        3        7       15       21 </v>
   <v type="int" >       24        7       15       21       39 </v>
   <v type="int" >       24       10       11       14       40 </v>
   <v type="int" >       24       10       11       31       40 </v>
   <v type="int" >       24       10       11       31       38 </v>
   <v type="int" >       24       10       11       14       21 </v>
   <v type="int" >       24       10       11       21       39 </v>
   <v type="int" >       24       10       11       38       39 </v>
   <v type="int" >       24       29       31       40       43 </v>
   <v type="int" >       24       17       29       31       43 </v>
   <v type="int" >       24       17       29       31       44 </v>
   <v type="int" >       24       11       29       31       40 </v>
   <v type="int" >       24       11       29       31       38 </v>
   <v type="int" >       24       29       31       38       44 </v>
   <v type="int" >       24       17       18       43       45 </v>
   <v type="int" >       24       17       18       28       45 </v>
   <v type="int" >       24       17       18       28       50 </v>
   <v type="int" >       24       17       18       29       43 </v>
   <v type="int" >       24       17       18       29       44 </v>
   <v type="int" >       24       17       18       44       50 </v>
   <v type="int" >       24       24       28       45       49 </v>
   <v type="int" >       24       23       24       28       49 </v>
   <v type="int" >       24       23       24       28       48 </v>
   <v type="int" >       24       18       24       28       45 </v>
   <v type="int" >       24       18       24       28       50 </v>
   <v type="int" >       24       24       28       48       50 </v>
   <v type="int" >       24       23       24       49       49 </v>
   <v type="int" >       24       23       23       24       49 </v>
   <v type="int" >       24       23       23       24       48 </v>
   <v type="int" >       24       23       24       24       49 </v>
   <v type="int" >       24       23       24       24       48 </v>
   <v type="int" >       24       23       24       48       48 </v>
   <v type="int" >       24       18       23       45       49 </v>
   <v type="int" >       24       18       23       28       45 </v>
   <v type="int" >       24       18       23       28       50 </v>
   <v type="int" >       24       18       23       24       49 </v>
   <v type="int" >       24       18       23       24       48 </v>
   <v type="int" >       24       18       23       48       50 </v>
   <v type="int" >       24       28       29       43       45 </v>
   <v type="int" >       24       17       28       29       43 </v>
   <v type="int" >       24       17       28       29       44 </v>
   <v type="int" >       24       18       28       29       45 </v>
   <v type="int" >       24       18       28       29       50 </v>
   <v type="int" >       24       28       29       44       50 </v>
   <v type="int" >       24       11       17       40       43 </v>
   <v type="int" >       24       11       17       31       40 </v>
   <v type="int" >       24       11       17       31       38 </v>
   <v type="int" >       24       11       17       29       43 </v>
   <v type="int" >       24       11       17       29       44 </v>
   <v type="int" >       24       11       17       38       44 </v>
   <v type="int" >       24       14       21       31       40 </v>
   <v type="int" >       24       10       14       21       31 </v>
   <v type="int" >       24       10       21       31       39 </v>
   <v type="int" >       24       11       21       31       40 </v>
   <v type="int" >       24       11       21       31       38 </v>
   <v type="int" >       24       21       31       38       39 </v>
   <v type="int" >       24        3       10       14       34 </v>
   <v type="int" >       24        3       10       15       34 </v>
   <v type="int" >       24        3        7       10       15 </v>
   <v type="int" >       24        3       10       14       21 </v>
   <v type="int" >       24        3       10       21       39 </v>
   <v type="int" >       24        3        7       10       39 </v>
   <v type="int" >       24        7       15       15       34 </v>
   <v type="int" >       48        2        7       15       15 </v>
   <v type="int" >       48        2        7       15       33 </v>
   <v type="int" >       24        3        7       15       34 </v>
   <v type="int" >       24        3        7        7       15 </v>
   <v type="int" >       24        7        7       15       33 </v>
   <v type="int" >       48        2        9       15       15 </v>
   <v type="int" >       24        2        8        9       15 </v>
   <v type="int" >       48        2        2        8       15 </v>
   <v type="int" >       24        2        2       15       33 </v>
   <v type="int" >       24        8        9        9       15 </v>
   <v type="int" >       24        8        8        9       15 </v>
   <v type="int" >       24        2        8        8       15 </v>
   <v type="int" >       24        8        9       15       15 </v>
   <v type="int" >       24        2        8       15       15 </v>
   <v type="int" >       24       14       34       35       52 </v>
   <v type="int" >       24       14       21       34       52 </v>
   <v type="int" >       24        3       21       34       52 </v>
   <v type="int" >       24       13       14       20       35 </v>
   <v type="int" >       24       13       14       20       40 </v>
   <v type="int" >       24       11       13       14       40 </v>
   <v type="int" >       24       13       14       35       52 </v>
   <v type="int" >       24       13       14       21       52 </v>
   <v type="int" >       24       11       13       14       21 </v>
   <v type="int" >       24       20       40       41       56 </v>
   <v type="int" >       24       40       41       43       56 </v>
   <v type="int" >       24       29       40       43       56 </v>
   <v type="int" >       24       13       20       40       56 </v>
   <v type="int" >       24       11       13       40       56 </v>
   <v type="int" >       24       11       29       40       56 </v>
   <v type="int" >       24       41       42       43       47 </v>
   <v type="int" >       24       42       43       45       47 </v>
   <v type="int" >       24       18       42       43       45 </v>
   <v type="int" >       24       41       42       43       56 </v>
   <v type="int" >       24       29       42       43       56 </v>
   <v type="int" >       24       18       29       42       43 </v>
   <v type="int" >       24       45       46       47       57 </v>
   <v type="int" >       24       45       46       49       57 </v>
   <v type="int" >       24       24       45       49       57 </v>
   <v type="int" >       24       42       45       47       57 </v>
   <v type="int" >       24       18       42       45       57 </v>
   <v type="int" >       24       18       24       45       57 </v>
   <v type="int" >       24       46       46       49       57 </v>
   <v type="int" >       24       46       49       49       57 </v>
   <v type="int" >       24       24       49       49       57 </v>
   <v type="int" >       24       46       49       57       57 </v>
   <v type="int" >       24       24       49       57       57 </v>
   <v type="int" >       24       24       24       49       57 </v>
   <v type="int" >       24       42       46       47       49 </v>
   <v type="int" >       24       42       45       47       49 </v>
   <v type="int" >       24       18       42       45       49 </v>
   <v type="int" >       24       42       46       49       57 </v>
   <v type="int" >       24       24       42       49       57 </v>
   <v type="int" >       24       18       24       42       49 </v>
   <v type="int" >       24       41       45       47       56 </v>
   <v type="int" >       24       41       43       45       56 </v>
   <v type="int" >       24       29       43       45       56 </v>
   <v type="int" >       24       42       45       47       56 </v>
   <v type="int" >       24       18       42       45       56 </v>
   <v type="int" >       24       18       29       45       56 </v>
   <v type="int" >       24       13       20       41       43 </v>
   <v type="int" >       24       13       20       40       43 </v>
   <v type="int" >       24       11       13       40       43 </v>
   <v type="int" >       24       13       41       43       56 </v>
   <v type="int" >       24       13       29       43       56 </v>
   <v type="int" >       24       11       13       29       43 </v>
   <v type="int" >       24       20       35       40       52 </v>
   <v type="int" >       24       14       35       40       52 </v>
   <v type="int" >       24       14       21       40       52 </v>
   <v type="int" >       24       13       20       40       52 </v>
   <v type="int" >       24       11       13       40       52 </v>
   <v type="int" >       24       11       21       40       52 </v>
   <v type="int" >       24       14       14       21       35 </v>
   <v type="int" >       24       14       14       21       34 </v>
   <v type="int" >       24        3       14       21       34 </v>
   <v type="int" >       24       14       21       35       52 </v>
   <v type="int" >       24       14       21       21       52 </v>
   <v type="int" >       24        3       14       21       21 </v>
   <v type="int" >       24       10       14       34       39 </v>
   <v type="int" >       24       10       15       34       39 </v>
   <v type="int" >       24        7       15       34       39 </v>
   <v type="int" >       24       14       21       34       39 </v>
   <v type="int" >       24        3       21       34       39 </v>
   <v type="int" >       24        3        7       34       39 </v>
   <v type="int" >       48       10       10       15       32 </v>
   <v type="int" >       24        9       10       15       32 </v>
   <v type="int" >       48        9       10       15       15 </v>
   <v type="int" >       24       10       10       15       39 </v>
   <v type="int" >       24        7       10       15       39 </v>
   <v type="int" >       24        7       10       15       15 </v>
   <v type="int" >       24        9       10       32       32 </v>
   <v type="int" >       24        9        9       10       32 </v>
   <v type="int" >       24        9        9       10       15 </v>
   <v type="int" >       24        9       10       10       32 </v>
   <v type="int" >       24        9       10       10       15 </v>
   <v type="int" >       24       20       35       36       53 </v>
   <v type="int" >       24       13       20       35       36 </v>
   <v type="int" >       24       13       35       36       52 </v>
   <v type="int" >       24       19       20       25       53 </v>
   <v type="int" >       24       19       20       25       41 </v>
   <v type="int" >       24       20       25       41       56 </v>
   <v type="int" >       24       20       25       36       53 </v>
   <v type="int" >       24       13       20       25       36 </v>
   <v type="int" >       24       13       20       25       56 </v>
   <v type="int" >       24       19       41       42       57 </v>
   <v type="int" >       24       41       42       47       57 </v>
   <v type="int" >       24       41       42       42       47 </v>
   <v type="int" >       24       19       25       41       42 </v>
   <v type="int" >       24       25       41       42       56 </v>
   <v type="int" >       24       41       42       42       56 </v>
   <v type="int" >       72       46       47       47       57 </v>
   <v type="int" >       36       46       46       47       47 </v>
   <v type="int" >       24       42       47       47       57 </v>
   <v type="int" >       12       42       42       47       47 </v>
   <v type="int" >       48       46       46       46       47 </v>
   <v type="int" >       48       46       46       47       57 </v>
   <v type="int" >       72       46       47       57       57 </v>
   <v type="int" >       24       42       46       46       57 </v>
   <v type="int" >       48       42       46       47       57 </v>
   <v type="int" >       24       42       42       46       47 </v>
   <v type="int" >       24       42       46       46       47 </v>
   <v type="int" >       24       42       42       46       57 </v>
   <v type="int" >       24       19       25       47       57 </v>
   <v type="int" >       24       19       25       41       47 </v>
   <v type="int" >       24       25       41       47       56 </v>
   <v type="int" >       24       25       42       47       57 </v>
   <v type="int" >       24       25       42       42       47 </v>
   <v type="int" >       24       25       42       47       56 </v>
   <v type="int" >       24       19       36       41       53 </v>
   <v type="int" >       24       20       36       41       53 </v>
   <v type="int" >       24       13       20       36       41 </v>
   <v type="int" >       24       19       25       36       41 </v>
   <v type="int" >       24       25       36       41       56 </v>
   <v type="int" >       24       13       36       41       56 </v>
   <v type="int" >       24       13       20       20       53 </v>
   <v type="int" >       24       13       20       20       35 </v>
   <v type="int" >       24       13       20       35       52 </v>
   <v type="int" >       24       13       20       36       53 </v>
   <v type="int" >       24       13       13       20       36 </v>
   <v type="int" >       24       13       13       20       52 </v>
   <v type="int" >       24       11       20       35       40 </v>
   <v type="int" >       24       11       14       35       40 </v>
   <v type="int" >       24       11       14       21       35 </v>
   <v type="int" >       24       11       13       20       35 </v>
   <v type="int" >       24       11       13       35       52 </v>
   <v type="int" >       24       11       21       35       52 </v>
   <v type="int" >       24       14       31       38       40 </v>
   <v type="int" >       24       10       14       31       38 </v>
   <v type="int" >       24       10       14       38       39 </v>
   <v type="int" >       24       11       14       38       40 </v>
   <v type="int" >       24       11       14       21       38 </v>
   <v type="int" >       24       14       21       38       39 </v>
   <v type="int" >       48       10       16       31       31 </v>
   <v type="int" >       24       10       16       31       32 </v>
   <v type="int" >       48       10       10       31       32 </v>
   <v type="int" >       24       10       31       31       38 </v>
   <v type="int" >       24       10       31       38       39 </v>
   <v type="int" >       24       10       10       31       39 </v>
   <v type="int" >       24       16       16       31       32 </v>
   <v type="int" >       24       16       31       32       32 </v>
   <v type="int" >       24       10       31       32       32 </v>
   <v type="int" >       24       16       31       31       32 </v>
   <v type="int" >       24       10       31       31       32 </v>
   <v type="int" >       24       19       53       54       58 </v>
   <v type="int" >       24       19       25       53       58 </v>
   <v type="int" >       24       25       36       53       58 </v>
   <v type="int" >       24       18       19       24       54 </v>
   <v type="int" >       24       18       19       24       57 </v>
   <v type="int" >       24       18       19       42       57 </v>
   <v type="int" >       24       18       19       54       58 </v>
   <v type="int" >       24       18       19       25       58 </v>
   <v type="int" >       24       18       19       25       42 </v>
   <v type="int" >       24       45       46       49       49 </v>
   <v type="int" >       24       45       46       46       49 </v>
   <v type="int" >       24       45       46       46       47 </v>
   <v type="int" >       24       45       45       46       49 </v>
   <v type="int" >       24       45       45       46       47 </v>
   <v type="int" >       24       45       46       47       47 </v>
   <v type="int" >       24       18       24       46       49 </v>
   <v type="int" >       24       18       24       46       57 </v>
   <v type="int" >       24       18       42       46       57 </v>
   <v type="int" >       24       18       45       46       49 </v>
   <v type="int" >       24       18       45       46       47 </v>
   <v type="int" >       24       18       42       46       47 </v>
   <v type="int" >       24       24       54       57       58 </v>
   <v type="int" >       24       19       54       57       58 </v>
   <v type="int" >       24       19       25       57       58 </v>
   <v type="int" >       24       18       24       57       58 </v>
   <v type="int" >       24       18       42       57       58 </v>
   <v type="int" >       24       25       42       57       58 </v>
   <v type="int" >       24       19       19       25       54 </v>
   <v type="int" >       24       19       19       25       53 </v>
   <v type="int" >       24       19       25       36       53 </v>
   <v type="int" >       24       19       25       54       58 </v>
   <v type="int" >       24       19       25       25       58 </v>
   <v type="int" >       24       19       25       25       36 </v>
   <v type="int" >       24       19       41       53       56 </v>
   <v type="int" >       24       20       41       53       56 </v>
   <v type="int" >       24       13       20       53       56 </v>
   <v type="int" >       24       19       25       53       56 </v>
   <v type="int" >       24       25       36       53       56 </v>
   <v type="int" >       24       13       36       53       56 </v>
   <v type="int" >       24       20       29       41       43 </v>
   <v type="int" >       24       20       29       40       43 </v>
   <v type="int" >       24       11       20       29       40 </v>
   <v type="int" >       24       20       29       41       56 </v>
   <v type="int" >       24       13       20       29       56 </v>
   <v type="int" >       24       11       13       20       29 </v>
   <v type="int" >       24       17       40       43       44 </v>
   <v type="int" >       24       17       31       40       44 </v>
   <v type="int" >       24       31       38       40       44 </v>
   <v type="int" >       24       29       40       43       44 </v>
   <v type="int" >       24       11       29       40       44 </v>
   <v type="int" >       24       11       38       40       44 </v>
   <v type="int" >       48       17       17       30       31 </v>
   <v type="int" >       24       16       17       30       31 </v>
   <v type="int" >       48       16       17       31       31 </v>
   <v type="int" >       24       17       17       31       44 </v>
   <v type="int" >       24       17       31       38       44 </v>
   <v type="int" >       24       17       31       31       38 </v>
   <v type="int" >       24       16       17       30       30 </v>
   <v type="int" >       24       16       16       17       30 </v>
   <v type="int" >       24       16       16       17       31 </v>
   <v type="int" >       24       16       17       17       30 </v>
   <v type="int" >       24       16       17       17       31 </v>
   <v type="int" >       24       24       48       50       54 </v>
   <v type="int" >       24       18       24       50       54 </v>
   <v type="int" >       24       18       50       54       58 </v>
   <v type="int" >       24       23       23       28       49 </v>
   <v type="int" >       24       23       28       49       49 </v>
   <v type="int" >       24       28       45       49       49 </v>
   <v type="int" >       24       23       28       28       49 </v>
   <v type="int" >       24       28       28       45       49 </v>
   <v type="int" >       24       28       45       45       49 </v>
   <v type="int" >       24       23       48       49       50 </v>
   <v type="int" >       24       24       48       49       50 </v>
   <v type="int" >       24       18       24       49       50 </v>
   <v type="int" >       24       23       28       49       50 </v>
   <v type="int" >       24       28       45       49       50 </v>
   <v type="int" >       24       18       45       49       50 </v>
   <v type="int" >       24       18       24       24       48 </v>
   <v type="int" >       24       18       24       24       54 </v>
   <v type="int" >       24       18       24       54       58 </v>
   <v type="int" >       24       18       24       48       50 </v>
   <v type="int" >       24       18       18       24       50 </v>
   <v type="int" >       24       18       18       24       58 </v>
   <v type="int" >       24       24       42       54       57 </v>
   <v type="int" >       24       19       42       54       57 </v>
   <v type="int" >       24       19       25       42       54 </v>
   <v type="int" >       24       18       24       42       54 </v>
   <v type="int" >       24       18       42       54       58 </v>
   <v type="int" >       24       25       42       54       58 </v>
   <v type="int" >       24       19       42       47       57 </v>
   <v type="int" >       24       19       41       42       47 </v>
   <v type="int" >       24       19       41       42       56 </v>
   <v type="int" >       24       19       42       42       57 </v>
   <v type="int" >       24       19       25       42       42 </v>
   <v type="int" >       24       19       25       42       56 </v>
   <v type="int" >       24       18       41       45       47 </v>
   <v type="int" >       24       18       41       43       45 </v>
   <v type="int" >       24       18       29       41       43 </v>
   <v type="int" >       24       18       41       42       47 </v>
   <v type="int" >       24       18       41       42       56 </v>
   <v type="int" >       24       18       29       41       56 </v>
   <v type="int" >       24       28       43       45       50 </v>
   <v type="int" >       24       17       28       43       50 </v>
   <v type="int" >       24       17       43       44       50 </v>
   <v type="int" >       24       18       43       45       50 </v>
   <v type="int" >       24       18       29       43       50 </v>
   <v type="int" >       24       29       43       44       50 </v>
   <v type="int" >       48       17       22       28       28 </v>
   <v type="int" >       24       17       22       28       30 </v>
   <v type="int" >       48       17       17       28       30 </v>
   <v type="int" >       24       17       28       28       50 </v>
   <v type="int" >       24       17       28       44       50 </v>
   <v type="int" >       24       17       17       28       44 </v>
   <v type="int" >       24       22       22       28       30 </v>
   <v type="int" >       24       22       28       30       30 </v>
   <v type="int" >       24       17       28       30       30 </v>
   <v type="int" >       24       22       28       28       30 </v>
   <v type="int" >       24       17       28       28       30 </v>
   <v type="int" >       24       22       23       27       27 </v>
   <v type="int" >       24       22       23       23       27 </v>
   <v type="int" >       24       22       23       23       28 </v>
   <v type="int" >       24       22       22       23       27 </v>
   <v type="int" >       24       22       22       23       28 </v>
   <v type="int" >       48       22       23       28       28 </v>
   <v type="int" >       48       23       23       27       28 </v>
   <v type="int" >       24       23       23       28       48 </v>
   <v type="int" >       24       23       28       48       50 </v>
   <v type="int" >       24       22       23       27       28 </v>
   <v type="int" >       24       23       28       28       50 </v>
   <v type="int" >       24       23       45       48       49 </v>
   <v type="int" >       24       24       45       48       49 </v>
   <v type="int" >       24       18       24       45       48 </v>
   <v type="int" >       24       23       28       45       48 </v>
   <v type="int" >       24       28       45       48       50 </v>
   <v type="int" >       24       18       45       48       50 </v>
   <v type="int" >       24       24       46       47       49 </v>
   <v type="int" >       24       24       46       47       57 </v>
   <v type="int" >       24       24       42       47       57 </v>
   <v type="int" >       24       24       45       47       49 </v>
   <v type="int" >       24       18       24       45       47 </v>
   <v type="int" >       24       18       24       42       47 </v>
   <v type="int" >       36       46       46       57       57 </v>
   <v type="int" >       24       42       47       57       57 </v>
   <v type="int" >       12       42       42       57       57 </v>
   <v type="int" >       24       22       27       27       27 </v>
   <v type="int" >       24       22       22       27       27 </v>
   <v type="int" >       24       22       22       22       27 </v>
   <v type="int" >       24       23       27       27       28 </v>
   <v type="int" >       24       23       27       28       28 </v>
   <v type="int" >       24       22       27       27       28 </v>
   <v type="int" >       24       22       22       27       28 </v>
   <v type="int" >       24       22       27       28       28 </v>
   <v type="int" >       24       23       23       45       49 </v>
   <v type="int" >       24       23       45       49       49 </v>
   <v type="int" >       24       23       45       45       49 </v>
   <v type="int" >       24       23       23       28       45 </v>
   <v type="int" >       24       23       28       28       45 </v>
   <v type="int" >       24       23       28       45       45 </v>
   <v type="int" >       24       46       47       49       49 </v>
   <v type="int" >       24       46       46       47       49 </v>
   <v type="int" >       24       46       47       47       49 </v>
   <v type="int" >       24       45       47       49       49 </v>
   <v type="int" >       24       45       45       47       49 </v>
   <v type="int" >       24       45       47       47       49 </v>
   <v type="int" >       48       46       46       46       57 </v>
   <v type="int" >       24       24       46       46       49 </v>
   <v type="int" >       24       24       46       49       49 </v>
   <v type="int" >       24       24       24       46       49 </v>
   <v type="int" >       24       24       46       46       57 </v>
   <v type="int" >       24       24       46       57       57 </v>
   <v type="int" >       24       24       24       46       57 </v>
   <v type="int" >       24       23       48       49       49 </v>
   <v type="int" >       24       23       23       48       49 </v>
   <v type="int" >       24       23       48       48       49 </v>
   <v type="int" >       24       24       48       49       49 </v>
   <v type="int" >       24       24       24       48       49 </v>
   <v type="int" >       24       24       48       48       49 </v>
   <v type="int" >       72       23       23       23       27 </v>
   <v type="int" >       60       23       23       27       27 </v>
   <v type="int" >       24       23       23       23       48 </v>
   <v type="int" >       12       23       23       48       48 </v>
   <v type="int" >       48       23       27       27       27 </v>
   <v type="int" >       24       24       48       54       58 </v>
   <v type="int" >       24       18       24       48       58 </v>
   <v type="int" >       24       18       48       50       58 </v>
   <v type="int" >       24       19       24       25       54 </v>
   <v type="int" >       24       19       24       25       57 </v>
   <v type="int" >       24       24       25       42       57 </v>
   <v type="int" >       24       24       25       54       58 </v>
   <v type="int" >       24       18       24       25       58 </v>
   <v type="int" >       24       18       24       25       42 </v>
   <v type="int" >       24       19       41       56       57 </v>
   <v type="int" >       24       41       47       56       57 </v>
   <v type="int" >       24       42       47       56       57 </v>
   <v type="int" >       24       19       25       56       57 </v>
   <v type="int" >       24       25       42       56       57 </v>
   <v type="int" >       24       42       42       56       57 </v>
   <v type="int" >       24       29       41       43       47 </v>
   <v type="int" >       24       29       43       45       47 </v>
   <v type="int" >       24       18       29       45       47 </v>
   <v type="int" >       24       29       41       47       56 </v>
   <v type="int" >       24       29       42       47       56 </v>
   <v type="int" >       24       18       29       42       47 </v>
   <v type="int" >       24       17       43       44       45 </v>
   <v type="int" >       24       17       28       44       45 </v>
   <v type="int" >       24       28       44       45       50 </v>
   <v type="int" >       24       29       43       44       45 </v>
   <v type="int" >       24       18       29       44       45 </v>
   <v type="int" >       24       18       44       45       50 </v>
   <v type="int" >       24       17       22       30       30 </v>
   <v type="int" >       24       17       22       22       30 </v>
   <v type="int" >       24       17       22       22       28 </v>
   <v type="int" >       24       17       17       22       30 </v>
   <v type="int" >       24       17       17       22       28 </v>
   <v type="int" >       24       19       36       53       54 </v>
   <v type="int" >       24       19       25       36       54 </v>
   <v type="int" >       24       25       36       54       58 </v>
   <v type="int" >       24       13       19       20       53 </v>
   <v type="int" >       24       13       19       20       41 </v>
   <v type="int" >       24       13       19       41       56 </v>
   <v type="int" >       24       13       19       36       53 </v>
   <v type="int" >       24       13       19       25       36 </v>
   <v type="int" >       24       13       19       25       56 </v>
   <v type="int" >       24       11       20       40       41 </v>
   <v type="int" >       24       11       40       41       43 </v>
   <v type="int" >       24       11       29       41       43 </v>
   <v type="int" >       24       11       13       20       41 </v>
   <v type="int" >       24       11       13       41       56 </v>
   <v type="int" >       24       11       29       41       56 </v>
   <v type="int" >       24       31       38       40       43 </v>
   <v type="int" >       24       17       31       38       43 </v>
   <v type="int" >       24       17       38       43       44 </v>
   <v type="int" >       24       11       38       40       43 </v>
   <v type="int" >       24       11       29       38       43 </v>
   <v type="int" >       24       29       38       43       44 </v>
   <v type="int" >       24       16       16       30       31 </v>
   <v type="int" >       24       16       30       30       31 </v>
   <v type="int" >       24       17       30       30       31 </v>
   <v type="int" >       24       16       30       31       31 </v>
   <v type="int" >       24       17       30       31       31 </v>
   <v type="int" >       24       20       35       52       53 </v>
   <v type="int" >       24       13       20       52       53 </v>
   <v type="int" >       24       13       36       52       53 </v>
   <v type="int" >       24       14       20       21       35 </v>
   <v type="int" >       24       14       20       21       40 </v>
   <v type="int" >       24       11       20       21       40 </v>
   <v type="int" >       24       20       21       35       52 </v>
   <v type="int" >       24       13       20       21       52 </v>
   <v type="int" >       24       11       13       20       21 </v>
   <v type="int" >       24       10       14       39       40 </v>
   <v type="int" >       24       10       31       39       40 </v>
   <v type="int" >       24       31       38       39       40 </v>
   <v type="int" >       24       14       21       39       40 </v>
   <v type="int" >       24       11       21       39       40 </v>
   <v type="int" >       24       11       38       39       40 </v>
   <v type="int" >       24       10       16       32       32 </v>
   <v type="int" >       24       10       16       16       32 </v>
   <v type="int" >       24       10       16       16       31 </v>
   <v type="int" >       24       10       10       16       32 </v>
   <v type="int" >       24       10       10       16       31 </v>
   <v type="int" >       24        3       14       34       35 </v>
   <v type="int" >       24        3       14       21       35 </v>
   <v type="int" >       24        3       21       35       52 </v>
   <v type="int" >       24        7       14       15       34 </v>
   <v type="int" >       24        7       10       14       15 </v>
   <v type="int" >       24        7       10       14       39 </v>
   <v type="int" >       24        3        7       14       34 </v>
   <v type="int" >       24        3        7       14       21 </v>
   <v type="int" >       24        7       14       21       39 </v>
   <v type="int" >       24        9        9       15       32 </v>
   <v type="int" >       24        9       15       32       32 </v>
   <v type="int" >       24       10       15       32       32 </v>
   <v type="int" >       24        9       15       15       32 </v>
   <v type="int" >       24       10       15       15       32 </v>
   <v type="int" >       24        2       15       33       34 </v>
   <v type="int" >       24        7       15       33       34 </v>
   <v type="int" >       24        3        7       33       34 </v>
   <v type="int" >       24        2        8        8        9 </v>
   <v type="int" >       24        2        8        9        9 </v>
   <v type="int" >       24        2        9        9       15 </v>
   <v type="int" >       24        2        2        8        9 </v>
   <v type="int" >       24        2        2        9       15 </v>
   <v type="int" >       36        1        1        8        8 </v>
   <v type="int" >       48        1        8        8        8 </v>
   <v type="int" >       24        2        8        8        8 </v>
   <v type="int" >       24        1        1        1        8 </v>
   <v type="int" >       24        3        7       33       51 </v>
   <v type="int" >       24        3        6        7       21 </v>
   <v type="int" >       24        6        7       21       39 </v>
   <v type="int" >       24        3        6        7       51 </v>
   <v type="int" >       24       11       21       39       55 </v>
   <v type="int" >       24       11       38       39       55 </v>
   <v type="int" >       24        6       21       39       55 </v>
   <v type="int" >       24       11       29       37       38 </v>
   <v type="int" >       24       29       37       38       44 </v>
   <v type="int" >       24       11       37       38       55 </v>
   <v type="int" >       24       18       29       44       58 </v>
   <v type="int" >       24       18       44       50       58 </v>
   <v type="int" >       24       29       37       44       58 </v>
   <v type="int" >       24       24       24       48       54 </v>
   <v type="int" >       24       24       48       48       54 </v>
   <v type="int" >       24       24       48       54       54 </v>
   <v type="int" >       24       18       29       37       50 </v>
   <v type="int" >       24       29       37       44       50 </v>
   <v type="int" >       24       18       37       50       58 </v>
   <v type="int" >       24       11       29       44       55 </v>
   <v type="int" >       24       11       38       44       55 </v>
   <v type="int" >       24       29       37       44       55 </v>
   <v type="int" >       24        6       11       21       38 </v>
   <v type="int" >       24        6       21       38       39 </v>
   <v type="int" >       24        6       11       38       55 </v>
   <v type="int" >       24        3       21       39       51 </v>
   <v type="int" >       24        3        7       39       51 </v>
   <v type="int" >       24        6       21       39       51 </v>
   <v type="int" >       24        3        3        7        7 </v>
   <v type="int" >       24        3        7        7       33 </v>
   <v type="int" >       24        3        3        7       51 </v>
   <v type="int" >       24        2       15       15       34 </v>
   <v type="int" >       24        2        2       15       34 </v>
   <v type="int" >       24        2       15       34       34 </v>
   <v type="int" >       24        3        4       21       52 </v>
   <v type="int" >       24        3        4        6       21 </v>
   <v type="int" >       24        3        4        6       51 </v>
   <v type="int" >       24       13       21       26       52 </v>
   <v type="int" >       24       11       13       21       26 </v>
   <v type="int" >       24       11       21       26       55 </v>
   <v type="int" >       24        4       21       26       52 </v>
   <v type="int" >       24        4        6       21       26 </v>
   <v type="int" >       24        6       21       26       55 </v>
   <v type="int" >       24       11       12       13       56 </v>
   <v type="int" >       24       11       12       29       56 </v>
   <v type="int" >       24       11       12       29       37 </v>
   <v type="int" >       24       11       12       13       26 </v>
   <v type="int" >       24       11       12       26       55 </v>
   <v type="int" >       24       11       12       37       55 </v>
   <v type="int" >       24       25       29       42       56 </v>
   <v type="int" >       24       18       25       29       42 </v>
   <v type="int" >       24       18       25       29       58 </v>
   <v type="int" >       24       12       25       29       56 </v>
   <v type="int" >       24       12       25       29       37 </v>
   <v type="int" >       24       25       29       37       58 </v>
   <v type="int" >       24       19       24       57       57 </v>
   <v type="int" >       24       19       24       24       57 </v>
   <v type="int" >       24       19       24       24       54 </v>
   <v type="int" >       24       19       19       24       57 </v>
   <v type="int" >       24       19       19       24       54 </v>
   <v type="int" >       24       19       24       54       54 </v>
   <v type="int" >       24       12       18       42       56 </v>
   <v type="int" >       24       12       18       29       56 </v>
   <v type="int" >       24       12       18       29       37 </v>
   <v type="int" >       24       12       18       25       42 </v>
   <v type="int" >       24       12       18       25       58 </v>
   <v type="int" >       24       12       18       37       58 </v>
   <v type="int" >       24       13       26       29       56 </v>
   <v type="int" >       24       11       13       26       29 </v>
   <v type="int" >       24       11       26       29       55 </v>
   <v type="int" >       24       12       26       29       56 </v>
   <v type="int" >       24       12       26       29       37 </v>
   <v type="int" >       24       26       29       37       55 </v>
   <v type="int" >       24        4       11       13       52 </v>
   <v type="int" >       24        4       11       21       52 </v>
   <v type="int" >       24        4        6       11       21 </v>
   <v type="int" >       24        4       11       13       26 </v>
   <v type="int" >       24        4       11       26       55 </v>
   <v type="int" >       24        4        6       11       55 </v>
   <v type="int" >       24        6       21       21       52 </v>
   <v type="int" >       48        3        6       21       21 </v>
   <v type="int" >       48        3        6       21       51 </v>
   <v type="int" >       24        4        6       21       52 </v>
   <v type="int" >       24        4        6        6       21 </v>
   <v type="int" >       24        6        6       21       51 </v>
   <v type="int" >       24        3       21       21       39 </v>
   <v type="int" >       24        3        7       21       39 </v>
   <v type="int" >       24        3        3        7       21 </v>
   <v type="int" >       24        3        3       21       51 </v>
   <v type="int" >       24       10       10       14       15 </v>
   <v type="int" >       24       10       14       15       15 </v>
   <v type="int" >       24       14       15       15       34 </v>
   <v type="int" >       24       10       14       14       15 </v>
   <v type="int" >       24       14       14       15       34 </v>
   <v type="int" >       24       14       15       34       34 </v>
   <v type="int" >       24       13       36       52       60 </v>
   <v type="int" >       24       13       26       52       60 </v>
   <v type="int" >       24        4       26       52       60 </v>
   <v type="int" >       24       12       13       25       36 </v>
   <v type="int" >       24       12       13       25       56 </v>
   <v type="int" >       24       12       12       13       56 </v>
   <v type="int" >       24       12       13       36       60 </v>
   <v type="int" >       24       12       13       26       60 </v>
   <v type="int" >       24       12       12       13       26 </v>
   <v type="int" >       24       25       42       56       56 </v>
   <v type="int" >       12       42       42       56       56 </v>
   <v type="int" >       24       12       25       56       56 </v>
   <v type="int" >       12       12       12       56       56 </v>
   <v type="int" >       24       41       47       47       57 </v>
   <v type="int" >       24       41       47       57       57 </v>
   <v type="int" >       24       19       41       57       57 </v>
   <v type="int" >       24       41       41       47       57 </v>
   <v type="int" >       24       19       41       41       57 </v>
   <v type="int" >       24       19       19       41       57 </v>
   <v type="int" >       24       12       25       42       42 </v>
   <v type="int" >       48       12       25       42       56 </v>
   <v type="int" >       24       12       12       42       56 </v>
   <v type="int" >       24       12       42       42       56 </v>
   <v type="int" >       24       12       12       25       42 </v>
   <v type="int" >       24       25       36       56       60 </v>
   <v type="int" >       24       13       36       56       60 </v>
   <v type="int" >       24       13       26       56       60 </v>
   <v type="int" >       24       12       25       56       60 </v>
   <v type="int" >       24       12       12       56       60 </v>
   <v type="int" >       24       12       26       56       60 </v>
   <v type="int" >       24       13       13       26       36 </v>
   <v type="int" >       24       13       13       26       52 </v>
   <v type="int" >       24        4       13       26       52 </v>
   <v type="int" >       24       13       26       36       60 </v>
   <v type="int" >       24       13       26       26       60 </v>
   <v type="int" >       24        4       13       26       26 </v>
   <v type="int" >       24       11       13       52       55 </v>
   <v type="int" >       24       11       21       52       55 </v>
   <v type="int" >       24        6       21       52       55 </v>
   <v type="int" >       24       13       26       52       55 </v>
   <v type="int" >       24        4       26       52       55 </v>
   <v type="int" >       24        4        6       52       55 </v>
   <v type="int" >       24       11       11       21       38 </v>
   <v type="int" >       24       11       21       38       39 </v>
   <v type="int" >       24       11       21       21       39 </v>
   <v type="int" >       24       11       11       21       55 </v>
   <v type="int" >       24        6       11       21       55 </v>
   <v type="int" >       24        6       11       21       21 </v>
   <v type="int" >       24       10       31       31       40 </v>
   <v type="int" >       24       10       10       31       40 </v>
   <v type="int" >       24       10       10       14       40 </v>
   <v type="int" >       24       10       31       40       40 </v>
   <v type="int" >       24       10       14       40       40 </v>
   <v type="int" >       24       10       14       14       40 </v>
   <v type="int" >       24       25       36       37       58 </v>
   <v type="int" >       24       12       25       36       37 </v>
   <v type="int" >       24       12       36       37       60 </v>
   <v type="int" >       24       43       45       45       47 </v>
   <v type="int" >       24       43       45       47       47 </v>
   <v type="int" >       24       41       43       47       47 </v>
   <v type="int" >       24       43       43       45       47 </v>
   <v type="int" >       24       41       43       43       47 </v>
   <v type="int" >       24       41       41       43       47 </v>
   <v type="int" >       24       18       37       42       58 </v>
   <v type="int" >       24       25       37       42       58 </v>
   <v type="int" >       24       12       25       37       42 </v>
   <v type="int" >       24       18       29       37       42 </v>
   <v type="int" >       24       29       37       42       56 </v>
   <v type="int" >       24       12       37       42       56 </v>
   <v type="int" >       24       12       25       25       58 </v>
   <v type="int" >       24       12       25       25       36 </v>
   <v type="int" >       24       12       25       36       60 </v>
   <v type="int" >       24       12       25       37       58 </v>
   <v type="int" >       24       12       12       25       37 </v>
   <v type="int" >       24       12       12       25       60 </v>
   <v type="int" >       24       12       25       36       56 </v>
   <v type="int" >       24       12       13       36       56 </v>
   <v type="int" >       24       12       13       26       36 </v>
   <v type="int" >       24       12       12       25       36 </v>
   <v type="int" >       24       12       12       36       60 </v>
   <v type="int" >       24       12       26       36       60 </v>
   <v type="int" >       24       13       29       37       56 </v>
   <v type="int" >       24       11       13       29       37 </v>
   <v type="int" >       24       11       13       37       55 </v>
   <v type="int" >       24       12       13       37       56 </v>
   <v type="int" >       24       12       13       26       37 </v>
   <v type="int" >       24       13       26       37       55 </v>
   <v type="int" >       24       11       29       29       44 </v>
   <v type="int" >       24       11       29       38       44 </v>
   <v type="int" >       24       11       11       29       38 </v>
   <v type="int" >       24       11       29       29       37 </v>
   <v type="int" >       24       11       29       37       55 </v>
   <v type="int" >       24       11       11       29       55 </v>
   <v type="int" >       24       17       17       31       43 </v>
   <v type="int" >       24       17       31       31       43 </v>
   <v type="int" >       24       31       31       40       43 </v>
   <v type="int" >       24       17       31       43       43 </v>
   <v type="int" >       24       31       40       43       43 </v>
   <v type="int" >       24       31       40       40       43 </v>
   <v type="int" >       24       17       28       28       45 </v>
   <v type="int" >       24       17       28       45       45 </v>
   <v type="int" >       24       17       43       45       45 </v>
   <v type="int" >       24       17       17       28       45 </v>
   <v type="int" >       24       17       17       43       45 </v>
   <v type="int" >       24       17       43       43       45 </v>
   <v type="int" >       24       18       18       29       50 </v>
   <v type="int" >       24       18       18       29       58 </v>
   <v type="int" >       24       18       29       37       58 </v>
   <v type="int" >       24       18       29       44       50 </v>
   <v type="int" >       24       18       29       29       44 </v>
   <v type="int" >       24       18       29       29       37 </v>
   <v type="int" >       24       18       42       56       58 </v>
   <v type="int" >       24       25       42       56       58 </v>
   <v type="int" >       24       12       25       56       58 </v>
   <v type="int" >       24       18       29       56       58 </v>
   <v type="int" >       24       29       37       56       58 </v>
   <v type="int" >       24       12       37       56       58 </v>
   <v type="int" >       12       25       25       42       42 </v>
   <v type="int" >       24       25       25       42       56 </v>
   <v type="int" >       24       12       25       25       56 </v>
   <v type="int" >       12       12       12       25       25 </v>
   <v type="int" >       24       22       22       22       30 </v>
   <v type="int" >       24       22       22       30       30 </v>
   <v type="int" >       24       22       30       30       30 </v>
   <v type="int" >       24       28       28       43       45 </v>
   <v type="int" >       24       28       43       45       45 </v>
   <v type="int" >       24       28       43       43       45 </v>
   <v type="int" >       24       17       28       28       43 </v>
   <v type="int" >       24       17       17       28       43 </v>
   <v type="int" >       24       17       28       43       43 </v>
   <v type="int" >       24       41       45       45       47 </v>
   <v type="int" >       24       41       45       47       47 </v>
   <v type="int" >       24       41       41       45       47 </v>
   <v type="int" >       24       41       43       45       45 </v>
   <v type="int" >       24       41       43       43       45 </v>
   <v type="int" >       24       41       41       43       45 </v>
   <v type="int" >       24       19       47       47       57 </v>
   <v type="int" >       24       19       47       57       57 </v>
   <v type="int" >       24       19       19       47       57 </v>
   <v type="int" >       24       19       41       47       47 </v>
   <v type="int" >       24       19       41       41       47 </v>
   <v type="int" >       24       19       19       41       47 </v>
   <v type="int" >       24       24       54       57       57 </v>
   <v type="int" >       24       24       24       54       57 </v>
   <v type="int" >       24       24       54       54       57 </v>
   <v type="int" >       24       19       54       57       57 </v>
   <v type="int" >       24       19       19       54       57 </v>
   <v type="int" >       24       19       54       54       57 </v>
   <v type="int" >       24       24       24       24       48 </v>
   <v type="int" >       12       24       24       48       48 </v>
   <v type="int" >       24       24       24       24       54 </v>
   <v type="int" >       12       24       24       54       54 </v>
   <v type="int" >       48       23       23       23       49 </v>
   <v type="int" >       48       23       23       49       49 </v>
   <v type="int" >       48       23       49       49       49 </v>
   <v type="int" >       24       25       36       58       60 </v>
   <v type="int" >       24       12       25       58       60 </v>
   <v type="int" >       24       12       37       58       60 </v>
   <v type="int" >       24       13       25       26       36 </v>
   <v type="int" >       24       13       25       26       56 </v>
   <v type="int" >       24       12       25       26       56 </v>
   <v type="int" >       24       25       26       36       60 </v>
   <v type="int" >       24       12       25       26       60 </v>
   <v type="int" >       24       12       12       25       26 </v>
   <v type="int" >       24       11       13       55       56 </v>
   <v type="int" >       24       11       29       55       56 </v>
   <v type="int" >       24       29       37       55       56 </v>
   <v type="int" >       24       13       26       55       56 </v>
   <v type="int" >       24       12       26       55       56 </v>
   <v type="int" >       24       12       37       55       56 </v>
   <v type="int" >       24       17       31       31       40 </v>
   <v type="int" >       24       17       17       31       40 </v>
   <v type="int" >       24       17       17       40       43 </v>
   <v type="int" >       24       17       31       40       40 </v>
   <v type="int" >       24       17       40       40       43 </v>
   <v type="int" >       24       17       40       43       43 </v>
   <v type="int" >       24        4       13       36       52 </v>
   <v type="int" >       24        4       13       26       36 </v>
   <v type="int" >       24        4       26       36       60 </v>
   <v type="int" >       24        6       13       21       52 </v>
   <v type="int" >       24        6       11       13       21 </v>
   <v type="int" >       24        6       11       13       55 </v>
   <v type="int" >       24        4        6       13       52 </v>
   <v type="int" >       24        4        6       13       26 </v>
   <v type="int" >       24        6       13       26       55 </v>
   <v type="int" >       24       10       10       14       31 </v>
   <v type="int" >       24       10       14       31       31 </v>
   <v type="int" >       24       14       31       31       40 </v>
   <v type="int" >       24       10       14       14       31 </v>
   <v type="int" >       24       14       14       31       40 </v>
   <v type="int" >       24       14       31       40       40 </v>
   <v type="int" >       24        3       21       51       52 </v>
   <v type="int" >       24        6       21       51       52 </v>
   <v type="int" >       24        4        6       51       52 </v>
   <v type="int" >       24       10       15       15       34 </v>
   <v type="int" >       24       10       10       15       34 </v>
   <v type="int" >       24       10       10       14       34 </v>
   <v type="int" >       24       10       15       34       34 </v>
   <v type="int" >       24       10       14       34       34 </v>
   <v type="int" >       24       10       14       14       34 </v>
   <v type="int" >       12        2        2       15       15 </v>
   <v type="int" >       24        2       15       15       15 </v>
   <v type="int" >       24       15       15       15       34 </v>
   <v type="int" >       12       15       15       34       34 </v>
   <v type="int" >       24        8        8        8        9 </v>
   <v type="int" >       24        8        8        9        9 </v>
   <v type="int" >       24        8        9        9        9 </v>
   <v type="int" >       24        4        6       51       59 </v>
   <v type="int" >       24        4        5        6       26 </v>
   <v type="int" >       24        5        6       26       55 </v>
   <v type="int" >       24        4        5        6       59 </v>
   <v type="int" >       24       12       26       55       60 </v>
   <v type="int" >       24       12       37       55       60 </v>
   <v type="int" >       24        5       26       55       60 </v>
   <v type="int" >       24       19       19       53       54 </v>
   <v type="int" >       24       19       53       54       54 </v>
   <v type="int" >       24       19       53       53       54 </v>
   <v type="int" >       24        5       12       26       37 </v>
   <v type="int" >       24        5       26       37       55 </v>
   <v type="int" >       24        5       12       37       60 </v>
   <v type="int" >       24        4       26       55       59 </v>
   <v type="int" >       24        4        6       55       59 </v>
   <v type="int" >       24        5       26       55       59 </v>
   <v type="int" >       24        4        4        6        6 </v>
   <v type="int" >       24        4        6        6       51 </v>
   <v type="int" >       24        4        4        6       59 </v>
   <v type="int" >       24       14       14       34       35 </v>
   <v type="int" >       24       14       34       34       35 </v>
   <v type="int" >       24       14       34       35       35 </v>
   <v type="int" >       24        4        5       26       60 </v>
   <v type="int" >       24        4        5        5       26 </v>
   <v type="int" >       24        4        5        5       59 </v>
   <v type="int" >       24       12       26       26       60 </v>
   <v type="int" >       12       12       12       26       26 </v>
   <v type="int" >       48        5       26       26       60 </v>
   <v type="int" >       12        5        5       26       26 </v>
   <v type="int" >       24       19       20       41       41 </v>
   <v type="int" >       24       19       19       20       41 </v>
   <v type="int" >       24       19       19       20       53 </v>
   <v type="int" >       24       19       20       20       41 </v>
   <v type="int" >       24       19       20       20       53 </v>
   <v type="int" >       24       19       20       53       53 </v>
   <v type="int" >       24        5       12       12       60 </v>
   <v type="int" >       72        5       12       26       60 </v>
   <v type="int" >       24        5        5       12       26 </v>
   <v type="int" >       24        5       12       12       26 </v>
   <v type="int" >       24        5        5       12       60 </v>
   <v type="int" >       48        4        5       26       26 </v>
   <v type="int" >       48        4        5       26       59 </v>
   <v type="int" >       24        5        5       26       60 </v>
   <v type="int" >       24        5        5        5       26 </v>
   <v type="int" >       24        5        5       26       59 </v>
   <v type="int" >       24        4       26       26       55 </v>
   <v type="int" >       24        4        6       26       55 </v>
   <v type="int" >       24        4        4        6       26 </v>
   <v type="int" >       24        4        4       26       59 </v>
   <v type="int" >       24       14       20       40       40 </v>
   <v type="int" >       24       14       14       20       40 </v>
   <v type="int" >       24       14       14       20       35 </v>
   <v type="int" >       24       14       20       20       40 </v>
   <v type="int" >       24       14       20       20       35 </v>
   <v type="int" >       24       14       20       35       35 </v>
   <v type="int" >       24       40       41       43       43 </v>
   <v type="int" >       24       40       41       41       43 </v>
   <v type="int" >       24       20       40       41       41 </v>
   <v type="int" >       24       40       40       41       43 </v>
   <v type="int" >       24       20       40       40       41 </v>
   <v type="int" >       24       20       20       40       41 </v>
   <v type="int" >       24       12       12       26       37 </v>
   <v type="int" >       24       12       12       26       60 </v>
   <v type="int" >       24       12       26       37       55 </v>
   <v type="int" >       24       12       26       26       55 </v>
   <v type="int" >       24        5       12       26       26 </v>
   <v type="int" >       12       12       12       60       60 </v>
   <v type="int" >       24       12       26       60       60 </v>
   <v type="int" >       24        5       26       60       60 </v>
   <v type="int" >       12        5        5       60       60 </v>
   <v type="int" >       24       16       30       30       30 </v>
   <v type="int" >       24       16       16       30       30 </v>
   <v type="int" >       24       16       16       16       30 </v>
   <v type="int" >       24       20       41       43       43 </v>
   <v type="int" >       24       20       41       41       43 </v>
   <v type="int" >       24       20       20       41       43 </v>
   <v type="int" >       24       20       40       43       43 </v>
   <v type="int" >       24       20       40       40       43 </v>
   <v type="int" >       24       20       20       40       43 </v>
   <v type="int" >       24       19       41       41       53 </v>
   <v type="int" >       24       19       19       41       53 </v>
   <v type="int" >       24       19       41       53       53 </v>
   <v type="int" >       24       20       41       41       53 </v>
   <v type="int" >       24       20       20       41       53 </v>
   <v type="int" >       24       20       41       53       53 </v>
   <v type="int" >       24       19       19       19       54 </v>
   <v type="int" >       12       19       19       54       54 </v>
   <v type="int" >       24       19       19       19       53 </v>
   <v type="int" >       12       19       19       53       53 </v>
   <v type="int" >       48       46       49       49       49 </v>
   <v type="int" >       48       46       46       49       49 </v>
   <v type="int" >       48       46       46       46       49 </v>
   <v type="int" >       24        4       26       59       60 </v>
   <v type="int" >       24        5       26       59       60 </v>
   <v type="int" >       24        5        5       59       60 </v>
   <v type="int" >       24       14       14       35       40 </v>
   <v type="int" >       24       14       35       40       40 </v>
   <v type="int" >       24       20       35       40       40 </v>
   <v type="int" >       24       14       35       35       40 </v>
   <v type="int" >       24       20       35       35       40 </v>
   <v type="int" >       24       20       20       35       40 </v>
   <v type="int" >       12       14       14       34       34 </v>
   <v type="int" >       24       14       14       14       34 </v>
   <v type="int" >       24       14       14       14       35 </v>
   <v type="int" >       12       14       14       35       35 </v>
   <v type="int" >       24        9        9        9       32 </v>
   <v type="int" >       24        9        9       32       32 </v>
   <v type="int" >       24        9       32       32       32 </v>
   <v type="int" >       12        5        5       59       59 </v>
   <v type="int" >       24       20       20       35       53 </v>
   <v type="int" >       24       20       35       53       53 </v>
   <v type="int" >       24       20       35       35       53 </v>
   <v type="int" >       12        5        5        5        5 </v>
   <v type="int" >       24        5        5        5       59 </v>
   <v type="int" >       24       16       16       16       32 </v>
   <v type="int" >       24       16       16       32       32 </v>
   <v type="int" >       24       16       32       32       32 </v>
   <v type="int" >       24       20       20       20       53 </v>
   <v type="int" >       12       20       20       53       53 </v>
   <v type="int" >       24       20       20       20       35 </v>
   <v type="int" >       12       20       20       35       35 </v>
   <v type="int" >       72       46       46       46       46 </v>
   <v type="int" >       12        1        1        1        1 </v>
   <v type="int" >       36       27       27       27       27 </v>
  </varray>
  <i name="volumeweight">      0.00004069 </i>
 </kpoints>
 <parameters>
  <separator name="general" >
   <i type="string" name="SYSTEM">Rubyvaspy :: si</i>
   <i type="logical" name="LCOMPAT"> F  </i>
  </separator>
  <separator name="electronic" >
   <i type="string" name="PREC">accura</i>
   <i name="ENMAX">    520.00000000</i>
   <i name="ENAUG">    322.06900000</i>
   <i name="EDIFF">      0.00000200</i>
   <i type="int" name="IALGO">    68</i>
   <i type="int" name="IWAVPR">    10</i>
   <i type="int" name="NBANDS">    10</i>
   <i name="NELECT">      8.00000000</i>
   <separator name="electronic smearing" >
    <i type="int" name="ISMEAR">    -5</i>
    <i name="SIGMA">      0.05000000</i>
   </separator>
   <separator name="electronic projectors" >
    <i type="logical" name="LREAL"> T  </i>
    <v name="ROPT">     -0.00025000</v>
    <i type="int" name="LMAXPAW">  -100</i>
    <i type="int" name="LMAXMIX">     2</i>
   </separator>
   <separator name="electronic startup" >
    <i type="int" name="ISTART">     0</i>
    <i type="int" name="ICHARG">     0</i>
    <i type="int" name="INIWAV">     1</i>
   </separator>
   <separator name="electronic spin" >
    <i type="int" name="ISPIN">     2</i>
    <i type="logical" name="LNONCOLLINEAR"> F  </i>
    <v name="MAGMOM">      0.60000000      0.60000000</v>
    <i name="NUPDOWN">     -1.00000000</i>
    <i type="logical" name="LSORBIT"> F  </i>
    <v name="SAXIS">      0.00000000      0.00000000      1.00000000</v>
    <i type="logical" name="LSPIRAL"> F  </i>
    <v name="QSPIRAL">      0.00000000      0.00000000      0.00000000</v>
    <i type="logical" name="LZEROZ"> F  </i>
   </separator>
   <separator name="electronic exchange-correlation" >
    <i type="logical" name="LASPH"> F  </i>
    <i type="logical" name="LMETAGGA"> F  </i>
   </separator>
   <separator name="electronic convergence" >
    <i type="int" name="NELM">   100</i>
    <i type="int" name="NELMDL">    -5</i>
    <i type="int" name="NELMIN">     3</i>
    <i name="ENINI">    520.00000000</i>
    <separator name="electronic convergence detail" >
     <i type="logical" name="LDIAG"> T  </i>
     <i name="WEIMIN">      0.00000000</i>
     <i name="EBREAK">      0.00000006</i>
     <i name="DEPER">      0.30000000</i>
     <i type="int" name="NRMM">     4</i>
     <i name="TIME">      0.40000000</i>
    </separator>
   </separator>
   <separator name="electronic mixer" >
    <i name="AMIX">      0.40000000</i>
    <i name="BMIX">      1.00000000</i>
    <i name="AMIN">      0.10000000</i>
    <i name="AMIX_MAG">      1.60000000</i>
    <i name="BMIX_MAG">      1.00000000</i>
    <separator name="electronic mixer details" >
     <i type="int" name="IMIX">     4</i>
     <i type="int" name="MAXMIX">   -45</i>
     <i name="WC">    100.00000000</i>
     <i type="int" name="INIMIX">     1</i>
     <i type="int" name="MIXPRE">     1</i>
     <i type="int" name="MREMOVE">     5</i>
    </separator>
   </separator>
   <separator name="electronic dipolcorrection" >
    <i type="logical" name="LDIPOL"> F  </i>
    <i type="logical" name="LMONO"> F  </i>
    <i type="int" name="IDIPOL">     0</i>
    <i name="EPSILON">      1.00000000</i>
    <v name="DIPOL">   -100.00000000   -100.00000000   -100.00000000</v>
    <i name="EFIELD">      0.00000000</i>
   </separator>
  </separator>
  <separator name="grids" >
   <i type="int" name="NGX">    30</i>
   <i type="int" name="NGY">    30</i>
   <i type="int" name="NGZ">    30</i>
   <i type="int" name="NGXF">    60</i>
   <i type="int" name="NGYF">    60</i>
   <i type="int" name="NGZF">    60</i>
   <i type="logical" name="ADDGRID"> F  </i>
  </separator>
  <separator name="ionic" >
   <i type="int" name="NSW">     0</i>
   <i type="int" name="IBRION">    -1</i>
   <i type="int" name="ISIF">     3</i>
   <i name="PSTRESS">      0.00000000</i>
   <i name="EDIFFG">      0.00002000</i>
   <i type="int" name="NFREE">     0</i>
   <i name="POTIM">      0.50000000</i>
   <i name="SMASS">     -3.00000000</i>
  </separator>
[...]
        <r>  0.0189  0.0200  0.0201  0.0608  0.0000  0.0000  0.0000  0.0000  0.0000 </r>
       </set>
       <set comment="band 7">
        <r>  0.0000  0.0588  0.0588  0.0000  0.0000  0.0000  0.0000  0.0000  0.0000 </r>
        <r>  0.0000  0.0588  0.0588  0.0000  0.0000  0.0000  0.0000  0.0000  0.0000 </r>
       </set>
       <set comment="band 8">
        <r>  0.0385  0.0291  0.0291  0.0635  0.0000  0.0000  0.0000  0.0000  0.0000 </r>
        <r>  0.0385  0.0291  0.0291  0.0635  0.0000  0.0000  0.0000  0.0000  0.0000 </r>
       </set>
       <set comment="band 9">
        <r>  0.0000  0.0165  0.0165  0.0000  0.0000  0.0000  0.0000  0.0000  0.0000 </r>
        <r>  0.0000  0.0165  0.0165  0.0000  0.0000  0.0000  0.0000  0.0000  0.0000 </r>
       </set>
       <set comment="band 10">
        <r>  0.0238  0.0204  0.0204  0.0105  0.0000  0.0000  0.0000  0.0000  0.0000 </r>
        <r>  0.0239  0.0206  0.0206  0.0104  0.0000  0.0000  0.0000  0.0000  0.0000 </r>
       </set>
      </set>
      <set comment="kpoint 53">
       <set comment="band 1">
        <r>  0.2105  0.0086  0.0086  0.0044  0.0000  0.0000  0.0000  0.0000  0.0000 </r>
        <r>  0.2105  0.0086  0.0086  0.0044  0.0000  0.0000  0.0000  0.0000  0.0000 </r>
       </set>
       <set comment="band 2">
        <r>  0.1572  0.0180  0.0180  0.0391  0.0000  0.0000  0.0000  0.0000  0.0000 </r>
        <r>  0.1572  0.0180  0.0180  0.0391  0.0000  0.0000  0.0000  0.0000  0.0000 </r>
       </set>
       <set comment="band 3">
        <r>  0.0163  0.0375  0.0375  0.0742  0.0000  0.0000  0.0000  0.0000  0.0000 </r>
        <r>  0.0163  0.0375  0.0375  0.0742  0.0000  0.0000  0.0000  0.0000  0.0000 </r>
       </set>
       <set comment="band 4">
        <r>  0.0000  0.1029  0.1029  0.0000  0.0000  0.0000  0.0000  0.0000  0.0000 </r>
        <r>  0.0000  0.1029  0.1029  0.0000  0.0000  0.0000  0.0000  0.0000  0.0000 </r>
       </set>
       <set comment="band 5">
        <r>  0.0602  0.0014  0.0014  0.0542  0.0000  0.0000  0.0000  0.0000  0.0000 </r>
        <r>  0.0602  0.0014  0.0014  0.0542  0.0000  0.0000  0.0000  0.0000  0.0000 </r>
       </set>
       <set comment="band 6">
        <r>  0.0000  0.0690  0.0690  0.0000  0.0000  0.0000  0.0000  0.0000  0.0000 </r>
        <r>  0.0000  0.0690  0.0690  0.0000  0.0000  0.0000  0.0000  0.0000  0.0000 </r>
       </set>
       <set comment="band 7">
        <r>  0.0411  0.0124  0.0124  0.0771  0.0000  0.0000  0.0000  0.0000  0.0000 </r>
        <r>  0.0411  0.0124  0.0124  0.0771  0.0000  0.0000  0.0000  0.0000  0.0000 </r>
       </set>
       <set comment="band 8">
        <r>  0.0562  0.0394  0.0394  0.0478  0.0000  0.0000  0.0000  0.0000  0.0000 </r>
        <r>  0.0562  0.0394  0.0394  0.0478  0.0000  0.0000  0.0000  0.0000  0.0000 </r>
       </set>
       <set comment="band 9">
        <r>  0.0000  0.0107  0.0107  0.0000  0.0000  0.0000  0.0000  0.0000  0.0000 </r>
        <r>  0.0000  0.0107  0.0107  0.0000  0.0000  0.0000  0.0000  0.0000  0.0000 </r>
       </set>
       <set comment="band 10">
        <r>  0.0145  0.0485  0.0485  0.0389  0.0000  0.0000  0.0000  0.0000  0.0000 </r>
        <r>  0.0145  0.0485  0.0485  0.0389  0.0000  0.0000  0.0000  0.0000  0.0000 </r>
       </set>
      </set>
      <set comment="kpoint 54">
       <set comment="band 1">
        <r>  0.2143  0.0064  0.0064  0.0144  0.0000  0.0000  0.0000  0.0000  0.0000 </r>
        <r>  0.2143  0.0064  0.0064  0.0144  0.0000  0.0000  0.0000  0.0000  0.0000 </r>
       </set>
       <set comment="band 2">
        <r>  0.1738  0.0103  0.0103  0.0404  0.0000  0.0000  0.0000  0.0000  0.0000 </r>
        <r>  0.1738  0.0103  0.0103  0.0404  0.0000  0.0000  0.0000  0.0000  0.0000 </r>
       </set>
       <set comment="band 3">
        <r>  0.0058  0.0470  0.0470  0.0564  0.0000  0.0000  0.0000  0.0000  0.0000 </r>
        <r>  0.0058  0.0470  0.0470  0.0564  0.0000  0.0000  0.0000  0.0000  0.0000 </r>
       </set>
       <set comment="band 4">
        <r>  0.0000  0.1001  0.1001  0.0000  0.0000  0.0000  0.0000  0.0000  0.0000 </r>
        <r>  0.0000  0.1001  0.1001  0.0000  0.0000  0.0000  0.0000  0.0000  0.0000 </r>
       </set>
       <set comment="band 5">
        <r>  0.0534  0.0011  0.0011  0.0438  0.0000  0.0000  0.0000  0.0000  0.0000 </r>
        <r>  0.0534  0.0011  0.0011  0.0438  0.0000  0.0000  0.0000  0.0000  0.0000 </r>
       </set>
       <set comment="band 6">
        <r>  0.0122  0.0388  0.0388  0.0054  0.0000  0.0000  0.0000  0.0000  0.0000 </r>
        <r>  0.0122  0.0388  0.0388  0.0054  0.0000  0.0000  0.0000  0.0000  0.0000 </r>
       </set>
       <set comment="band 7">
        <r>  0.0000  0.0687  0.0687  0.0000  0.0000  0.0000  0.0000  0.0000  0.0000 </r>
        <r>  0.0000  0.0687  0.0687  0.0000  0.0000  0.0000  0.0000  0.0000  0.0000 </r>
       </set>
       <set comment="band 8">
        <r>  0.0549  0.0257  0.0257  0.0836  0.0000  0.0000  0.0000  0.0000  0.0000 </r>
        <r>  0.0549  0.0257  0.0257  0.0836  0.0000  0.0000  0.0000  0.0000  0.0000 </r>
       </set>
       <set comment="band 9">
        <r>  0.0441  0.0393  0.0393  0.0712  0.0000  0.0000  0.0000  0.0000  0.0000 </r>
        <r>  0.0441  0.0393  0.0393  0.0712  0.0000  0.0000  0.0000  0.0000  0.0000 </r>
       </set>
       <set comment="band 10">
        <r>  0.0000  0.0146  0.0146  0.0000  0.0000  0.0000  0.0000  0.0000  0.0000 </r>
        <r>  0.0000  0.0146  0.0146  0.0000  0.0000  0.0000  0.0000  0.0000  0.0000 </r>
       </set>
      </set>
      <set comment="kpoint 55">
       <set comment="band 1">
        <r>  0.2120  0.0031  0.0104  0.0031  0.0000  0.0000  0.0000  0.0000  0.0000 </r>
        <r>  0.2120  0.0031  0.0104  0.0031  0.0000  0.0000  0.0000  0.0000  0.0000 </r>
       </set>
       <set comment="band 2">
        <r>  0.1178  0.0305  0.0297  0.0305  0.0000  0.0000  0.0000  0.0000  0.0000 </r>
        <r>  0.1178  0.0305  0.0297  0.0305  0.0000  0.0000  0.0000  0.0000  0.0000 </r>
       </set>
       <set comment="band 3">
        <r>  0.0383  0.0322  0.1017  0.0322  0.0000  0.0000  0.0000  0.0000  0.0000 </r>
        <r>  0.0383  0.0322  0.1017  0.0322  0.0000  0.0000  0.0000  0.0000  0.0000 </r>
       </set>
       <set comment="band 4">
        <r>  0.0000  0.1026  0.0000  0.1026  0.0000  0.0000  0.0000  0.0000  0.0000 </r>
        <r>  0.0000  0.1026  0.0000  0.1026  0.0000  0.0000  0.0000  0.0000  0.0000 </r>
       </set>
       <set comment="band 5">
        <r>  0.0853  0.0050  0.0578  0.0050  0.0000  0.0000  0.0000  0.0000  0.0000 </r>
        <r>  0.0853  0.0050  0.0578  0.0050  0.0000  0.0000  0.0000  0.0000  0.0000 </r>
       </set>
       <set comment="band 6">
        <r>  0.0479  0.0326  0.0322  0.0326  0.0000  0.0000  0.0000  0.0000  0.0000 </r>
        <r>  0.0479  0.0326  0.0322  0.0326  0.0000  0.0000  0.0000  0.0000  0.0000 </r>
       </set>
       <set comment="band 7">
        <r>  0.0000  0.0551  0.0000  0.0552  0.0000  0.0000  0.0000  0.0000  0.0000 </r>
        <r>  0.0000  0.0552  0.0000  0.0551  0.0000  0.0000  0.0000  0.0000  0.0000 </r>
       </set>
       <set comment="band 8">
        <r>  0.0175  0.0350  0.0211  0.0350  0.0000  0.0000  0.0000  0.0000  0.0000 </r>
        <r>  0.0175  0.0350  0.0211  0.0350  0.0000  0.0000  0.0000  0.0000  0.0000 </r>
       </set>
       <set comment="band 9">
        <r>  0.0067  0.0122  0.0234  0.0122  0.0000  0.0000  0.0000  0.0000  0.0000 </r>
        <r>  0.0068  0.0122  0.0236  0.0122  0.0000  0.0000  0.0000  0.0000  0.0000 </r>
       </set>
       <set comment="band 10">
        <r>  0.0003  0.0165  0.0005  0.0139  0.0000  0.0000  0.0000  0.0000  0.0000 </r>
        <r>  0.0003  0.0130  0.0005  0.0174  0.0000  0.0000  0.0000  0.0000  0.0000 </r>
       </set>
      </set>
      <set comment="kpoint 56">
       <set comment="band 1">
        <r>  0.2136  0.0035  0.0132  0.0046  0.0000  0.0000  0.0000  0.0000  0.0000 </r>
        <r>  0.2136  0.0035  0.0132  0.0046  0.0000  0.0000  0.0000  0.0000  0.0000 </r>
       </set>
       <set comment="band 2">
        <r>  0.1401  0.0193  0.0273  0.0320  0.0000  0.0000  0.0000  0.0000  0.0000 </r>
        <r>  0.1401  0.0193  0.0273  0.0320  0.0000  0.0000  0.0000  0.0000  0.0000 </r>
       </set>
       <set comment="band 3">
        <r>  0.0344  0.0323  0.0479  0.0694  0.0000  0.0000  0.0000  0.0000  0.0000 </r>
        <r>  0.0344  0.0323  0.0479  0.0694  0.0000  0.0000  0.0000  0.0000  0.0000 </r>
       </set>
       <set comment="band 4">
        <r>  0.0017  0.1042  0.0522  0.0341  0.0000  0.0000  0.0000  0.0000  0.0000 </r>
        <r>  0.0017  0.1042  0.0522  0.0341  0.0000  0.0000  0.0000  0.0000  0.0000 </r>
       </set>
       <set comment="band 5">
        <r>  0.0552  0.0196  0.0415  0.0213  0.0000  0.0000  0.0000  0.0000  0.0000 </r>
        <r>  0.0552  0.0196  0.0415  0.0213  0.0000  0.0000  0.0000  0.0000  0.0000 </r>
       </set>
       <set comment="band 6">
        <r>  0.0323  0.0369  0.0109  0.0374  0.0000  0.0000  0.0000  0.0000  0.0000 </r>
        <r>  0.0323  0.0369  0.0109  0.0374  0.0000  0.0000  0.0000  0.0000  0.0000 </r>
       </set>
       <set comment="band 7">
        <r>  0.0311  0.0691  0.0458  0.0239  0.0000  0.0000  0.0000  0.0000  0.0000 </r>
        <r>  0.0311  0.0691  0.0458  0.0239  0.0000  0.0000  0.0000  0.0000  0.0000 </r>
       </set>
       <set comment="band 8">
        <r>  0.0140  0.0129  0.0037  0.0588  0.0000  0.0000  0.0000  0.0000  0.0000 </r>
        <r>  0.0140  0.0129  0.0037  0.0588  0.0000  0.0000  0.0000  0.0000  0.0000 </r>
       </set>
       <set comment="band 9">
        <r>  0.0107  0.0386  0.0542  0.0250  0.0000  0.0000  0.0000  0.0000  0.0000 </r>
        <r>  0.0107  0.0386  0.0542  0.0250  0.0000  0.0000  0.0000  0.0000  0.0000 </r>
       </set>
       <set comment="band 10">
        <r>  0.0108  0.0120  0.0359  0.0292  0.0000  0.0000  0.0000  0.0000  0.0000 </r>
        <r>  0.0108  0.0120  0.0359  0.0292  0.0000  0.0000  0.0000  0.0000  0.0000 </r>
       </set>
      </set>
      <set comment="kpoint 57">
       <set comment="band 1">
        <r>  0.2126  0.0023  0.0131  0.0140  0.0000  0.0000  0.0000  0.0000  0.0000 </r>
        <r>  0.2126  0.0023  0.0131  0.0140  0.0000  0.0000  0.0000  0.0000  0.0000 </r>
       </set>
       <set comment="band 2">
        <r>  0.1821  0.0049  0.0173  0.0347  0.0000  0.0000  0.0000  0.0000  0.0000 </r>
        <r>  0.1821  0.0049  0.0173  0.0347  0.0000  0.0000  0.0000  0.0000  0.0000 </r>
       </set>
       <set comment="band 3">
        <r>  0.0051  0.0540  0.0422  0.0559  0.0000  0.0000  0.0000  0.0000  0.0000 </r>
        <r>  0.0051  0.0540  0.0422  0.0559  0.0000  0.0000  0.0000  0.0000  0.0000 </r>
       </set>
       <set comment="band 4">
        <r>  0.0027  0.0852  0.0723  0.0193  0.0000  0.0000  0.0000  0.0000  0.0000 </r>
        <r>  0.0027  0.0852  0.0723  0.0193  0.0000  0.0000  0.0000  0.0000  0.0000 </r>
       </set>
       <set comment="band 5">
        <r>  0.0388  0.0327  0.0101  0.0308  0.0000  0.0000  0.0000  0.0000  0.0000 </r>
        <r>  0.0388  0.0327  0.0101  0.0308  0.0000  0.0000  0.0000  0.0000  0.0000 </r>
       </set>
       <set comment="band 6">
        <r>  0.0152  0.0672  0.0130  0.0146  0.0000  0.0000  0.0000  0.0000  0.0000 </r>
        <r>  0.0152  0.0672  0.0130  0.0146  0.0000  0.0000  0.0000  0.0000  0.0000 </r>
       </set>
       <set comment="band 7">
        <r>  0.0333  0.0314  0.0436  0.0240  0.0000  0.0000  0.0000  0.0000  0.0000 </r>
        <r>  0.0333  0.0314  0.0436  0.0240  0.0000  0.0000  0.0000  0.0000  0.0000 </r>
       </set>
       <set comment="band 8">
        <r>  0.0353  0.0290  0.0424  0.0408  0.0000  0.0000  0.0000  0.0000  0.0000 </r>
        <r>  0.0353  0.0290  0.0424  0.0408  0.0000  0.0000  0.0000  0.0000  0.0000 </r>
       </set>
       <set comment="band 9">
        <r>  0.0125  0.0359  0.0349  0.0611  0.0000  0.0000  0.0000  0.0000  0.0000 </r>
        <r>  0.0125  0.0359  0.0349  0.0611  0.0000  0.0000  0.0000  0.0000  0.0000 </r>
       </set>
       <set comment="band 10">
        <r>  0.0181  0.0167  0.0621  0.0166  0.0000  0.0000  0.0000  0.0000  0.0000 </r>
        <r>  0.0181  0.0167  0.0621  0.0166  0.0000  0.0000  0.0000  0.0000  0.0000 </r>
       </set>
      </set>
      <set comment="kpoint 58">
       <set comment="band 1">
        <r>  0.2159  0.0041  0.0154  0.0041  0.0000  0.0000  0.0000  0.0000  0.0000 </r>
        <r>  0.2159  0.0041  0.0154  0.0041  0.0000  0.0000  0.0000  0.0000  0.0000 </r>
       </set>
       <set comment="band 2">
        <r>  0.1501  0.0190  0.0341  0.0190  0.0000  0.0000  0.0000  0.0000  0.0000 </r>
        <r>  0.1501  0.0190  0.0341  0.0190  0.0000  0.0000  0.0000  0.0000  0.0000 </r>
       </set>
       <set comment="band 3">
        <r>  0.0249  0.0409  0.0663  0.0409  0.0000  0.0000  0.0000  0.0000  0.0000 </r>
        <r>  0.0249  0.0409  0.0663  0.0409  0.0000  0.0000  0.0000  0.0000  0.0000 </r>
       </set>
       <set comment="band 4">
        <r>  0.0000  0.1005  0.0000  0.1005  0.0000  0.0000  0.0000  0.0000  0.0000 </r>
        <r>  0.0000  0.1005  0.0000  0.1005  0.0000  0.0000  0.0000  0.0000  0.0000 </r>
       </set>
       <set comment="band 5">
        <r>  0.0536  0.0015  0.0473  0.0015  0.0000  0.0000  0.0000  0.0000  0.0000 </r>
        <r>  0.0536  0.0015  0.0473  0.0015  0.0000  0.0000  0.0000  0.0000  0.0000 </r>
       </set>
       <set comment="band 6">
        <r>  0.0170  0.0334  0.0111  0.0334  0.0000  0.0000  0.0000  0.0000  0.0000 </r>
        <r>  0.0170  0.0334  0.0111  0.0334  0.0000  0.0000  0.0000  0.0000  0.0000 </r>
       </set>
       <set comment="band 7">
        <r>  0.0000  0.0572  0.0000  0.0572  0.0000  0.0000  0.0000  0.0000  0.0000 </r>
        <r>  0.0000  0.0572  0.0000  0.0572  0.0000  0.0000  0.0000  0.0000  0.0000 </r>
       </set>
       <set comment="band 8">
        <r>  0.0626  0.0375  0.0612  0.0375  0.0000  0.0000  0.0000  0.0000  0.0000 </r>
        <r>  0.0626  0.0375  0.0612  0.0375  0.0000  0.0000  0.0000  0.0000  0.0000 </r>
       </set>
       <set comment="band 9">
        <r>  0.0227  0.0300  0.0877  0.0300  0.0000  0.0000  0.0000  0.0000  0.0000 </r>
        <r>  0.0227  0.0300  0.0877  0.0300  0.0000  0.0000  0.0000  0.0000  0.0000 </r>
       </set>
       <set comment="band 10">
        <r>  0.0000  0.0247  0.0000  0.0247  0.0000  0.0000  0.0000  0.0000  0.0000 </r>
        <r>  0.0000  0.0247  0.0000  0.0247  0.0000  0.0000  0.0000  0.0000  0.0000 </r>
       </set>
      </set>
      <set comment="kpoint 59">
       <set comment="band 1">
        <r>  0.2182  0.0047  0.0047  0.0047  0.0000  0.0000  0.0000  0.0000  0.0000 </r>
        <r>  0.2182  0.0047  0.0047  0.0047  0.0000  0.0000  0.0000  0.0000  0.0000 </r>
       </set>
       <set comment="band 2">
        <r>  0.1042  0.0307  0.0307  0.0307  0.0000  0.0000  0.0000  0.0000  0.0000 </r>
        <r>  0.1042  0.0307  0.0307  0.0307  0.0000  0.0000  0.0000  0.0000  0.0000 </r>
       </set>
       <set comment="band 3">
        <r>  0.0000  0.1075  0.0000  0.1075  0.0000  0.0000  0.0000  0.0000  0.0000 </r>
        <r>  0.0000  0.1075  0.0000  0.1075  0.0000  0.0000  0.0000  0.0000  0.0000 </r>
       </set>
       <set comment="band 4">
        <r>  0.0000  0.0358  0.1433  0.0358  0.0000  0.0000  0.0000  0.0000  0.0000 </r>
        <r>  0.0000  0.0358  0.1433  0.0358  0.0000  0.0000  0.0000  0.0000  0.0000 </r>
       </set>
       <set comment="band 5">
        <r>  0.1830  0.0075  0.0075  0.0075  0.0000  0.0000  0.0000  0.0000  0.0000 </r>
        <r>  0.1830  0.0075  0.0075  0.0075  0.0000  0.0000  0.0000  0.0000  0.0000 </r>
       </set>
       <set comment="band 6">
        <r>  0.0000  0.0163  0.0652  0.0163  0.0000  0.0000  0.0000  0.0000  0.0000 </r>
        <r>  0.0000  0.0163  0.0652  0.0163  0.0000  0.0000  0.0000  0.0000  0.0000 </r>
       </set>
       <set comment="band 7">
        <r>  0.0000  0.0489  0.0000  0.0488  0.0000  0.0000  0.0000  0.0000  0.0000 </r>
        <r>  0.0000  0.0489  0.0000  0.0488  0.0000  0.0000  0.0000  0.0000  0.0000 </r>
       </set>
       <set comment="band 8">
        <r>  0.0045  0.0201  0.0201  0.0201  0.0000  0.0000  0.0000  0.0000  0.0000 </r>
        <r>  0.0045  0.0201  0.0201  0.0201  0.0000  0.0000  0.0000  0.0000  0.0000 </r>
       </set>
       <set comment="band 9">
        <r>  0.0000  0.0135  0.0018  0.0242  0.0000  0.0000  0.0000  0.0000  0.0000 </r>
        <r>  0.0000  0.0135  0.0018  0.0242  0.0000  0.0000  0.0000  0.0000  0.0000 </r>
       </set>
       <set comment="band 10">
        <r>  0.0000  0.0127  0.0248  0.0021  0.0000  0.0000  0.0000  0.0000  0.0000 </r>
        <r>  0.0000  0.0131  0.0242  0.0023  0.0000  0.0000  0.0000  0.0000  0.0000 </r>
       </set>
      </set>
      <set comment="kpoint 60">
       <set comment="band 1">
        <r>  0.2210  0.0053  0.0053  0.0055  0.0000  0.0000  0.0000  0.0000  0.0000 </r>
        <r>  0.2210  0.0053  0.0053  0.0055  0.0000  0.0000  0.0000  0.0000  0.0000 </r>
       </set>
       <set comment="band 2">
        <r>  0.1104  0.0281  0.0281  0.0323  0.0000  0.0000  0.0000  0.0000  0.0000 </r>
        <r>  0.1104  0.0281  0.0281  0.0323  0.0000  0.0000  0.0000  0.0000  0.0000 </r>
       </set>
       <set comment="band 3">
        <r>  0.0367  0.0322  0.0322  0.0991  0.0000  0.0000  0.0000  0.0000  0.0000 </r>
        <r>  0.0367  0.0322  0.0322  0.0991  0.0000  0.0000  0.0000  0.0000  0.0000 </r>
       </set>
       <set comment="band 4">
        <r>  0.0000  0.1049  0.1049  0.0000  0.0000  0.0000  0.0000  0.0000  0.0000 </r>
        <r>  0.0000  0.1049  0.1049  0.0000  0.0000  0.0000  0.0000  0.0000  0.0000 </r>
       </set>
       <set comment="band 5">
        <r>  0.1064  0.0016  0.0016  0.0575  0.0000  0.0000  0.0000  0.0000  0.0000 </r>
        <r>  0.1064  0.0016  0.0016  0.0575  0.0000  0.0000  0.0000  0.0000  0.0000 </r>
       </set>
       <set comment="band 6">
        <r>  0.0333  0.0252  0.0252  0.0414  0.0000  0.0000  0.0000  0.0000  0.0000 </r>
        <r>  0.0333  0.0252  0.0252  0.0414  0.0000  0.0000  0.0000  0.0000  0.0000 </r>
       </set>
       <set comment="band 7">
        <r>  0.0000  0.0511  0.0511  0.0000  0.0000  0.0000  0.0000  0.0000  0.0000 </r>
        <r>  0.0000  0.0511  0.0511  0.0000  0.0000  0.0000  0.0000  0.0000  0.0000 </r>
       </set>
       <set comment="band 8">
        <r>  0.0012  0.0353  0.0353  0.0559  0.0000  0.0000  0.0000  0.0000  0.0000 </r>
        <r>  0.0012  0.0353  0.0353  0.0559  0.0000  0.0000  0.0000  0.0000  0.0000 </r>
       </set>
       <set comment="band 9">
        <r>  0.0153  0.0256  0.0256  0.0197  0.0000  0.0000  0.0000  0.0000  0.0000 </r>
        <r>  0.0153  0.0256  0.0256  0.0197  0.0000  0.0000  0.0000  0.0000  0.0000 </r>
       </set>
       <set comment="band 10">
        <r>  0.0000  0.0233  0.0233  0.0000  0.0000  0.0000  0.0000  0.0000  0.0000 </r>
        <r>  0.0000  0.0233  0.0233  0.0000  0.0000  0.0000  0.0000  0.0000  0.0000 </r>
       </set>
      </set>
     </set>
    </set>
   </array>
  </projected>
 </calculation>
 <structure name="finalpos" >
  <crystal>
   <varray name="basis" >
    <v>       0.00000000       2.73477200       2.73477200 </v>
    <v>       2.73477200       0.00000000       2.73477200 </v>
    <v>       2.73477200       2.73477200       0.00000000 </v>
   </varray>
   <i name="volume">     40.90659866 </i>
   <varray name="rec_basis" >
    <v>      -0.18283060       0.18283060       0.18283060 </v>
    <v>       0.18283060      -0.18283060       0.18283060 </v>
    <v>       0.18283060       0.18283060      -0.18283060 </v>
   </varray>
  </crystal>
  <varray name="positions" >
   <v>       0.00000000       0.00000000       0.00000000 </v>
   <v>       0.25000000       0.25000000       0.25000000 </v>
  </varray>
 </structure>
</modeling>
