unknown system                          
   1.00000000000000     
     0.000000    2.000087    2.000087
     2.000087    0.000000    2.000087
     2.000087    2.000087    0.000000
   Li   H 
     1     1
Direct
  0.000000  0.000000  0.000000
  0.500000  0.500000  0.500000
 
   48   48   48
 0.17018493207E+03 0.16505860087E+03 0.15052016661E+03 0.12887871023E+03 0.10334626777E+03
 0.77305215135E+02 0.53631241342E+02 0.34245636720E+02 0.19967227709E+02 0.10628395169E+02
 0.53550548915E+01 0.29014551006E+01 0.19604190149E+01 0.15217031575E+01 0.12851064329E+01
 0.11632763428E+01 0.11080309945E+01 0.10916518771E+01 0.10966879726E+01 0.11112704182E+01
 0.11274726241E+01 0.11408281971E+01 0.11497648435E+01 0.11545481913E+01 0.11560092334E+01
 0.11545481913E+01 0.11497648435E+01 0.11408281971E+01 0.11274726241E+01 0.11112704182E+01
 0.10966879726E+01 0.10916518771E+01 0.11080309945E+01 0.11632763428E+01 0.12851064329E+01
 0.15217031575E+01 0.19604190149E+01 0.29014551006E+01 0.53550548915E+01 0.10628395169E+02
 0.19967227709E+02 0.34245636720E+02 0.53631241342E+02 0.77305215135E+02 0.10334626777E+03
 0.12887871023E+03 0.15052016661E+03 0.16505860087E+03 0.16505860087E+03 0.15522990078E+03
 0.13716723072E+03 0.11366122756E+03 0.88034703372E+02 0.63425344985E+02 0.42218545207E+02
 0.25753630205E+02 0.14317674617E+02 0.73538163492E+01 0.37753564076E+01 0.22903889033E+01
 0.16956195077E+01 0.13789022575E+01 0.12110804805E+01 0.11288833627E+01 0.10968289305E+01
 0.10935546808E+01 0.11049357123E+01 0.11212863744E+01 0.11365337646E+01 0.11478050960E+01
 0.11546198595E+01 0.11576769939E+01 0.11576769939E+01 0.11546198595E+01 0.11478050960E+01
 0.11365337646E+01 0.11212863744E+01 0.11049357123E+01 0.10935546808E+01 0.10968289305E+01
 0.11288833627E+01 0.12110804805E+01 0.13789022575E+01 0.16956195077E+01 0.22903889033E+01
 0.37753564076E+01 0.73538163492E+01 0.14317674617E+02 0.25753630205E+02 0.42218545207E+02
 0.63425344985E+02 0.88034703372E+02 0.11366122756E+03 0.13716723072E+03 0.15522990078E+03
 0.16505860087E+03 0.15052016661E+03 0.13716723072E+03 0.11730314031E+03 0.93892380022E+02
 0.70054085563E+02 0.48435763921E+02 0.30799031016E+02 0.17882362022E+02 0.95084056261E+01
 0.48441760892E+01 0.27139759375E+01 0.18917159802E+01 0.14881489123E+01 0.12700213444E+01
 0.11582148758E+01 0.11086205659E+01 0.10954902016E+01 0.11023696292E+01 0.11179646026E+01
 0.11347259379E+01 0.11484273566E+01 0.11576107938E+01 0.11625596884E+01 0.11640808683E+01
 0.11625596884E+01 0.11576107938E+01 0.11484273566E+01 0.11347259379E+01 0.11179646026E+01
 0.11023696292E+01 0.10954902016E+01 0.11086205659E+01 0.11582148758E+01 0.12700213444E+01
 0.14881489123E+01 0.18917159802E+01 0.27139759375E+01 0.48441760892E+01 0.95084056261E+01
 0.17882362022E+02 0.30799031016E+02 0.48435763921E+02 0.70054085563E+02 0.93892380022E+02
 0.11730314031E+03 0.13716723072E+03 0.15052016661E+03 0.15522990078E+03 0.12887871023E+03
 0.11366122756E+03 0.93892380022E+02 0.72399615754E+02 0.51846366407E+02 0.34246595391E+02
 0.20712982512E+02 0.11451296616E+02 0.59398143572E+01 0.32025096097E+01 0.20951828469E+01
 0.16048977120E+01 0.13359605993E+01 0.11937786635E+01 0.11258607999E+01 0.11019898466E+01
 0.11034044186E+01 0.11173925322E+01 0.11351605261E+01 0.11512303743E+01 0.11630652663E+01
 0.11702931193E+01 0.11735833254E+01 0.11735833254E+01 0.11702931193E+01 0.11630652663E+01
 0.11512303743E+01 0.11351605261E+01 0.11173925322E+01 0.11034044186E+01 0.11019898466E+01
 0.11258607999E+01 0.11937786635E+01 0.13359605993E+01 0.16048977120E+01 0.20951828469E+01
 0.32025096097E+01 0.59398143572E+01 0.11451296616E+02 0.20712982512E+02 0.34246595391E+02
 0.51846366407E+02 0.72399615754E+02 0.93892380022E+02 0.11366122756E+03 0.12887871023E+03
 0.13716723072E+03 0.13716723072E+03 0.10334626777E+03 0.88034703372E+02 0.70054085563E+02
 0.51846366407E+02 0.35471976755E+02 0.22281431122E+02 0.12806120797E+02 0.68440358922E+01
 0.36701462254E+01 0.22938051660E+01 0.17176247418E+01 0.14028430847E+01 0.12322281659E+01
 0.11466676931E+01 0.11120474918E+01 0.11075447854E+01 0.11192809338E+01 0.11375120745E+01
 0.11557339908E+01 0.11703770940E+01 0.11802723541E+01 0.11857164895E+01 0.11874201641E+01
 0.11857164895E+01 0.11802723541E+01 0.11703770940E+01 0.11557339908E+01 0.11375120745E+01
 0.11192809338E+01 0.11075447854E+01 0.11120474918E+01 0.11466676931E+01 0.12322281659E+01
 0.14028430847E+01 0.17176247418E+01 0.22938051660E+01 0.36701462254E+01 0.68440358922E+01
 0.12806120797E+02 0.22281431122E+02 0.35471976755E+02 0.51846366407E+02 0.70054085563E+02
 0.88034703372E+02 0.10334626777E+03 0.11366122756E+03 0.11730314031E+03 0.11366122756E+03
 0.77305215135E+02 0.63425344985E+02 0.48435763921E+02 0.34246595391E+02 0.22281431122E+02
 0.13292296356E+02 0.73559995901E+01 0.40095340202E+01 0.24599981824E+01 0.18125365811E+01
 0.14631605666E+01 0.12693066690E+01 0.11685322198E+01 0.11241813995E+01 0.11139412409E+01
 0.11231140707E+01 0.11413367253E+01 0.11613818201E+01 0.11788233211E+01 0.11916831699E+01
 0.11997168796E+01 0.12034767003E+01 0.12034767003E+01 0.11997168796E+01 0.11916831699E+01
 0.11788233211E+01 0.11613818201E+01 0.11413367253E+01 0.11231140707E+01 0.11139412409E+01
 0.11241813995E+01 0.11685322198E+01 0.12693066690E+01 0.14631605666E+01 0.18125365811E+01
 0.24599981824E+01 0.40095340202E+01 0.73559995901E+01 0.13292296356E+02 0.22281431122E+02
 0.34246595391E+02 0.48435763921E+02 0.63425344985E+02 0.77305215135E+02 0.88034703372E+02
 0.93892380022E+02 0.93892380022E+02 0.88034703372E+02 0.53631241342E+02 0.42218545207E+02
 0.30799031016E+02 0.20712982512E+02 0.12806120797E+02 0.73559995901E+01 0.41337304498E+01
 0.25560170148E+01 0.18761638623E+01 0.15090573268E+01 0.13003420435E+01 0.11885635709E+01
 0.11365591089E+01 0.11214374718E+01 0.11281482882E+01 0.11460615285E+01 0.11675591885E+01
 0.11876228892E+01 0.12035806105E+01 0.12145861346E+01 0.12208489621E+01 0.12228605251E+01
 0.12208489621E+01 0.12145861346E+01 0.12035806105E+01 0.11876228892E+01 0.11675591885E+01
 0.11460615285E+01 0.11281482882E+01 0.11214374718E+01 0.11365591089E+01 0.11885635709E+01
 0.13003420435E+01 0.15090573268E+01 0.18761638623E+01 0.25560170148E+01 0.41337304498E+01
 0.73559995901E+01 0.12806120797E+02 0.20712982512E+02 0.30799031016E+02 0.42218545207E+02
 0.53631241342E+02 0.63425344985E+02 0.70054085563E+02 0.72399615754E+02 0.70054085563E+02
 0.63425344985E+02 0.34245636720E+02 0.25753630205E+02 0.17882362022E+02 0.11451296616E+02
 0.68440358922E+01 0.40095340202E+01 0.25560170148E+01 0.18985918477E+01 0.15339101269E+01
 0.13210243056E+01 0.12039002543E+01 0.11472323260E+01 0.11287028278E+01 0.11334766399E+01
 0.11510167392E+01 0.11736355198E+01 0.11960193512E+01 0.12150109773E+01 0.12292211532E+01
 0.12384195958E+01 0.12428824351E+01 0.12428824351E+01 0.12384195958E+01 0.12292211532E+01
 0.12150109773E+01 0.11960193512E+01 0.11736355198E+01 0.11510167392E+01 0.11334766399E+01
 0.11287028278E+01 0.11472323260E+01 0.12039002543E+01 0.13210243056E+01 0.15339101269E+01
 0.18985918477E+01 0.25560170148E+01 0.40095340202E+01 0.68440358922E+01 0.11451296616E+02
 0.17882362022E+02 0.25753630205E+02 0.34245636720E+02 0.42218545207E+02 0.48435763921E+02
 0.51846366407E+02 0.51846366407E+02 0.48435763921E+02 0.42218545207E+02 0.19967227709E+02
 0.14317674617E+02 0.95084056261E+01 0.59398143572E+01 0.36701462254E+01 0.24599981824E+01
 0.18761638623E+01 0.15339101269E+01 0.13282889863E+01 0.12122210365E+01 0.11544538255E+01
 0.11344349725E+01 0.11381518775E+01 0.11555071590E+01 0.11790225599E+01 0.12033667399E+01
 0.12251460580E+01 0.12425833544E+01 0.12550221285E+01 0.12623996622E+01 0.12648369389E+01
 0.12623996622E+01 0.12550221285E+01 0.12425833544E+01 0.12251460580E+01 0.12033667399E+01
 0.11790225599E+01 0.11555071590E+01 0.11381518775E+01 0.11344349725E+01 0.11544538255E+01
 0.12122210365E+01 0.13282889863E+01 0.15339101269E+01 0.18761638623E+01 0.24599981824E+01
 0.36701462254E+01 0.59398143572E+01 0.95084056261E+01 0.14317674617E+02 0.19967227709E+02
 0.25753630205E+02 0.30799031016E+02 0.34246595391E+02 0.35471976755E+02 0.34246595391E+02
 0.30799031016E+02 0.25753630205E+02 0.10628395169E+02 0.73538163492E+01 0.48441760892E+01
 0.32025096097E+01 0.22938051660E+01 0.18125365811E+01 0.15090573268E+01 0.13210243056E+01
 0.12122210365E+01 0.11570065953E+01 0.11375912610E+01 0.11413405675E+01 0.11589032860E+01
 0.11832290725E+01 0.12091883738E+01 0.12333834025E+01 0.12538515372E+01 0.12696218987E+01
 0.12802730462E+01 0.12856315333E+01 0.12856315333E+01 0.12802730462E+01 0.12696218987E+01
 0.12538515372E+01 0.12333834025E+01 0.12091883738E+01 0.11832290725E+01 0.11589032860E+01
 0.11413405675E+01 0.11375912610E+01 0.11570065953E+01 0.12122210365E+01 0.13210243056E+01
 0.15090573268E+01 0.18125365811E+01 0.22938051660E+01 0.32025096097E+01 0.48441760892E+01
 0.73538163492E+01 0.10628395169E+02 0.14317674617E+02 0.17882362022E+02 0.20712982512E+02
 0.22281431122E+02 0.22281431122E+02 0.20712982512E+02 0.17882362022E+02 0.14317674617E+02
 0.53550548915E+01 0.37753564076E+01 0.27139759375E+01 0.20951828469E+01 0.17176247418E+01
 0.14631605666E+01 0.13003420435E+01 0.12039002543E+01 0.11544538255E+01 0.11375912610E+01
 0.11424712387E+01 0.11607291837E+01 0.11858958986E+01 0.12131879176E+01 0.12393758705E+01
 0.12625034882E+01 0.12814517039E+01 0.12955217282E+01 0.13042022336E+01 0.13071393427E+01
 0.13042022336E+01 0.12955217282E+01 0.12814517039E+01 0.12625034882E+01 0.12393758705E+01
 0.12131879176E+01 0.11858958986E+01 0.11607291837E+01 0.11424712387E+01 0.11375912610E+01
 0.11544538255E+01 0.12039002543E+01 0.13003420435E+01 0.14631605666E+01 0.17176247418E+01
 0.20951828469E+01 0.27139759375E+01 0.37753564076E+01 0.53550548915E+01 0.73538163492E+01
 0.95084056261E+01 0.11451296616E+02 0.12806120797E+02 0.13292296356E+02 0.12806120797E+02
 0.11451296616E+02 0.95084056261E+01 0.73538163492E+01 0.29014551006E+01 0.22903889033E+01
 0.18917159802E+01 0.16048977120E+01 0.14028430847E+01 0.12693066690E+01 0.11885635709E+01
 0.11472323260E+01 0.11344349725E+01 0.11413405675E+01 0.11607291837E+01 0.11868084549E+01
 0.12152156394E+01 0.12429846850E+01 0.12683003010E+01 0.12900572302E+01 0.13074228868E+01
 0.13196107168E+01 0.13259190357E+01 0.13259190357E+01 0.13196107168E+01 0.13074228868E+01
 0.12900572302E+01 0.12683003010E+01 0.12429846850E+01 0.12152156394E+01 0.11868084549E+01
 0.11607291837E+01 0.11413405675E+01 0.11344349725E+01 0.11472323260E+01 0.11885635709E+01
 0.12693066690E+01 0.14028430847E+01 0.16048977120E+01 0.18917159802E+01 0.22903889033E+01
 0.29014551006E+01 0.37753564076E+01 0.48441760892E+01 0.59398143572E+01 0.68440358922E+01
 0.73559995901E+01 0.73559995901E+01 0.68440358922E+01 0.59398143572E+01 0.48441760892E+01
 0.37753564076E+01 0.19604190149E+01 0.16956195077E+01 0.14881489123E+01 0.13359605993E+01
 0.12322281659E+01 0.11685322198E+01 0.11365591089E+01 0.11287028278E+01 0.11381518775E+01
 0.11589032860E+01 0.11858958986E+01 0.12152156394E+01 0.12441862992E+01 0.12711909144E+01
 0.12952458132E+01 0.13155309394E+01 0.13311184805E+01 0.13410115412E+01 0.13444116666E+01
 0.13410115412E+01 0.13311184805E+01 0.13155309394E+01 0.12952458132E+01 0.12711909144E+01
 0.12441862992E+01 0.12152156394E+01 0.11858958986E+01 0.11589032860E+01 0.11381518775E+01
 0.11287028278E+01 0.11365591089E+01 0.11685322198E+01 0.12322281659E+01 0.13359605993E+01
 0.14881489123E+01 0.16956195077E+01 0.19604190149E+01 0.22903889033E+01 0.27139759375E+01
 0.32025096097E+01 0.36701462254E+01 0.40095340202E+01 0.41337304498E+01 0.40095340202E+01
 0.36701462254E+01 0.32025096097E+01 0.27139759375E+01 0.22903889033E+01 0.15217031575E+01
 0.13789022575E+01 0.12700213444E+01 0.11937786635E+01 0.11466676931E+01 0.11241813995E+01
 0.11214374718E+01 0.11334766399E+01 0.11555071590E+01 0.11832290725E+01 0.12131879176E+01
 0.12429846850E+01 0.12711909144E+01 0.12969751561E+01 0.13196249592E+01 0.13382156555E+01
 0.13515888717E+01 0.13586237124E+01 0.13586237124E+01 0.13515888717E+01 0.13382156555E+01
 0.13196249592E+01 0.12969751561E+01 0.12711909144E+01 0.12429846850E+01 0.12131879176E+01
 0.11832290725E+01 0.11555071590E+01 0.11334766399E+01 0.11214374718E+01 0.11241813995E+01
 0.11466676931E+01 0.11937786635E+01 0.12700213444E+01 0.13789022575E+01 0.15217031575E+01
 0.16956195077E+01 0.18917159802E+01 0.20951828469E+01 0.22938051660E+01 0.24599981824E+01
 0.25560170148E+01 0.25560170148E+01 0.24599981824E+01 0.22938051660E+01 0.20951828469E+01
 0.18917159802E+01 0.16956195077E+01 0.12851064329E+01 0.12110804805E+01 0.11582148758E+01
 0.11258607999E+01 0.11120474918E+01 0.11139412409E+01 0.11281482882E+01 0.11510167392E+01
 0.11790225599E+01 0.12091883738E+01 0.12393758705E+01 0.12683003010E+01 0.12952458132E+01
 0.13196249592E+01 0.13406123291E+01 0.13570399583E+01 0.13676021142E+01 0.13712559294E+01
 0.13676021142E+01 0.13570399583E+01 0.13406123291E+01 0.13196249592E+01 0.12952458132E+01
 0.12683003010E+01 0.12393758705E+01 0.12091883738E+01 0.11790225599E+01 0.11510167392E+01
 0.11281482882E+01 0.11139412409E+01 0.11120474918E+01 0.11258607999E+01 0.11582148758E+01
 0.12110804805E+01 0.12851064329E+01 0.13789022575E+01 0.14881489123E+01 0.16048977120E+01
 0.17176247418E+01 0.18125365811E+01 0.18761638623E+01 0.18985918477E+01 0.18761638623E+01
 0.18125365811E+01 0.17176247418E+01 0.16048977120E+01 0.14881489123E+01 0.13789022575E+01
 0.11632763428E+01 0.11288833627E+01 0.11086205659E+01 0.11019898466E+01 0.11075447854E+01
 0.11231140707E+01 0.11460615285E+01 0.11736355198E+01 0.12033667399E+01 0.12333834025E+01
 0.12625034882E+01 0.12900572302E+01 0.13155309394E+01 0.13382156555E+01 0.13570399583E+01
 0.13706757795E+01 0.13778745510E+01 0.13778745510E+01 0.13706757795E+01 0.13570399583E+01
 0.13382156555E+01 0.13155309394E+01 0.12900572302E+01 0.12625034882E+01 0.12333834025E+01
 0.12033667399E+01 0.11736355198E+01 0.11460615285E+01 0.11231140707E+01 0.11075447854E+01
 0.11019898466E+01 0.11086205659E+01 0.11288833627E+01 0.11632763428E+01 0.12110804805E+01
 0.12700213444E+01 0.13359605993E+01 0.14028430847E+01 0.14631605666E+01 0.15090573268E+01
 0.15339101269E+01 0.15339101269E+01 0.15090573268E+01 0.14631605666E+01 0.14028430847E+01
 0.13359605993E+01 0.12700213444E+01 0.12110804805E+01 0.11080309945E+01 0.10968289305E+01
 0.10954902016E+01 0.11034044186E+01 0.11192809338E+01 0.11413367253E+01 0.11675591885E+01
 0.11960193512E+01 0.12251460580E+01 0.12538515372E+01 0.12814517039E+01 0.13074228868E+01
 0.13311184805E+01 0.13515888717E+01 0.13676021142E+01 0.13778745510E+01 0.13814220394E+01
 0.13778745510E+01 0.13676021142E+01 0.13515888717E+01 0.13311184805E+01 0.13074228868E+01
 0.12814517039E+01 0.12538515372E+01 0.12251460580E+01 0.11960193512E+01 0.11675591885E+01
 0.11413367253E+01 0.11192809338E+01 0.11034044186E+01 0.10954902016E+01 0.10968289305E+01
 0.11080309945E+01 0.11288833627E+01 0.11582148758E+01 0.11937786635E+01 0.12322281659E+01
 0.12693066690E+01 0.13003420435E+01 0.13210243056E+01 0.13282889863E+01 0.13210243056E+01
 0.13003420435E+01 0.12693066690E+01 0.12322281659E+01 0.11937786635E+01 0.11582148758E+01
 0.11288833627E+01 0.10916518771E+01 0.10935546808E+01 0.11023696292E+01 0.11173925322E+01
 0.11375120745E+01 0.11613818201E+01 0.11876228892E+01 0.12150109773E+01 0.12425833544E+01
 0.12696218987E+01 0.12955217282E+01 0.13196107168E+01 0.13410115412E+01 0.13586237124E+01
 0.13712559294E+01 0.13778745510E+01 0.13778745510E+01 0.13712559294E+01 0.13586237124E+01
 0.13410115412E+01 0.13196107168E+01 0.12955217282E+01 0.12696218987E+01 0.12425833544E+01
 0.12150109773E+01 0.11876228892E+01 0.11613818201E+01 0.11375120745E+01 0.11173925322E+01
 0.11023696292E+01 0.10935546808E+01 0.10916518771E+01 0.10968289305E+01 0.11086205659E+01
 0.11258607999E+01 0.11466676931E+01 0.11685322198E+01 0.11885635709E+01 0.12039002543E+01
 0.12122210365E+01 0.12122210365E+01 0.12039002543E+01 0.11885635709E+01 0.11685322198E+01
 0.11466676931E+01 0.11258607999E+01 0.11086205659E+01 0.10968289305E+01 0.10966879726E+01
 0.11049357123E+01 0.11179646026E+01 0.11351605261E+01 0.11557339908E+01 0.11788233211E+01
 0.12035806105E+01 0.12292211532E+01 0.12550221285E+01 0.12802730462E+01 0.13042022336E+01
 0.13259190357E+01 0.13444116666E+01 0.13586237124E+01 0.13676021142E+01 0.13706757795E+01
 0.13676021142E+01 0.13586237124E+01 0.13444116666E+01 0.13259190357E+01 0.13042022336E+01
 0.12802730462E+01 0.12550221285E+01 0.12292211532E+01 0.12035806105E+01 0.11788233211E+01
 0.11557339908E+01 0.11351605261E+01 0.11179646026E+01 0.11049357123E+01 0.10966879726E+01
 0.10935546808E+01 0.10954902016E+01 0.11019898466E+01 0.11120474918E+01 0.11241813995E+01
 0.11365591089E+01 0.11472323260E+01 0.11544538255E+01 0.11570065953E+01 0.11544538255E+01
 0.11472323260E+01 0.11365591089E+01 0.11241813995E+01 0.11120474918E+01 0.11019898466E+01
 0.10954902016E+01 0.10935546808E+01 0.11112704182E+01 0.11212863744E+01 0.11347259379E+01
 0.11512303743E+01 0.11703770940E+01 0.11916831699E+01 0.12145861346E+01 0.12384195958E+01
 0.12623996622E+01 0.12856315333E+01 0.13071393427E+01 0.13259190357E+01 0.13410115412E+01
 0.13515888717E+01 0.13570399583E+01 0.13570399583E+01 0.13515888717E+01 0.13410115412E+01
 0.13259190357E+01 0.13071393427E+01 0.12856315333E+01 0.12623996622E+01 0.12384195958E+01
 0.12145861346E+01 0.11916831699E+01 0.11703770940E+01 0.11512303743E+01 0.11347259379E+01
 0.11212863744E+01 0.11112704182E+01 0.11049357123E+01 0.11023696292E+01 0.11034044186E+01
 0.11075447854E+01 0.11139412409E+01 0.11214374718E+01 0.11287028278E+01 0.11344349725E+01
 0.11375912610E+01 0.11375912610E+01 0.11344349725E+01 0.11287028278E+01 0.11214374718E+01
 0.11139412409E+01 0.11075447854E+01 0.11034044186E+01 0.11023696292E+01 0.11049357123E+01
 0.11274726241E+01 0.11365337646E+01 0.11484273566E+01 0.11630652663E+01 0.11802723541E+01
 0.11997168796E+01 0.12208489621E+01 0.12428824351E+01 0.12648369389E+01 0.12856315333E+01
 0.13042022336E+01 0.13196107168E+01 0.13311184805E+01 0.13382156555E+01 0.13406123291E+01
 0.13382156555E+01 0.13311184805E+01 0.13196107168E+01 0.13042022336E+01 0.12856315333E+01
 0.12648369389E+01 0.12428824351E+01 0.12208489621E+01 0.11997168796E+01 0.11802723541E+01
 0.11630652663E+01 0.11484273566E+01 0.11365337646E+01 0.11274726241E+01 0.11212863744E+01
 0.11179646026E+01 0.11173925322E+01 0.11192809338E+01 0.11231140707E+01 0.11281482882E+01
 0.11334766399E+01 0.11381518775E+01 0.11413405675E+01 0.11424712387E+01 0.11413405675E+01
 0.11381518775E+01 0.11334766399E+01 0.11281482882E+01 0.11231140707E+01 0.11192809338E+01
 0.11173925322E+01 0.11179646026E+01 0.11212863744E+01 0.11408281971E+01 0.11478050960E+01
 0.11576107938E+01 0.11702931193E+01 0.11857164895E+01 0.12034767003E+01 0.12228605251E+01
 0.12428824351E+01 0.12623996622E+01 0.12802730462E+01 0.12955217282E+01 0.13074228868E+01
 0.13155309394E+01 0.13196249592E+01 0.13196249592E+01 0.13155309394E+01 0.13074228868E+01
 0.12955217282E+01 0.12802730462E+01 0.12623996622E+01 0.12428824351E+01 0.12228605251E+01
 0.12034767003E+01 0.11857164895E+01 0.11702931193E+01 0.11576107938E+01 0.11478050960E+01
 0.11408281971E+01 0.11365337646E+01 0.11347259379E+01 0.11351605261E+01 0.11375120745E+01
 0.11413367253E+01 0.11460615285E+01 0.11510167392E+01 0.11555071590E+01 0.11589032860E+01
 0.11607291837E+01 0.11607291837E+01 0.11589032860E+01 0.11555071590E+01 0.11510167392E+01
 0.11460615285E+01 0.11413367253E+01 0.11375120745E+01 0.11351605261E+01 0.11347259379E+01
 0.11365337646E+01 0.11497648435E+01 0.11546198595E+01 0.11625596884E+01 0.11735833254E+01
 0.11874201641E+01 0.12034767003E+01 0.12208489621E+01 0.12384195958E+01 0.12550221285E+01
 0.12696218987E+01 0.12814517039E+01 0.12900572302E+01 0.12952458132E+01 0.12969751561E+01
 0.12952458132E+01 0.12900572302E+01 0.12814517039E+01 0.12696218987E+01 0.12550221285E+01
 0.12384195958E+01 0.12208489621E+01 0.12034767003E+01 0.11874201641E+01 0.11735833254E+01
 0.11625596884E+01 0.11546198595E+01 0.11497648435E+01 0.11478050960E+01 0.11484273566E+01
 0.11512303743E+01 0.11557339908E+01 0.11613818201E+01 0.11675591885E+01 0.11736355198E+01
 0.11790225599E+01 0.11832290725E+01 0.11858958986E+01 0.11868084549E+01 0.11858958986E+01
 0.11832290725E+01 0.11790225599E+01 0.11736355198E+01 0.11675591885E+01 0.11613818201E+01
 0.11557339908E+01 0.11512303743E+01 0.11484273566E+01 0.11478050960E+01 0.11545481913E+01
 0.11576769939E+01 0.11640808683E+01 0.11735833254E+01 0.11857164895E+01 0.11997168796E+01
 0.12145861346E+01 0.12292211532E+01 0.12425833544E+01 0.12538515372E+01 0.12625034882E+01
 0.12683003010E+01 0.12711909144E+01 0.12711909144E+01 0.12683003010E+01 0.12625034882E+01
 0.12538515372E+01 0.12425833544E+01 0.12292211532E+01 0.12145861346E+01 0.11997168796E+01
 0.11857164895E+01 0.11735833254E+01 0.11640808683E+01 0.11576769939E+01 0.11545481913E+01
 0.11546198595E+01 0.11576107938E+01 0.11630652663E+01 0.11703770940E+01 0.11788233211E+01
 0.11876228892E+01 0.11960193512E+01 0.12033667399E+01 0.12091883738E+01 0.12131879176E+01
 0.12152156394E+01 0.12152156394E+01 0.12131879176E+01 0.12091883738E+01 0.12033667399E+01
 0.11960193512E+01 0.11876228892E+01 0.11788233211E+01 0.11703770940E+01 0.11630652663E+01
 0.11576107938E+01 0.11546198595E+01 0.11560092334E+01 0.11576769939E+01 0.11625596884E+01
 0.11702931193E+01 0.11802723541E+01 0.11916831699E+01 0.12035806105E+01 0.12150109773E+01
 0.12251460580E+01 0.12333834025E+01 0.12393758705E+01 0.12429846850E+01 0.12441862992E+01
 0.12429846850E+01 0.12393758705E+01 0.12333834025E+01 0.12251460580E+01 0.12150109773E+01
 0.12035806105E+01 0.11916831699E+01 0.11802723541E+01 0.11702931193E+01 0.11625596884E+01
 0.11576769939E+01 0.11560092334E+01 0.11576769939E+01 0.11625596884E+01 0.11702931193E+01
 0.11802723541E+01 0.11916831699E+01 0.12035806105E+01 0.12150109773E+01 0.12251460580E+01
 0.12333834025E+01 0.12393758705E+01 0.12429846850E+01 0.12441862992E+01 0.12429846850E+01
 0.12393758705E+01 0.12333834025E+01 0.12251460580E+01 0.12150109773E+01 0.12035806105E+01
 0.11916831699E+01 0.11802723541E+01 0.11702931193E+01 0.11625596884E+01 0.11576769939E+01
 0.11545481913E+01 0.11546198595E+01 0.11576107938E+01 0.11630652663E+01 0.11703770940E+01
 0.11788233211E+01 0.11876228892E+01 0.11960193512E+01 0.12033667399E+01 0.12091883738E+01
 0.12131879176E+01 0.12152156394E+01 0.12152156394E+01 0.12131879176E+01 0.12091883738E+01
 0.12033667399E+01 0.11960193512E+01 0.11876228892E+01 0.11788233211E+01 0.11703770940E+01
 0.11630652663E+01 0.11576107938E+01 0.11546198595E+01 0.11545481913E+01 0.11576769939E+01
 0.11640808683E+01 0.11735833254E+01 0.11857164895E+01 0.11997168796E+01 0.12145861346E+01
 0.12292211532E+01 0.12425833544E+01 0.12538515372E+01 0.12625034882E+01 0.12683003010E+01
 0.12711909144E+01 0.12711909144E+01 0.12683003010E+01 0.12625034882E+01 0.12538515372E+01
 0.12425833544E+01 0.12292211532E+01 0.12145861346E+01 0.11997168796E+01 0.11857164895E+01
 0.11735833254E+01 0.11640808683E+01 0.11576769939E+01 0.11497648435E+01 0.11478050960E+01
 0.11484273566E+01 0.11512303743E+01 0.11557339908E+01 0.11613818201E+01 0.11675591885E+01
 0.11736355198E+01 0.11790225599E+01 0.11832290725E+01 0.11858958986E+01 0.11868084549E+01
 0.11858958986E+01 0.11832290725E+01 0.11790225599E+01 0.11736355198E+01 0.11675591885E+01
 0.11613818201E+01 0.11557339908E+01 0.11512303743E+01 0.11484273566E+01 0.11478050960E+01
 0.11497648435E+01 0.11546198595E+01 0.11625596884E+01 0.11735833254E+01 0.11874201641E+01
 0.12034767003E+01 0.12208489621E+01 0.12384195958E+01 0.12550221285E+01 0.12696218987E+01
 0.12814517039E+01 0.12900572302E+01 0.12952458132E+01 0.12969751561E+01 0.12952458132E+01
 0.12900572302E+01 0.12814517039E+01 0.12696218987E+01 0.12550221285E+01 0.12384195958E+01
 0.12208489621E+01 0.12034767003E+01 0.11874201641E+01 0.11735833254E+01 0.11625596884E+01
 0.11546198595E+01 0.11408281971E+01 0.11365337646E+01 0.11347259379E+01 0.11351605261E+01
 0.11375120745E+01 0.11413367253E+01 0.11460615285E+01 0.11510167392E+01 0.11555071590E+01
 0.11589032860E+01 0.11607291837E+01 0.11607291837E+01 0.11589032860E+01 0.11555071590E+01
 0.11510167392E+01 0.11460615285E+01 0.11413367253E+01 0.11375120745E+01 0.11351605261E+01
 0.11347259379E+01 0.11365337646E+01 0.11408281971E+01 0.11478050960E+01 0.11576107938E+01
 0.11702931193E+01 0.11857164895E+01 0.12034767003E+01 0.12228605251E+01 0.12428824351E+01
 0.12623996622E+01 0.12802730462E+01 0.12955217282E+01 0.13074228868E+01 0.13155309394E+01
 0.13196249592E+01 0.13196249592E+01 0.13155309394E+01 0.13074228868E+01 0.12955217282E+01
 0.12802730462E+01 0.12623996622E+01 0.12428824351E+01 0.12228605251E+01 0.12034767003E+01
 0.11857164895E+01 0.11702931193E+01 0.11576107938E+01 0.11478050960E+01 0.11274726241E+01
 0.11212863744E+01 0.11179646026E+01 0.11173925322E+01 0.11192809338E+01 0.11231140707E+01
 0.11281482882E+01 0.11334766399E+01 0.11381518775E+01 0.11413405675E+01 0.11424712387E+01
 0.11413405675E+01 0.11381518775E+01 0.11334766399E+01 0.11281482882E+01 0.11231140707E+01
 0.11192809338E+01 0.11173925322E+01 0.11179646026E+01 0.11212863744E+01 0.11274726241E+01
 0.11365337646E+01 0.11484273566E+01 0.11630652663E+01 0.11802723541E+01 0.11997168796E+01
 0.12208489621E+01 0.12428824351E+01 0.12648369389E+01 0.12856315333E+01 0.13042022336E+01
 0.13196107168E+01 0.13311184805E+01 0.13382156555E+01 0.13406123291E+01 0.13382156555E+01
 0.13311184805E+01 0.13196107168E+01 0.13042022336E+01 0.12856315333E+01 0.12648369389E+01
 0.12428824351E+01 0.12208489621E+01 0.11997168796E+01 0.11802723541E+01 0.11630652663E+01
 0.11484273566E+01 0.11365337646E+01 0.11112704182E+01 0.11049357123E+01 0.11023696292E+01
 0.11034044186E+01 0.11075447854E+01 0.11139412409E+01 0.11214374718E+01 0.11287028278E+01
 0.11344349725E+01 0.11375912610E+01 0.11375912610E+01 0.11344349725E+01 0.11287028278E+01
 0.11214374718E+01 0.11139412409E+01 0.11075447854E+01 0.11034044186E+01 0.11023696292E+01
 0.11049357123E+01 0.11112704182E+01 0.11212863744E+01 0.11347259379E+01 0.11512303743E+01
 0.11703770940E+01 0.11916831699E+01 0.12145861346E+01 0.12384195958E+01 0.12623996622E+01
 0.12856315333E+01 0.13071393427E+01 0.13259190357E+01 0.13410115412E+01 0.13515888717E+01
 0.13570399583E+01 0.13570399583E+01 0.13515888717E+01 0.13410115412E+01 0.13259190357E+01
 0.13071393427E+01 0.12856315333E+01 0.12623996622E+01 0.12384195958E+01 0.12145861346E+01
 0.11916831699E+01 0.11703770940E+01 0.11512303743E+01 0.11347259379E+01 0.11212863744E+01
 0.10966879726E+01 0.10935546808E+01 0.10954902016E+01 0.11019898466E+01 0.11120474918E+01
 0.11241813995E+01 0.11365591089E+01 0.11472323260E+01 0.11544538255E+01 0.11570065953E+01
 0.11544538255E+01 0.11472323260E+01 0.11365591089E+01 0.11241813995E+01 0.11120474918E+01
 0.11019898466E+01 0.10954902016E+01 0.10935546808E+01 0.10966879726E+01 0.11049357123E+01
 0.11179646026E+01 0.11351605261E+01 0.11557339908E+01 0.11788233211E+01 0.12035806105E+01
 0.12292211532E+01 0.12550221285E+01 0.12802730462E+01 0.13042022336E+01 0.13259190357E+01
 0.13444116666E+01 0.13586237124E+01 0.13676021142E+01 0.13706757795E+01 0.13676021142E+01
 0.13586237124E+01 0.13444116666E+01 0.13259190357E+01 0.13042022336E+01 0.12802730462E+01
 0.12550221285E+01 0.12292211532E+01 0.12035806105E+01 0.11788233211E+01 0.11557339908E+01
 0.11351605261E+01 0.11179646026E+01 0.11049357123E+01 0.10916518771E+01 0.10968289305E+01
 0.11086205659E+01 0.11258607999E+01 0.11466676931E+01 0.11685322198E+01 0.11885635709E+01
 0.12039002543E+01 0.12122210365E+01 0.12122210365E+01 0.12039002543E+01 0.11885635709E+01
 0.11685322198E+01 0.11466676931E+01 0.11258607999E+01 0.11086205659E+01 0.10968289305E+01
 0.10916518771E+01 0.10935546808E+01 0.11023696292E+01 0.11173925322E+01 0.11375120745E+01
 0.11613818201E+01 0.11876228892E+01 0.12150109773E+01 0.12425833544E+01 0.12696218987E+01
 0.12955217282E+01 0.13196107168E+01 0.13410115412E+01 0.13586237124E+01 0.13712559294E+01
 0.13778745510E+01 0.13778745510E+01 0.13712559294E+01 0.13586237124E+01 0.13410115412E+01
 0.13196107168E+01 0.12955217282E+01 0.12696218987E+01 0.12425833544E+01 0.12150109773E+01
 0.11876228892E+01 0.11613818201E+01 0.11375120745E+01 0.11173925322E+01 0.11023696292E+01
 0.10935546808E+01 0.11080309945E+01 0.11288833627E+01 0.11582148758E+01 0.11937786635E+01
 0.12322281659E+01 0.12693066690E+01 0.13003420435E+01 0.13210243056E+01 0.13282889863E+01
 0.13210243056E+01 0.13003420435E+01 0.12693066690E+01 0.12322281659E+01 0.11937786635E+01
 0.11582148758E+01 0.11288833627E+01 0.11080309945E+01 0.10968289305E+01 0.10954902016E+01
 0.11034044186E+01 0.11192809338E+01 0.11413367253E+01 0.11675591885E+01 0.11960193512E+01
 0.12251460580E+01 0.12538515372E+01 0.12814517039E+01 0.13074228868E+01 0.13311184805E+01
 0.13515888717E+01 0.13676021142E+01 0.13778745510E+01 0.13814220394E+01 0.13778745510E+01
 0.13676021142E+01 0.13515888717E+01 0.13311184805E+01 0.13074228868E+01 0.12814517039E+01
 0.12538515372E+01 0.12251460580E+01 0.11960193512E+01 0.11675591885E+01 0.11413367253E+01
 0.11192809338E+01 0.11034044186E+01 0.10954902016E+01 0.10968289305E+01 0.11632763428E+01
 0.12110804805E+01 0.12700213444E+01 0.13359605993E+01 0.14028430847E+01 0.14631605666E+01
 0.15090573268E+01 0.15339101269E+01 0.15339101269E+01 0.15090573268E+01 0.14631605666E+01
 0.14028430847E+01 0.13359605993E+01 0.12700213444E+01 0.12110804805E+01 0.11632763428E+01
 0.11288833627E+01 0.11086205659E+01 0.11019898466E+01 0.11075447854E+01 0.11231140707E+01
 0.11460615285E+01 0.11736355198E+01 0.12033667399E+01 0.12333834025E+01 0.12625034882E+01
 0.12900572302E+01 0.13155309394E+01 0.13382156555E+01 0.13570399583E+01 0.13706757795E+01
 0.13778745510E+01 0.13778745510E+01 0.13706757795E+01 0.13570399583E+01 0.13382156555E+01
 0.13155309394E+01 0.12900572302E+01 0.12625034882E+01 0.12333834025E+01 0.12033667399E+01
 0.11736355198E+01 0.11460615285E+01 0.11231140707E+01 0.11075447854E+01 0.11019898466E+01