<?xml version="1.0" encoding="ISO-8859-1"?>
<modeling>
 <generator>
  <i name="program" type="string">vasp </i>
  <i name="version" type="string">5.4.4.18Apr17-6-g9f103f2a35  </i>
  <i name="subversion" type="string">(build Sep 10 2019 12:14:21) complex            parallel </i>
  <i name="platform" type="string">LinuxIFC </i>
  <i name="date" type="string">2020 09 09 </i>
  <i name="time" type="string">16:13:15 </i>
 </generator>
 <incar>
  <i type="string" name="PREC">accurate</i>
  <i type="string" name="ALGO"> All</i>
  <i type="int" name="ISPIN">     2</i>
  <i type="int" name="NELM">   200</i>
  <i type="int" name="IBRION">     2</i>
  <i name="EDIFF">      0.00001000</i>
  <i name="EDIFFG">     -0.05000000</i>
  <i type="int" name="NSW">     0</i>
  <i type="int" name="ISIF">     3</i>
  <i name="ENCUT">    680.00000000</i>
  <i name="ENAUG">   1360.00000000</i>
  <v name="MAGMOM">      0.00000000      0.00000000</v>
  <i type="string" name="LREAL"> Auto</i>
  <i type="int" name="ISMEAR">     2</i>
  <i name="SIGMA">      0.20000000</i>
  <i name="KSPACING">      0.22000000</i>
  <i type="logical" name="LWAVE"> F  </i>
  <i type="logical" name="LCHARG"> T  </i>
  <i type="logical" name="LVTOT"> T  </i>
  <i type="int" name="LORBIT">    11</i>
  <i type="logical" name="LELF"> T  </i>
  <i type="logical" name="LASPH"> T  </i>
  <i type="logical" name="LAECHG"> T  </i>
  <v type="int" name="KPOINT_BSE">    -1     0     0     0</v>
  <i type="int" name="NELM">   200</i>
  <i type="string" name="GGA"> Ps</i>
  <i type="string" name="METAGGA"> None</i>
  <i type="logical" name="LASPH"> T  </i>
  <i type="int" name="LMIXTAU">    -1</i>
 </incar>
 <structure name="primitive_cell" >
  <crystal>
   <varray name="basis" >
    <v>       0.00000000       2.00008700       2.00008700 </v>
    <v>       2.00008700       0.00000000       2.00008700 </v>
    <v>       2.00008700       2.00008700       0.00000000 </v>
   </varray>
   <i name="volume">     16.00208809 </i>
   <varray name="rec_basis" >
    <v>      -0.24998913       0.24998913       0.24998913 </v>
    <v>       0.24998913      -0.24998913       0.24998913 </v>
    <v>       0.24998913       0.24998913      -0.24998913 </v>
   </varray>
  </crystal>
  <varray name="positions" >
   <v>       0.00000000       0.00000000       0.00000000 </v>
   <v>      -0.50000000      -0.50000000      -0.50000000 </v>
  </varray>
 </structure>
 <varray name="primitive_index" >
  <v type="int" >        1 </v>
  <v type="int" >        2 </v>
 </varray>
 <kpoints>
  <generation param="Gamma">
   <v type="int" name="divisions">      13       13       13 </v>
   <v name="usershift">      0.00000000       0.00000000       0.00000000 </v>
   <v name="genvec1">      0.07692308       0.00000000       0.00000000 </v>
   <v name="genvec2">      0.00000000       0.07692308       0.00000000 </v>
   <v name="genvec3">      0.00000000       0.00000000       0.07692308 </v>
   <v name="shift">      0.00000000       0.00000000       0.00000000 </v>
  </generation>
  <varray name="kpointlist" >
   <v>       0.00000000       0.00000000       0.00000000 </v>
   <v>       0.07692308       0.00000000       0.00000000 </v>
   <v>       0.15384615       0.00000000       0.00000000 </v>
   <v>       0.23076923       0.00000000       0.00000000 </v>
   <v>       0.30769231       0.00000000       0.00000000 </v>
   <v>       0.38461538       0.00000000       0.00000000 </v>
   <v>       0.46153846       0.00000000       0.00000000 </v>
   <v>       0.07692308       0.07692308       0.00000000 </v>
   <v>       0.15384615       0.07692308       0.00000000 </v>
   <v>       0.23076923       0.07692308       0.00000000 </v>
   <v>       0.30769231       0.07692308       0.00000000 </v>
   <v>       0.38461538       0.07692308       0.00000000 </v>
   <v>       0.46153846       0.07692308       0.00000000 </v>
   <v>      -0.46153846       0.07692308       0.00000000 </v>
   <v>      -0.38461538       0.07692308       0.00000000 </v>
   <v>      -0.30769231       0.07692308       0.00000000 </v>
   <v>      -0.23076923       0.07692308       0.00000000 </v>
   <v>      -0.15384615       0.07692308       0.00000000 </v>
   <v>      -0.07692308       0.07692308       0.00000000 </v>
   <v>       0.15384615       0.15384615       0.00000000 </v>
   <v>       0.23076923       0.15384615       0.00000000 </v>
   <v>       0.30769231       0.15384615       0.00000000 </v>
   <v>       0.38461538       0.15384615       0.00000000 </v>
   <v>       0.46153846       0.15384615       0.00000000 </v>
   <v>      -0.46153846       0.15384615       0.00000000 </v>
   <v>      -0.38461538       0.15384615       0.00000000 </v>
   <v>      -0.30769231       0.15384615       0.00000000 </v>
   <v>      -0.23076923       0.15384615       0.00000000 </v>
   <v>      -0.15384615       0.15384615       0.00000000 </v>
   <v>       0.23076923       0.23076923       0.00000000 </v>
   <v>       0.30769231       0.23076923       0.00000000 </v>
   <v>       0.38461538       0.23076923       0.00000000 </v>
   <v>       0.46153846       0.23076923       0.00000000 </v>
   <v>      -0.46153846       0.23076923       0.00000000 </v>
   <v>      -0.38461538       0.23076923       0.00000000 </v>
   <v>      -0.30769231       0.23076923       0.00000000 </v>
   <v>      -0.23076923       0.23076923       0.00000000 </v>
   <v>       0.30769231       0.30769231       0.00000000 </v>
   <v>       0.38461538       0.30769231       0.00000000 </v>
   <v>       0.46153846       0.30769231       0.00000000 </v>
   <v>      -0.46153846       0.30769231       0.00000000 </v>
   <v>      -0.38461538       0.30769231       0.00000000 </v>
   <v>      -0.30769231       0.30769231       0.00000000 </v>
   <v>       0.38461538       0.38461538       0.00000000 </v>
   <v>       0.46153846       0.38461538       0.00000000 </v>
   <v>      -0.46153846       0.38461538       0.00000000 </v>
   <v>      -0.38461538       0.38461538       0.00000000 </v>
   <v>       0.46153846       0.46153846       0.00000000 </v>
   <v>      -0.46153846       0.46153846       0.00000000 </v>
   <v>       0.23076923       0.15384615       0.07692308 </v>
   <v>       0.30769231       0.15384615       0.07692308 </v>
   <v>       0.38461538       0.15384615       0.07692308 </v>
   <v>       0.46153846       0.15384615       0.07692308 </v>
   <v>      -0.46153846       0.15384615       0.07692308 </v>
   <v>       0.30769231       0.23076923       0.07692308 </v>
   <v>       0.38461538       0.23076923       0.07692308 </v>
   <v>       0.46153846       0.23076923       0.07692308 </v>
   <v>      -0.46153846       0.23076923       0.07692308 </v>
   <v>      -0.38461538       0.23076923       0.07692308 </v>
   <v>      -0.30769231       0.23076923       0.07692308 </v>
   <v>      -0.23076923       0.23076923       0.07692308 </v>
   <v>      -0.15384615       0.23076923       0.07692308 </v>
   <v>       0.38461538       0.30769231       0.07692308 </v>
   <v>       0.46153846       0.30769231       0.07692308 </v>
   <v>      -0.46153846       0.30769231       0.07692308 </v>
   <v>      -0.38461538       0.30769231       0.07692308 </v>
   <v>      -0.30769231       0.30769231       0.07692308 </v>
   <v>      -0.23076923       0.30769231       0.07692308 </v>
   <v>       0.46153846       0.38461538       0.07692308 </v>
   <v>      -0.46153846       0.38461538       0.07692308 </v>
   <v>      -0.38461538       0.38461538       0.07692308 </v>
   <v>      -0.30769231       0.38461538       0.07692308 </v>
   <v>      -0.46153846       0.46153846       0.07692308 </v>
   <v>      -0.38461538       0.46153846       0.07692308 </v>
   <v>       0.46153846       0.30769231       0.15384615 </v>
   <v>      -0.46153846       0.30769231       0.15384615 </v>
   <v>      -0.38461538       0.30769231       0.15384615 </v>
   <v>      -0.46153846       0.38461538       0.15384615 </v>
   <v>      -0.38461538       0.38461538       0.15384615 </v>
   <v>      -0.30769231       0.38461538       0.15384615 </v>
   <v>      -0.23076923       0.38461538       0.15384615 </v>
   <v>      -0.38461538       0.46153846       0.15384615 </v>
   <v>      -0.30769231       0.46153846       0.15384615 </v>
   <v>      -0.30769231       0.46153846       0.23076923 </v>
  </varray>
  <varray name="weights" >
   <v>       0.00045517 </v>
   <v>       0.00364133 </v>
   <v>       0.00364133 </v>
   <v>       0.00364133 </v>
   <v>       0.00364133 </v>
   <v>       0.00364133 </v>
   <v>       0.00364133 </v>
   <v>       0.00273100 </v>
   <v>       0.01092399 </v>
   <v>       0.01092399 </v>
   <v>       0.01092399 </v>
   <v>       0.01092399 </v>
   <v>       0.01092399 </v>
   <v>       0.01092399 </v>
   <v>       0.01092399 </v>
   <v>       0.01092399 </v>
   <v>       0.01092399 </v>
   <v>       0.01092399 </v>
   <v>       0.00546199 </v>
   <v>       0.00273100 </v>
   <v>       0.01092399 </v>
   <v>       0.01092399 </v>
   <v>       0.01092399 </v>
   <v>       0.01092399 </v>
   <v>       0.01092399 </v>
   <v>       0.01092399 </v>
   <v>       0.01092399 </v>
   <v>       0.01092399 </v>
   <v>       0.00546199 </v>
   <v>       0.00273100 </v>
   <v>       0.01092399 </v>
   <v>       0.01092399 </v>
   <v>       0.01092399 </v>
   <v>       0.01092399 </v>
   <v>       0.01092399 </v>
   <v>       0.01092399 </v>
   <v>       0.00546199 </v>
   <v>       0.00273100 </v>
   <v>       0.01092399 </v>
   <v>       0.01092399 </v>
   <v>       0.01092399 </v>
   <v>       0.01092399 </v>
   <v>       0.00546199 </v>
   <v>       0.00273100 </v>
   <v>       0.01092399 </v>
   <v>       0.01092399 </v>
   <v>       0.00546199 </v>
   <v>       0.00273100 </v>
   <v>       0.00546199 </v>
   <v>       0.01092399 </v>
   <v>       0.02184797 </v>
   <v>       0.02184797 </v>
   <v>       0.02184797 </v>
   <v>       0.02184797 </v>
   <v>       0.01092399 </v>
   <v>       0.02184797 </v>
   <v>       0.02184797 </v>
   <v>       0.02184797 </v>
   <v>       0.02184797 </v>
   <v>       0.02184797 </v>
   <v>       0.02184797 </v>
   <v>       0.01092399 </v>
   <v>       0.01092399 </v>
   <v>       0.02184797 </v>
   <v>       0.02184797 </v>
   <v>       0.02184797 </v>
   <v>       0.02184797 </v>
   <v>       0.01092399 </v>
   <v>       0.01092399 </v>
   <v>       0.02184797 </v>
   <v>       0.02184797 </v>
   <v>       0.01092399 </v>
   <v>       0.01092399 </v>
   <v>       0.01092399 </v>
   <v>       0.01092399 </v>
   <v>       0.02184797 </v>
   <v>       0.02184797 </v>
   <v>       0.01092399 </v>
   <v>       0.02184797 </v>
   <v>       0.02184797 </v>
   <v>       0.01092399 </v>
   <v>       0.01092399 </v>
   <v>       0.01092399 </v>
   <v>       0.01092399 </v>
  </varray>
 </kpoints>
 <parameters>
  <separator name="general" >
   <i type="string" name="SYSTEM">unknown system</i>
   <i type="logical" name="LCOMPAT"> F  </i>
  </separator>
  <separator name="electronic" >
   <i type="string" name="PREC">accura</i>
   <i name="ENMAX">    680.00000000</i>
   <i name="ENAUG">   1360.00000000</i>
   <i name="EDIFF">      0.00001000</i>
   <i type="int" name="IALGO">    58</i>
   <i type="int" name="IWAVPR">    10</i>
   <i type="int" name="NBANDS">     6</i>
   <i name="NELECT">      4.00000000</i>
   <i type="int" name="TURBO">     0</i>
   <i type="int" name="IRESTART">     0</i>
   <i type="int" name="NREBOOT">     0</i>
   <i type="int" name="NMIN">     0</i>
   <i name="EREF">      0.00000000</i>
   <separator name="electronic smearing" >
    <i type="int" name="ISMEAR">     2</i>
    <i name="SIGMA">      0.20000000</i>
    <i name="KSPACING">      0.22000000</i>
    <i type="logical" name="KGAMMA"> T  </i>
   </separator>
   <separator name="electronic projectors" >
    <i type="logical" name="LREAL"> T  </i>
    <v name="ROPT">     -0.00025000     -0.00025000</v>
    <i type="int" name="LMAXPAW">  -100</i>
    <i type="int" name="LMAXMIX">     2</i>
    <i type="logical" name="NLSPLINE"> F  </i>
   </separator>
   <separator name="electronic startup" >
    <i type="int" name="ISTART">     0</i>
    <i type="int" name="ICHARG">     2</i>
    <i type="int" name="INIWAV">     1</i>
   </separator>
   <separator name="electronic spin" >
    <i type="int" name="ISPIN">     2</i>
    <i type="logical" name="LNONCOLLINEAR"> F  </i>
    <v name="MAGMOM">      0.00000000      0.00000000</v>
    <i name="NUPDOWN">     -1.00000000</i>
    <i type="logical" name="LSORBIT"> F  </i>
    <v name="SAXIS">      0.00000000      0.00000000      1.00000000</v>
    <i type="logical" name="LSPIRAL"> F  </i>
    <v name="QSPIRAL">      0.00000000      0.00000000      0.00000000</v>
    <i type="logical" name="LZEROZ"> F  </i>
   </separator>
   <separator name="electronic exchange-correlation" >
    <i type="logical" name="LASPH"> T  </i>
    <i type="logical" name="LMETAGGA"> F  </i>
   </separator>
   <separator name="electronic convergence" >
    <i type="int" name="NELM">   200</i>
    <i type="int" name="NELMDL">    -5</i>
    <i type="int" name="NELMIN">     2</i>
    <i name="ENINI">    680.00000000</i>
    <separator name="electronic convergence detail" >
     <i type="logical" name="LDIAG"> T  </i>
     <i type="logical" name="LSUBROT"> F  </i>
     <i name="WEIMIN">      0.00000000</i>
     <i name="EBREAK">      0.00000042</i>
     <i name="DEPER">      0.30000000</i>
     <i type="int" name="NRMM">     4</i>
     <i name="TIME">      0.40000000</i>
    </separator>
   </separator>
   <separator name="electronic mixer" >
    <i name="AMIX">      0.40000000</i>
    <i name="BMIX">      1.00000000</i>
    <i name="AMIN">      0.10000000</i>
    <i name="AMIX_MAG">      1.60000000</i>
    <i name="BMIX_MAG">      1.00000000</i>
    <separator name="electronic mixer details" >
     <i type="int" name="IMIX">     4</i>
     <i type="logical" name="MIXFIRST"> F  </i>
     <i type="int" name="MAXMIX">   -45</i>
     <i name="WC">    100.00000000</i>
     <i type="int" name="INIMIX">     1</i>
     <i type="int" name="MIXPRE">     1</i>
     <i type="int" name="MREMOVE">     5</i>
    </separator>
   </separator>
   <separator name="electronic dipolcorrection" >
    <i type="logical" name="LDIPOL"> F  </i>
    <i type="logical" name="LMONO"> F  </i>
    <i type="int" name="IDIPOL">     0</i>
    <i name="EPSILON">      1.00000000</i>
    <v name="DIPOL">   -100.00000000   -100.00000000   -100.00000000</v>
    <i name="EFIELD">      0.00000000</i>
   </separator>
  </separator>
  <separator name="grids" >
   <i type="int" name="NGX">    24</i>
   <i type="int" name="NGY">    24</i>
   <i type="int" name="NGZ">    24</i>
   <i type="int" name="NGXF">    48</i>
   <i type="int" name="NGYF">    48</i>
   <i type="int" name="NGZF">    48</i>
   <i type="logical" name="ADDGRID"> F  </i>
  </separator>
  <separator name="ionic" >
   <i type="int" name="NSW">     0</i>
   <i type="int" name="IBRION">    -1</i>
   <i type="int" name="MDALGO">     0</i>
   <i type="int" name="ISIF">     3</i>
   <i name="PSTRESS">      0.00000000</i>
   <i name="EDIFFG">     -0.05000000</i>
   <i type="int" name="NFREE">     1</i>
   <i name="POTIM">      0.50000000</i>
   <i name="SMASS">     -3.00000000</i>
   <i name="SCALEE">      1.00000000</i>
  </separator>
  <separator name="ionic md" >
   <i name="TEBEG">      0.00010000</i>
   <i name="TEEND">      0.00010000</i>
   <i type="int" name="NBLOCK">     1</i>
   <i type="int" name="KBLOCK">     1</i>
   <i type="int" name="NPACO">   256</i>
   <i name="APACO">     16.00000000</i>
  </separator>
  <separator name="symmetry" >
   <i type="int" name="ISYM">     2</i>
   <i name="SYMPREC">      0.00001000</i>
  </separator>
  <separator name="dos" >
   <i type="int" name="LORBIT">    11</i>
   <v name="RWIGS">     -1.00000000     -1.00000000</v>
   <i type="int" name="NEDOS">   301</i>
   <i name="EMIN">     10.00000000</i>
   <i name="EMAX">    -10.00000000</i>
   <i name="EFERMI">      0.00000000</i>
  </separator>
  <separator name="writing" >
   <i type="int" name="NWRITE">     2</i>
   <i type="logical" name="LWAVE"> F  </i>
   <i type="logical" name="LDOWNSAMPLE"> F  </i>
   <i type="logical" name="LCHARG"> T  </i>
   <i type="logical" name="LPARD"> F  </i>
   <i type="logical" name="LVTOT"> T  </i>
   <i type="logical" name="LVHAR"> F  </i>
   <i type="logical" name="LELF"> T  </i>
   <i type="logical" name="LOPTICS"> F  </i>
   <v name="STM">      0.00000000      0.00000000      0.00000000      0.00000000      0.00000000      0.00000000      0.00000000</v>
  </separator>
  <separator name="performance" >
   <i type="int" name="NPAR">     1</i>
   <i type="int" name="NSIM">     4</i>
   <i type="int" name="NBLK">    -1</i>
   <i type="logical" name="LPLANE"> T  </i>
   <i type="logical" name="LSCALAPACK"> F  </i>
   <i type="logical" name="LSCAAWARE"> F  </i>
   <i type="logical" name="LSCALU"> F  </i>
   <i type="logical" name="LASYNC"> F  </i>
   <i type="logical" name="LORBITALREAL"> F  </i>
  </separator>
  <separator name="miscellaneous" >
   <i type="int" name="IDIOT">     3</i>
   <i type="int" name="ISPECIAL">     0</i>
   <i type="logical" name="LMUSIC"> F  </i>
   <v name="POMASS">      7.01000000      1.00000000</v>
   <v name="DARWINR">      0.00000000      0.00000000</v>
   <v name="DARWINV">      1.00000000      1.00000000</v>
   <i type="logical" name="LCORR"> T  </i>
  </separator>
  <i type="logical" name="GGA_COMPAT"> T  </i>
  <i type="logical" name="LBERRY"> F  </i>
  <i type="int" name="ICORELEVEL">     0</i>
  <i type="logical" name="LDAU"> F  </i>
  <i type="int" name="I_CONSTRAINED_M">     0</i>
  <separator name="electronic exchange-correlation" >
   <i type="string" name="GGA">PS</i>
   <i type="int" name="VOSKOWN">     0</i>
   <i type="logical" name="LHFCALC"> F  </i>
   <i type="string" name="PRECFOCK"></i>
   <i type="logical" name="LSYMGRAD"> F  </i>
   <i type="logical" name="LHFONE"> F  </i>
   <i type="logical" name="LRHFCALC"> F  </i>
   <i type="logical" name="LTHOMAS"> F  </i>
   <i type="logical" name="LMODELHF"> F  </i>
   <i name="ENCUT4O">     -1.00000000</i>
   <i type="int" name="EXXOEP">     0</i>
   <i type="int" name="FOURORBIT">     0</i>
   <i name="AEXX">      0.00000000</i>
   <i name="HFALPHA">      0.00000000</i>
   <i name="MCALPHA">      0.00000000</i>
   <i name="ALDAX">      1.00000000</i>
   <i name="AGGAX">      1.00000000</i>
   <i name="ALDAC">      1.00000000</i>
   <i name="AGGAC">      1.00000000</i>
   <i type="int" name="NKREDX">     1</i>
   <i type="int" name="NKREDY">     1</i>
   <i type="int" name="NKREDZ">     1</i>
   <i type="logical" name="SHIFTRED"> F  </i>
   <i type="logical" name="ODDONLY"> F  </i>
   <i type="logical" name="EVENONLY"> F  </i>
   <i type="int" name="LMAXFOCK">     0</i>
   <i type="int" name="NMAXFOCKAE">     0</i>
   <i type="logical" name="LFOCKAEDFT"> F  </i>
   <i name="HFSCREEN">      0.00000000</i>
   <i name="HFSCREENC">      0.00000000</i>
   <i type="int" name="NBANDSGWLOW">     0</i>
  </separator>
  <separator name="vdW DFT" >
   <i type="logical" name="LUSE_VDW"> F  </i>
   <i name="Zab_VDW">     -0.84910000</i>
   <i name="PARAM1">      0.12340000</i>
   <i name="PARAM2">      1.00000000</i>
   <i name="PARAM3">      0.00000000</i>
  </separator>
  <separator name="model GW" >
   <i type="int" name="MODEL_GW">     0</i>
   <i name="MODEL_EPS0">      4.80062643</i>
   <i name="MODEL_ALPHA">      1.00000000</i>
  </separator>
  <separator name="linear response parameters" >
   <i type="logical" name="LEPSILON"> F  </i>
   <i type="logical" name="LRPA"> F  </i>
   <i type="logical" name="LNABLA"> F  </i>
   <i type="logical" name="LVEL"> F  </i>
   <i type="int" name="KINTER">     0</i>
   <i name="CSHIFT">      0.10000000</i>
   <i name="OMEGAMAX">     -1.00000000</i>
   <i name="DEG_THRESHOLD">      0.00200000</i>
   <i name="RTIME">     -0.10000000</i>
   <i name="WPLASMAI">      0.00000000</i>
   <v name="DFIELD">      0.00000000      0.00000000      0.00000000</v>
   <v name="WPLASMA">      0.00000000      0.00000000      0.00000000      0.00000000      0.00000000      0.00000000      0.00000000      0.00000000      0.00000000</v>
  </separator>
  <separator name="orbital magnetization" >
   <i type="logical" name="NUCIND"> F  </i>
   <v name="MAGPOS">      0.00000000      0.00000000      0.00000000</v>
   <i type="logical" name="LNICSALL"> T  </i>
   <i type="logical" name="ORBITALMAG"> F  </i>
   <i type="logical" name="LMAGBLOCH"> F  </i>
   <i type="logical" name="LCHIMAG"> F  </i>
   <i type="logical" name="LGAUGE"> T  </i>
   <i type="int" name="MAGATOM">     0</i>
   <v name="MAGDIPOL">      0.00000000      0.00000000      0.00000000</v>
   <v name="AVECCONST">      0.00000000      0.00000000      0.00000000</v>
  </separator>
  <separator name="response functions" >
   <i type="logical" name="LADDER"> F  </i>
   <i type="logical" name="LRPAFORCE"> F  </i>
   <i type="logical" name="LFXC"> F  </i>
   <i type="logical" name="LHARTREE"> T  </i>
   <i type="int" name="IBSE">     0</i>
   <v type="int" name="KPOINT">    -1     0     0     0</v>
   <i type="logical" name="LTCTE"> F  </i>
   <i type="logical" name="LTETE"> F  </i>
   <i type="logical" name="LTRIPLET"> F  </i>
   <i type="logical" name="LFXCEPS"> F  </i>
   <i type="logical" name="LFXHEG"> F  </i>
   <i type="int" name="NATURALO">     2</i>
   <i type="logical" name="L2ORDER"> F  </i>
   <i type="logical" name="LMP2LT"> F  </i>
   <i type="logical" name="LUSEW"> F  </i>
   <i name="ENCUTGW">     -2.00000000</i>
   <i name="ENCUTGWSOFT">     -2.00000000</i>
   <i name="ENCUTLF">     -1.00000000</i>
   <i type="int" name="LMAXMP2">    -1</i>
   <i name="SCISSOR">      0.00000000</i>
   <i type="int" name="NOMEGA">     0</i>
   <i type="int" name="NOMEGAR">     0</i>
   <i type="int" name="NBANDSGW">    -1</i>
   <i type="int" name="NBANDSO">    -1</i>
   <i type="int" name="NBANDSV">    -1</i>
   <i type="int" name="NELM">   200</i>
   <i type="int" name="NELMHF">     1</i>
   <i type="int" name="DIM">     3</i>
   <i type="int" name="ANTIRES">     0</i>
   <i name="OMEGAMAX">    -30.00000000</i>
   <i name="OMEGAMIN">    -30.00000000</i>
   <i name="OMEGATL">   -200.00000000</i>
   <i type="int" name="OMEGAGRID">   140</i>
   <i name="CSHIFT">     -0.10000000</i>
   <i type="logical" name="SELFENERGY"> F  </i>
   <i type="logical" name="LSPECTRAL"> F  </i>
   <i type="logical" name="LSPECTRALGW"> F  </i>
   <i type="logical" name="LSINGLES"> F  </i>
   <i type="logical" name="LFERMIGW"> F  </i>
   <i type="logical" name="ODDONLYGW"> F  </i>
   <i type="logical" name="EVENONLYGW"> F  </i>
   <i type="int" name="NKREDLFX">     1</i>
   <i type="int" name="NKREDLFY">     1</i>
   <i type="int" name="NKREDLFZ">     1</i>
   <i type="int" name="MAXMEM">  2800</i>
   <i type="int" name="TELESCOPE">     0</i>
   <i type="int" name="TAUPAR">     1</i>
   <i type="int" name="OMEGAPAR">    -1</i>
   <i name="LAMBDA">      1.00000000</i>
  </separator>
  <separator name="External order field" >
   <i name="OFIELD_KAPPA">      0.00000000</i>
   <v name="OFIELD_K">      0.00000000      0.00000000      0.00000000</v>
   <i name="OFIELD_Q6_NEAR">      0.00000000</i>
   <i name="OFIELD_Q6_FAR">      0.00000000</i>
   <i name="OFIELD_A">      0.00000000</i>
  </separator>
 </parameters>
 <atominfo>
  <atoms>       2 </atoms>
  <types>       2 </types>
  <array name="atoms" >
   <dimension dim="1">ion</dimension>
   <field type="string">element</field>
   <field type="int">atomtype</field>
   <set>
    <rc><c>Li</c><c>   1</c></rc>
    <rc><c>H </c><c>   2</c></rc>
   </set>
  </array>
  <array name="atomtypes" >
   <dimension dim="1">type</dimension>
   <field type="int">atomspertype</field>
   <field type="string">element</field>
   <field>mass</field>
   <field>valence</field>
   <field type="string">pseudopotential</field>
   <set>
    <rc><c>   1</c><c>Li</c><c>      7.01000000</c><c>      3.00000000</c><c>  PAW_PBE Li_sv 10Sep2004               </c></rc>
    <rc><c>   1</c><c>H </c><c>      1.00000000</c><c>      1.00000000</c><c>  PAW_PBE H 15Jun2001                   </c></rc>
   </set>
  </array>
 </atominfo>
 <structure name="initialpos" >
  <crystal>
   <varray name="basis" >
    <v>       0.00000000       2.00008700       2.00008700 </v>
    <v>       2.00008700       0.00000000       2.00008700 </v>
    <v>       2.00008700       2.00008700       0.00000000 </v>
   </varray>
   <i name="volume">     16.00208809 </i>
   <varray name="rec_basis" >
    <v>      -0.24998913       0.24998913       0.24998913 </v>
    <v>       0.24998913      -0.24998913       0.24998913 </v>
    <v>       0.24998913       0.24998913      -0.24998913 </v>
   </varray>
  </crystal>
  <varray name="positions" >
   <v>       0.00000000       0.00000000       0.00000000 </v>
   <v>       0.50000000       0.50000000       0.50000000 </v>
  </varray>
 </structure>
 <calculation>
  <scstep>
   <time name="total">    1.66    1.76</time>
   <energy>
    <i name="alphaZ">      2.52703488 </i>
    <i name="ewald">    -94.29113762 </i>
    <i name="hartreedc">    -37.09392134 </i>
    <i name="XCdc">     15.04548566 </i>
    <i name="pawpsdc">     81.95465018 </i>
    <i name="pawaedc">    -97.19045804 </i>
    <i name="eentropy">     -0.00051192 </i>
    <i name="bandstr">    -84.90056083 </i>
    <i name="atom">    213.37920456 </i>
    <i name="e_fr_energy">     -0.57021445 </i>
    <i name="e_wo_entrp">     -0.56970253 </i>
    <i name="e_0_energy">     -0.57008647 </i>
   </energy>
  </scstep>
  <scstep>
   <time name="total">    1.40    1.41</time>
   <energy>
    <i name="e_fr_energy">     -6.22668826 </i>
    <i name="e_wo_entrp">     -6.22666958 </i>
    <i name="e_0_energy">     -6.22668359 </i>
   </energy>
  </scstep>
  <scstep>
   <time name="total">    1.24    1.26</time>
   <energy>
    <i name="e_fr_energy">     -6.34384303 </i>
    <i name="e_wo_entrp">     -6.34385403 </i>
    <i name="e_0_energy">     -6.34384578 </i>
   </energy>
  </scstep>
  <scstep>
   <time name="total">    1.42    1.43</time>
   <energy>
    <i name="e_fr_energy">     -6.34573641 </i>
    <i name="e_wo_entrp">     -6.34575588 </i>
    <i name="e_0_energy">     -6.34574128 </i>
   </energy>
  </scstep>
  <scstep>
   <time name="total">    1.23    1.24</time>
   <energy>
    <i name="e_fr_energy">     -6.34576561 </i>
    <i name="e_wo_entrp">     -6.34578508 </i>
    <i name="e_0_energy">     -6.34577048 </i>
   </energy>
  </scstep>
  <scstep>
   <time name="total">    1.45    1.46</time>
   <energy>
    <i name="e_fr_energy">     -6.03169645 </i>
    <i name="e_wo_entrp">     -6.03170668 </i>
    <i name="e_0_energy">     -6.03169901 </i>
   </energy>
  </scstep>
  <scstep>
   <time name="total">    1.46    1.46</time>
   <energy>
    <i name="e_fr_energy">     -6.10597675 </i>
    <i name="e_wo_entrp">     -6.10599725 </i>
    <i name="e_0_energy">     -6.10598188 </i>
   </energy>
  </scstep>
  <scstep>
   <time name="total">    1.39    1.40</time>
   <energy>
    <i name="e_fr_energy">     -6.11598662 </i>
    <i name="e_wo_entrp">     -6.11601862 </i>
    <i name="e_0_energy">     -6.11599462 </i>
   </energy>
  </scstep>
  <scstep>
   <time name="total">    1.42    1.42</time>
   <energy>
    <i name="e_fr_energy">     -6.12102872 </i>
    <i name="e_wo_entrp">     -6.12106210 </i>
    <i name="e_0_energy">     -6.12103707 </i>
   </energy>
  </scstep>
  <scstep>
   <time name="total">    1.53    1.55</time>
   <energy>
    <i name="e_fr_energy">     -6.12146006 </i>
    <i name="e_wo_entrp">     -6.12149359 </i>
    <i name="e_0_energy">     -6.12146844 </i>
   </energy>
  </scstep>
  <scstep>
   <time name="total">    1.47    1.48</time>
   <energy>
    <i name="e_fr_energy">     -6.12152929 </i>
    <i name="e_wo_entrp">     -6.12156276 </i>
    <i name="e_0_energy">     -6.12153766 </i>
   </energy>
  </scstep>
  <scstep>
   <time name="total">    1.47    1.48</time>
   <energy>
    <i name="e_fr_energy">     -6.12154539 </i>
    <i name="e_wo_entrp">     -6.12157878 </i>
    <i name="e_0_energy">     -6.12155374 </i>
   </energy>
  </scstep>
  <scstep>
   <time name="total">    1.45    1.46</time>
   <energy>
    <i name="e_fr_energy">     -6.12155727 </i>
    <i name="e_wo_entrp">     -6.12159068 </i>
    <i name="e_0_energy">     -6.12156563 </i>
   </energy>
  </scstep>
  <scstep>
   <time name="total">    1.65    1.65</time>
   <energy>
    <i name="alphaZ">      2.52703488 </i>
    <i name="ewald">    -94.29113762 </i>
    <i name="hartreedc">    -36.15520146 </i>
    <i name="XCdc">     15.19361956 </i>
    <i name="pawpsdc">     86.35740296 </i>
    <i name="pawaedc">   -101.73793080 </i>
    <i name="eentropy">      0.00003347 </i>
    <i name="bandstr">    -91.39458948 </i>
    <i name="atom">    213.37920456 </i>
    <i name="e_fr_energy">     -6.12156399 </i>
    <i name="e_wo_entrp">     -6.12159746 </i>
    <i name="e_0_energy">     -6.12157236 </i>
   </energy>
  </scstep>
  <structure>
   <crystal>
    <varray name="basis" >
     <v>       0.00000000       2.00008700       2.00008700 </v>
     <v>       2.00008700       0.00000000       2.00008700 </v>
     <v>       2.00008700       2.00008700       0.00000000 </v>
    </varray>
    <i name="volume">     16.00208809 </i>
    <varray name="rec_basis" >
     <v>      -0.24998913       0.24998913       0.24998913 </v>
     <v>       0.24998913      -0.24998913       0.24998913 </v>
     <v>       0.24998913       0.24998913      -0.24998913 </v>
    </varray>
   </crystal>
   <varray name="positions" >
    <v>       0.00000000       0.00000000       0.00000000 </v>
    <v>       0.50000000       0.50000000       0.50000000 </v>
   </varray>
  </structure>
  <varray name="forces" >
   <v>      -0.00000000      -0.00000000      -0.00000000 </v>
   <v>       0.00000000       0.00000000       0.00000000 </v>
  </varray>
  <varray name="stress" >
   <v>      -7.09779148       0.00000000       0.00000000 </v>
   <v>      -0.00000000      -7.09779148       0.00000000 </v>
   <v>      -0.00000000      -0.00000000      -7.09779148 </v>
  </varray>
  <energy>
   <i name="e_fr_energy">     -6.12156399 </i>
   <i name="e_wo_entrp">     -6.12157236 </i>
   <i name="e_0_energy">      0.00003347 </i>
  </energy>
  <time name="totalsc">   22.67   22.92</time>
  <eigenvalues>
   <array>
    <dimension dim="1">band</dimension>
    <dimension dim="2">kpoint</dimension>
    <dimension dim="3">spin</dimension>
    <field>eigene</field>
    <field>occ</field>
    <set>
     <set comment="spin 1">
      <set comment="kpoint 1">
       <r>  -43.5047    1.0000 </r>
       <r>   -5.3884    1.0000 </r>
       <r>   16.3581    0.0000 </r>
       <r>   17.9763    0.0000 </r>
       <r>   17.9763    0.0000 </r>
       <r>   17.9764    0.0000 </r>
      </set>
      <set comment="kpoint 2">
       <r>  -43.5017    1.0000 </r>
       <r>   -5.2822    1.0000 </r>
       <r>   15.4076    0.0000 </r>
       <r>   17.3242    0.0000 </r>
       <r>   17.7192    0.0000 </r>
       <r>   17.7192    0.0000 </r>
      </set>
      <set comment="kpoint 3">
       <r>  -43.4937    1.0000 </r>
       <r>   -4.9700    1.0000 </r>
       <r>   13.0267    0.0000 </r>
       <r>   16.3411    0.0000 </r>
       <r>   17.2138    0.0000 </r>
       <r>   17.2139    0.0000 </r>
      </set>
      <set comment="kpoint 4">
       <r>  -43.4823    1.0000 </r>
       <r>   -4.4655    1.0000 </r>
       <r>   10.3955    0.0000 </r>
       <r>   15.4272    0.0000 </r>
       <r>   16.7765    0.0000 </r>
       <r>   16.7766    0.0000 </r>
      </set>
      <set comment="kpoint 5">
       <r>  -43.4702    1.0000 </r>
       <r>   -3.8119    1.0000 </r>
       <r>    8.0230    0.0000 </r>
       <r>   14.6630    0.0000 </r>
       <r>   16.5272    0.0000 </r>
       <r>   16.5272    0.0000 </r>
      </set>
      <set comment="kpoint 6">
       <r>  -43.4601    1.0000 </r>
       <r>   -3.1155    1.0000 </r>
       <r>    6.1456    0.0000 </r>
       <r>   14.1201    0.0000 </r>
       <r>   16.4728    0.0000 </r>
       <r>   16.4728    0.0000 </r>
      </set>
      <set comment="kpoint 7">
       <r>  -43.4544    1.0000 </r>
       <r>   -2.6125    1.0000 </r>
       <r>    5.0432    0.0000 </r>
       <r>   13.8397    0.0000 </r>
       <r>   16.5250    0.0000 </r>
       <r>   16.5250    0.0000 </r>
      </set>
      <set comment="kpoint 8">
       <r>  -43.5007    1.0000 </r>
       <r>   -5.2460    1.0000 </r>
       <r>   15.4885    0.0000 </r>
       <r>   16.8525    0.0000 </r>
       <r>   16.8525    0.0000 </r>
       <r>   18.5952    0.0000 </r>
      </set>
      <set comment="kpoint 9">
       <r>  -43.4944    1.0000 </r>
       <r>   -4.9998    1.0000 </r>
       <r>   13.8379    0.0000 </r>
       <r>   15.8653    0.0000 </r>
       <r>   16.0387    0.0000 </r>
       <r>   18.5836    0.0000 </r>
      </set>
      <set comment="kpoint 10">
       <r>  -43.4842    1.0000 </r>
       <r>   -4.5531    1.0000 </r>
       <r>   11.2778    0.0000 </r>
       <r>   14.9136    0.0000 </r>
       <r>   15.4359    0.0000 </r>
       <r>   18.1370    0.0000 </r>
      </set>
      <set comment="kpoint 11">
       <r>  -43.4723    1.0000 </r>
       <r>   -3.9364    1.0000 </r>
       <r>    8.8019    0.0000 </r>
       <r>   14.0694    0.0000 </r>
       <r>   15.1009    0.0000 </r>
       <r>   17.5632    0.0000 </r>
      </set>
      <set comment="kpoint 12">
       <r>  -43.4616    1.0000 </r>
       <r>   -3.2285    1.0000 </r>
       <r>    6.7319    0.0000 </r>
       <r>   13.4066    0.0000 </r>
       <r>   15.0529    0.0000 </r>
       <r>   16.9570    0.0000 </r>
      </set>
      <set comment="kpoint 13">
       <r>  -43.4545    1.0000 </r>
       <r>   -2.6172    1.0000 </r>
       <r>    5.3271    0.0000 </r>
       <r>   12.9711    0.0000 </r>
       <r>   15.2919    0.0000 </r>
       <r>   16.3871    0.0000 </r>
      </set>
      <set comment="kpoint 14">
       <r>  -43.4526    1.0000 </r>
       <r>   -2.4237    1.0000 </r>
       <r>    4.9349    0.0000 </r>
       <r>   12.7809    0.0000 </r>
       <r>   15.7979    0.0000 </r>
       <r>   15.9588    0.0000 </r>
      </set>
      <set comment="kpoint 15">
       <r>  -43.4564    1.0000 </r>
       <r>   -2.7954    1.0000 </r>
       <r>    5.7081    0.0000 </r>
       <r>   12.8327    0.0000 </r>
       <r>   15.7640    0.0000 </r>
       <r>   16.5092    0.0000 </r>
      </set>
      <set comment="kpoint 16">
       <r>  -43.4649    1.0000 </r>
       <r>   -3.4704    1.0000 </r>
       <r>    7.3754    0.0000 </r>
       <r>   13.1089    0.0000 </r>
       <r>   15.8542    0.0000 </r>
       <r>   17.2725    0.0000 </r>
      </set>
      <set comment="kpoint 17">
       <r>  -43.4763    1.0000 </r>
       <r>   -4.1614    1.0000 </r>
       <r>    9.6136    0.0000 </r>
       <r>   13.5897    0.0000 </r>
       <r>   16.2303    0.0000 </r>
       <r>   17.8785    0.0000 </r>
      </set>
      <set comment="kpoint 18">
       <r>  -43.4880    1.0000 </r>
       <r>   -4.7261    1.0000 </r>
       <r>   12.1764    0.0000 </r>
       <r>   14.2861    0.0000 </r>
       <r>   16.8122    0.0000 </r>
       <r>   18.2597    0.0000 </r>
      </set>
      <set comment="kpoint 19">
       <r>  -43.4971    1.0000 </r>
       <r>   -5.1067    1.0000 </r>
       <r>   14.4204    0.0000 </r>
       <r>   15.5517    0.0000 </r>
       <r>   17.3673    0.0000 </r>
       <r>   18.2777    0.0000 </r>
      </set>
      <set comment="kpoint 20">
       <r>  -43.4901    1.0000 </r>
       <r>   -4.8152    1.0000 </r>
       <r>   13.7571    0.0000 </r>
       <r>   15.0333    0.0000 </r>
       <r>   15.0333    0.0000 </r>
       <r>   18.3894    0.0000 </r>
      </set>
      <set comment="kpoint 21">
       <r>  -43.4816    1.0000 </r>
       <r>   -4.4224    1.0000 </r>
       <r>   11.9510    0.0000 </r>
       <r>   13.9235    0.0000 </r>
       <r>   14.2879    0.0000 </r>
       <r>   18.1754    0.0000 </r>
      </set>
      <set comment="kpoint 22">
       <r>  -43.4709    1.0000 </r>
       <r>   -3.8425    1.0000 </r>
       <r>    9.5779    0.0000 </r>
       <r>   12.7841    0.0000 </r>
       <r>   13.8352    0.0000 </r>
       <r>   17.5298    0.0000 </r>
      </set>
      <set comment="kpoint 23">
       <r>  -43.4604    1.0000 </r>
       <r>   -3.1322    1.0000 </r>
       <r>    7.3962    0.0000 </r>
       <r>   11.8512    0.0000 </r>
       <r>   13.6883    0.0000 </r>
       <r>   16.8942    0.0000 </r>
      </set>
      <set comment="kpoint 24">
       <r>  -43.4527    1.0000 </r>
       <r>   -2.4367    1.0000 </r>
       <r>    5.7452    0.0000 </r>
       <r>   11.1629    0.0000 </r>
       <r>   13.8513    0.0000 </r>
       <r>   16.3434    0.0000 </r>
      </set>
      <set comment="kpoint 25">
       <r>  -43.4494    1.0000 </r>
       <r>   -2.0604    1.0000 </r>
       <r>    4.9890    0.0000 </r>
       <r>   10.7336    0.0000 </r>
       <r>   14.3225    0.0000 </r>
       <r>   15.9554    0.0000 </r>
      </set>
      <set comment="kpoint 26">
       <r>  -43.4512    1.0000 </r>
       <r>   -2.2802    1.0000 </r>
       <r>    5.4240    0.0000 </r>
       <r>   10.5634    0.0000 </r>
       <r>   15.0917    0.0000 </r>
       <r>   15.7823    0.0000 </r>
      </set>
      <set comment="kpoint 27">
       <r>  -43.4578    1.0000 </r>
       <r>   -2.9238    1.0000 </r>
       <r>    6.8763    0.0000 </r>
       <r>   10.6430    0.0000 </r>
       <r>   15.8460    0.0000 </r>
       <r>   16.1299    0.0000 </r>
      </set>
      <set comment="kpoint 28">
       <r>  -43.4677    1.0000 </r>
       <r>   -3.6517    1.0000 </r>
       <r>    8.9850    0.0000 </r>
       <r>   10.9584    0.0000 </r>
       <r>   16.1249    0.0000 </r>
       <r>   17.3440    0.0000 </r>
      </set>
      <set comment="kpoint 29">
       <r>  -43.4786    1.0000 </r>
       <r>   -4.2773    1.0000 </r>
       <r>   11.3695    0.0000 </r>
       <r>   11.6340    0.0000 </r>
       <r>   16.5202    0.0000 </r>
       <r>   18.3593    0.0000 </r>
      </set>
      <set comment="kpoint 30">
       <r>  -43.4751    1.0000 </r>
       <r>   -4.0779    1.0000 </r>
       <r>   11.2713    0.0000 </r>
       <r>   13.4160    0.0000 </r>
       <r>   13.4160    0.0000 </r>
       <r>   16.6243    0.0000 </r>
      </set>
      <set comment="kpoint 31">
       <r>  -43.4663    1.0000 </r>
       <r>   -3.5334    1.0000 </r>
       <r>    9.6077    0.0000 </r>
       <r>   12.0973    0.0000 </r>
       <r>   12.8464    0.0000 </r>
       <r>   16.8812    0.0000 </r>
      </set>
      <set comment="kpoint 32">
       <r>  -43.4570    1.0000 </r>
       <r>   -2.8291    1.0000 </r>
       <r>    7.7310    0.0000 </r>
       <r>   10.6596    0.0000 </r>
       <r>   12.5894    0.0000 </r>
       <r>   16.8807    0.0000 </r>
      </set>
      <set comment="kpoint 33">
       <r>  -43.4495    1.0000 </r>
       <r>   -2.0754    1.0000 </r>
       <r>    6.0627    0.0000 </r>
       <r>    9.6145    0.0000 </r>
       <r>   12.6491    0.0000 </r>
       <r>   16.5031    0.0000 </r>
      </set>
      <set comment="kpoint 34">
       <r>  -43.4455    1.0000 </r>
       <r>   -1.5431    1.0000 </r>
       <r>    5.0707    0.0000 </r>
       <r>    8.9322    0.0000 </r>
       <r>   13.0260    0.0000 </r>
       <r>   16.1652    0.0000 </r>
      </set>
      <set comment="kpoint 35">
       <r>  -43.4459    1.0000 </r>
       <r>   -1.6046    1.0000 </r>
       <r>    5.2110    0.0000 </r>
       <r>    8.5691    0.0000 </r>
       <r>   13.7162    0.0000 </r>
       <r>   15.9502    0.0000 </r>
      </set>
      <set comment="kpoint 36">
       <r>  -43.4505    1.0000 </r>
       <r>   -2.2081    1.0000 </r>
       <r>    6.4512    0.0000 </r>
       <r>    8.5032    0.0000 </r>
       <r>   14.7089    0.0000 </r>
       <r>   15.8901    0.0000 </r>
      </set>
      <set comment="kpoint 37">
       <r>  -43.4584    1.0000 </r>
       <r>   -2.9693    1.0000 </r>
       <r>    8.2445    0.0000 </r>
       <r>    8.8656    0.0000 </r>
       <r>   15.9695    0.0000 </r>
       <r>   15.9720    0.0000 </r>
      </set>
      <set comment="kpoint 38">
       <r>  -43.4594    1.0000 </r>
       <r>   -3.0184    1.0000 </r>
       <r>    8.3852    0.0000 </r>
       <r>   12.1628    0.0000 </r>
       <r>   12.1628    0.0000 </r>
       <r>   15.2962    0.0000 </r>
      </set>
      <set comment="kpoint 39">
       <r>  -43.4520    1.0000 </r>
       <r>   -2.3268    1.0000 </r>
       <r>    6.9186    0.0000 </r>
       <r>   10.8760    0.0000 </r>
       <r>   11.7946    0.0000 </r>
       <r>   15.8373    0.0000 </r>
      </set>
      <set comment="kpoint 40">
       <r>  -43.4456    1.0000 </r>
       <r>   -1.5435    1.0000 </r>
       <r>    5.5819    0.0000 </r>
       <r>    9.3230    0.0000 </r>
       <r>   11.7459    0.0000 </r>
       <r>   16.4924    0.0000 </r>
      </set>
      <set comment="kpoint 41">
       <r>  -43.4419    1.0000 </r>
       <r>   -0.9090    1.0000 </r>
       <r>    4.6858    0.0000 </r>
       <r>    8.1792    0.0000 </r>
       <r>   12.0177    0.0000 </r>
       <r>   16.3795    0.0000 </r>
      </set>
      <set comment="kpoint 42">
       <r>  -43.4415    1.0000 </r>
       <r>   -0.8546    1.0000 </r>
       <r>    4.7188    0.0000 </r>
       <r>    7.5163    0.0000 </r>
       <r>   12.6083    0.0000 </r>
       <r>   16.1645    0.0000 </r>
      </set>
      <set comment="kpoint 43">
       <r>  -43.4446    1.0000 </r>
       <r>   -1.4275    1.0000 </r>
       <r>    5.6515    0.0000 </r>
       <r>    7.4280    0.0000 </r>
       <r>   13.5114    0.0000 </r>
       <r>   15.9916    0.0000 </r>
      </set>
      <set comment="kpoint 44">
       <r>  -43.4465    1.0000 </r>
       <r>   -1.6483    1.0000 </r>
       <r>    5.6040    0.0000 </r>
       <r>   11.3157    0.0000 </r>
       <r>   11.3157    0.0000 </r>
       <r>   14.4098    0.0000 </r>
      </set>
      <set comment="kpoint 45">
       <r>  -43.4420    1.0000 </r>
       <r>   -0.8703    1.0000 </r>
       <r>    4.4233    0.0000 </r>
       <r>   10.1864    0.0000 </r>
       <r>   11.1575    0.0000 </r>
       <r>   15.1968    0.0000 </r>
      </set>
      <set comment="kpoint 46">
       <r>  -43.4393    1.0000 </r>
       <r>   -0.2454    0.9979 </r>
       <r>    3.7148    0.0000 </r>
       <r>    8.7417    0.0000 </r>
       <r>   11.3212    0.0000 </r>
       <r>   16.2824    0.0000 </r>
      </set>
      <set comment="kpoint 47">
       <r>  -43.4391    1.0000 </r>
       <r>   -0.2537    0.9981 </r>
       <r>    3.9098    0.0000 </r>
       <r>    7.7341    0.0000 </r>
       <r>   11.8062    0.0000 </r>
       <r>   16.3553    0.0000 </r>
      </set>
      <set comment="kpoint 48">
       <r>  -43.4393    1.0000 </r>
       <r>   -0.1697    0.9953 </r>
       <r>    3.3759    0.0000 </r>
       <r>   10.8896    0.0000 </r>
       <r>   10.8896    0.0000 </r>
       <r>   13.9663    0.0000 </r>
      </set>
      <set comment="kpoint 49">
       <r>  -43.4383    1.0000 </r>
       <r>    0.1519    0.9457 </r>
       <r>    3.0362    0.0000 </r>
       <r>    9.9612    0.0000 </r>
       <r>   10.9443    0.0000 </r>
       <r>   14.9820    0.0000 </r>
      </set>
      <set comment="kpoint 50">
       <r>  -43.4870    1.0000 </r>
       <r>   -4.6817    1.0000 </r>
       <r>   12.7612    0.0000 </r>
       <r>   13.6218    0.0000 </r>
       <r>   16.0004    0.0000 </r>
       <r>   18.5897    0.0000 </r>
      </set>
      <set comment="kpoint 51">
       <r>  -43.4765    1.0000 </r>
       <r>   -4.1680    1.0000 </r>
       <r>   10.4903    0.0000 </r>
       <r>   12.4972    0.0000 </r>
       <r>   15.5089    0.0000 </r>
       <r>   18.0960    0.0000 </r>
      </set>
      <set comment="kpoint 52">
       <r>  -43.4654    1.0000 </r>
       <r>   -3.4983    1.0000 </r>
       <r>    8.1336    0.0000 </r>
       <r>   11.8942    0.0000 </r>
       <r>   15.0176    0.0000 </r>
       <r>   17.3354    0.0000 </r>
      </set>
      <set comment="kpoint 53">
       <r>  -43.4562    1.0000 </r>
       <r>   -2.7785    1.0000 </r>
       <r>    6.2401    0.0000 </r>
       <r>   11.4941    0.0000 </r>
       <r>   14.7324    0.0000 </r>
       <r>   16.6119    0.0000 </r>
      </set>
      <set comment="kpoint 54">
       <r>  -43.4510    1.0000 </r>
       <r>   -2.2517    1.0000 </r>
       <r>    5.1163    0.0000 </r>
       <r>   11.2902    0.0000 </r>
       <r>   14.6428    0.0000 </r>
       <r>   16.1557    0.0000 </r>
      </set>
      <set comment="kpoint 55">
       <r>  -43.4729    1.0000 </r>
       <r>   -3.9564    1.0000 </r>
       <r>   10.7258    0.0000 </r>
       <r>   11.9561    0.0000 </r>
       <r>   14.0911    0.0000 </r>
       <r>   18.2599    0.0000 </r>
      </set>
      <set comment="kpoint 56">
       <r>  -43.4629    1.0000 </r>
       <r>   -3.3123    1.0000 </r>
       <r>    8.7750    0.0000 </r>
       <r>   10.7078    0.0000 </r>
       <r>   13.6517    0.0000 </r>
       <r>   17.4479    0.0000 </r>
      </set>
      <set comment="kpoint 57">
       <r>  -43.4541    1.0000 </r>
       <r>   -2.5667    1.0000 </r>
       <r>    6.8053    0.0000 </r>
       <r>    9.9805    0.0000 </r>
       <r>   13.3707    0.0000 </r>
       <r>   16.8908    0.0000 </r>
      </set>
      <set comment="kpoint 58">
       <r>  -43.4482    1.0000 </r>
       <r>   -1.9153    1.0000 </r>
       <r>    5.4178    0.0000 </r>
       <r>    9.5007    0.0000 </r>
       <r>   13.3697    0.0000 </r>
       <r>   16.4683    0.0000 </r>
      </set>
      <set comment="kpoint 59">
       <r>  -43.4468    1.0000 </r>
       <r>   -1.7203    1.0000 </r>
       <r>    5.0542    0.0000 </r>
       <r>    9.2521    0.0000 </r>
       <r>   13.6262    0.0000 </r>
       <r>   16.2885    0.0000 </r>
      </set>
      <set comment="kpoint 60">
       <r>  -43.4500    1.0000 </r>
       <r>   -2.1428    1.0000 </r>
       <r>    5.8956    0.0000 </r>
       <r>    9.2369    0.0000 </r>
       <r>   14.0706    0.0000 </r>
       <r>   16.4351    0.0000 </r>
      </set>
      <set comment="kpoint 61">
       <r>  -43.4572    1.0000 </r>
       <r>   -2.8682    1.0000 </r>
       <r>    7.6215    0.0000 </r>
       <r>    9.4496    0.0000 </r>
       <r>   14.6155    0.0000 </r>
       <r>   16.9329    0.0000 </r>
      </set>
      <set comment="kpoint 62">
       <r>  -43.4668    1.0000 </r>
       <r>   -3.5893    1.0000 </r>
       <r>    9.8250    0.0000 </r>
       <r>    9.9444    0.0000 </r>
       <r>   15.1672    0.0000 </r>
       <r>   17.6351    0.0000 </r>
      </set>
      <set comment="kpoint 63">
       <r>  -43.4581    1.0000 </r>
       <r>   -2.9174    1.0000 </r>
       <r>    8.2279    0.0000 </r>
       <r>   10.6782    0.0000 </r>
       <r>   12.5313    0.0000 </r>
       <r>   17.2143    0.0000 </r>
      </set>
      <set comment="kpoint 64">
       <r>  -43.4504    1.0000 </r>
       <r>   -2.1642    1.0000 </r>
       <r>    6.7514    0.0000 </r>
       <r>    9.2684    0.0000 </r>
       <r>   12.3047    0.0000 </r>
       <r>   17.1279    0.0000 </r>
      </set>
      <set comment="kpoint 65">
       <r>  -43.4448    1.0000 </r>
       <r>   -1.4291    1.0000 </r>
       <r>    5.4669    0.0000 </r>
       <r>    8.2963    0.0000 </r>
       <r>   12.3272    0.0000 </r>
       <r>   16.7805    0.0000 </r>
      </set>
      <set comment="kpoint 66">
       <r>  -43.4426    1.0000 </r>
       <r>   -1.0693    1.0000 </r>
       <r>    4.9321    0.0000 </r>
       <r>    7.7207    0.0000 </r>
       <r>   12.6325    0.0000 </r>
       <r>   16.5304    0.0000 </r>
      </set>
      <set comment="kpoint 67">
       <r>  -43.4444    1.0000 </r>
       <r>   -1.3846    1.0000 </r>
       <r>    5.5533    0.0000 </r>
       <r>    7.4850    0.0000 </r>
       <r>   13.1855    0.0000 </r>
       <r>   16.4505    0.0000 </r>
      </set>
      <set comment="kpoint 68">
       <r>  -43.4497    1.0000 </r>
       <r>   -2.1073    1.0000 </r>
       <r>    6.9494    0.0000 </r>
       <r>    7.6989    0.0000 </r>
       <r>   13.9035    0.0000 </r>
       <r>   16.5863    0.0000 </r>
      </set>
      <set comment="kpoint 69">
       <r>  -43.4460    1.0000 </r>
       <r>   -1.5838    1.0000 </r>
       <r>    5.6429    0.0000 </r>
       <r>    9.8182    0.0000 </r>
       <r>   11.5652    0.0000 </r>
       <r>   16.3439    0.0000 </r>
      </set>
      <set comment="kpoint 70">
       <r>  -43.4415    1.0000 </r>
       <r>   -0.8220    1.0000 </r>
       <r>    4.6302    0.0000 </r>
       <r>    8.4744    0.0000 </r>
       <r>   11.5681    0.0000 </r>
       <r>   16.9628    0.0000 </r>
      </set>
      <set comment="kpoint 71">
       <r>  -43.4395    1.0000 </r>
       <r>   -0.3985    0.9999 </r>
       <r>    4.2404    0.0000 </r>
       <r>    7.4523    0.0000 </r>
       <r>   11.8486    0.0000 </r>
       <r>   16.7800    0.0000 </r>
      </set>
      <set comment="kpoint 72">
       <r>  -43.4406    1.0000 </r>
       <r>   -0.6751    1.0000 </r>
       <r>    4.7811    0.0000 </r>
       <r>    6.9696    0.0000 </r>
       <r>   12.4031    0.0000 </r>
       <r>   16.5793    0.0000 </r>
      </set>
      <set comment="kpoint 73">
       <r>  -43.4392    1.0000 </r>
       <r>   -0.1856    0.9958 </r>
       <r>    3.5503    0.0000 </r>
       <r>    9.3864    0.0000 </r>
       <r>   11.1053    0.0000 </r>
       <r>   15.9072    0.0000 </r>
      </set>
      <set comment="kpoint 74">
       <r>  -43.4383    1.0000 </r>
       <r>    0.0341    1.0461 </r>
       <r>    3.4731    0.0000 </r>
       <r>    8.2252    0.0000 </r>
       <r>   11.3335    0.0000 </r>
       <r>   16.8951    0.0000 </r>
      </set>
      <set comment="kpoint 75">
       <r>  -43.4545    1.0000 </r>
       <r>   -2.6129    1.0000 </r>
       <r>    7.9421    0.0000 </r>
       <r>    8.6545    0.0000 </r>
       <r>   13.3044    0.0000 </r>
       <r>   17.4249    0.0000 </r>
      </set>
      <set comment="kpoint 76">
       <r>  -43.4476    1.0000 </r>
       <r>   -1.8430    1.0000 </r>
       <r>    6.3967    0.0000 </r>
       <r>    7.8871    0.0000 </r>
       <r>   12.9574    0.0000 </r>
       <r>   17.1247    0.0000 </r>
      </set>
      <set comment="kpoint 77">
       <r>  -43.4436    1.0000 </r>
       <r>   -1.2597    1.0000 </r>
       <r>    5.2744    0.0000 </r>
       <r>    7.6342    0.0000 </r>
       <r>   12.7680    0.0000 </r>
       <r>   16.8962    0.0000 </r>
      </set>
      <set comment="kpoint 78">
       <r>  -43.4445    1.0000 </r>
       <r>   -1.3919    1.0000 </r>
       <r>    5.8315    0.0000 </r>
       <r>    7.7882    0.0000 </r>
       <r>   12.1142    0.0000 </r>
       <r>   17.4924    0.0000 </r>
      </set>
      <set comment="kpoint 79">
       <r>  -43.4408    1.0000 </r>
       <r>   -0.7254    1.0000 </r>
       <r>    5.0983    0.0000 </r>
       <r>    6.8010    0.0000 </r>
       <r>   12.0632    0.0000 </r>
       <r>   17.3773    0.0000 </r>
      </set>
      <set comment="kpoint 80">
       <r>  -43.4400    1.0000 </r>
       <r>   -0.5781    1.0000 </r>
       <r>    5.0912    0.0000 </r>
       <r>    6.3302    0.0000 </r>
       <r>   12.2049    0.0000 </r>
       <r>   17.2443    0.0000 </r>
      </set>
      <set comment="kpoint 81">
       <r>  -43.4425    1.0000 </r>
       <r>   -1.0802    1.0000 </r>
       <r>    6.0804    0.0000 </r>
       <r>    6.2753    0.0000 </r>
       <r>   12.5217    0.0000 </r>
       <r>   17.1988    0.0000 </r>
      </set>
      <set comment="kpoint 82">
       <r>  -43.4389    1.0000 </r>
       <r>   -0.2135    0.9968 </r>
       <r>    4.1051    0.0000 </r>
       <r>    7.3537    0.0000 </r>
       <r>   11.5793    0.0000 </r>
       <r>   17.6053    0.0000 </r>
      </set>
      <set comment="kpoint 83">
       <r>  -43.4384    1.0000 </r>
       <r>   -0.1130    0.9965 </r>
       <r>    4.3447    0.0000 </r>
       <r>    6.4795    0.0000 </r>
       <r>   11.7924    0.0000 </r>
       <r>   17.4952    0.0000 </r>
      </set>
      <set comment="kpoint 84">
       <r>  -43.4385    1.0000 </r>
       <r>   -0.2026    0.9963 </r>
       <r>    5.0824    0.0000 </r>
       <r>    5.6447    0.0000 </r>
       <r>   11.9092    0.0000 </r>
       <r>   17.6748    0.0000 </r>
      </set>
     </set>
     <set comment="spin 2">
      <set comment="kpoint 1">
       <r>  -43.5047    1.0000 </r>
       <r>   -5.3884    1.0000 </r>
       <r>   16.3581    0.0000 </r>
       <r>   17.9763    0.0000 </r>
       <r>   17.9763    0.0000 </r>
       <r>   17.9764    0.0000 </r>
      </set>
      <set comment="kpoint 2">
       <r>  -43.5017    1.0000 </r>
       <r>   -5.2822    1.0000 </r>
       <r>   15.4076    0.0000 </r>
       <r>   17.3242    0.0000 </r>
       <r>   17.7192    0.0000 </r>
       <r>   17.7192    0.0000 </r>
      </set>
      <set comment="kpoint 3">
       <r>  -43.4937    1.0000 </r>
       <r>   -4.9700    1.0000 </r>
       <r>   13.0267    0.0000 </r>
       <r>   16.3411    0.0000 </r>
       <r>   17.2139    0.0000 </r>
       <r>   17.2139    0.0000 </r>
      </set>
      <set comment="kpoint 4">
       <r>  -43.4823    1.0000 </r>
       <r>   -4.4655    1.0000 </r>
       <r>   10.3955    0.0000 </r>
       <r>   15.4272    0.0000 </r>
       <r>   16.7765    0.0000 </r>
       <r>   16.7766    0.0000 </r>
      </set>
      <set comment="kpoint 5">
       <r>  -43.4702    1.0000 </r>
       <r>   -3.8119    1.0000 </r>
       <r>    8.0230    0.0000 </r>
       <r>   14.6630    0.0000 </r>
       <r>   16.5272    0.0000 </r>
       <r>   16.5272    0.0000 </r>
      </set>
      <set comment="kpoint 6">
       <r>  -43.4601    1.0000 </r>
       <r>   -3.1155    1.0000 </r>
       <r>    6.1456    0.0000 </r>
       <r>   14.1201    0.0000 </r>
       <r>   16.4728    0.0000 </r>
       <r>   16.4728    0.0000 </r>
      </set>
      <set comment="kpoint 7">
       <r>  -43.4544    1.0000 </r>
       <r>   -2.6125    1.0000 </r>
       <r>    5.0432    0.0000 </r>
       <r>   13.8397    0.0000 </r>
       <r>   16.5250    0.0000 </r>
       <r>   16.5250    0.0000 </r>
      </set>
      <set comment="kpoint 8">
       <r>  -43.5007    1.0000 </r>
       <r>   -5.2460    1.0000 </r>
       <r>   15.4885    0.0000 </r>
       <r>   16.8525    0.0000 </r>
       <r>   16.8525    0.0000 </r>
       <r>   18.5952    0.0000 </r>
      </set>
      <set comment="kpoint 9">
       <r>  -43.4944    1.0000 </r>
       <r>   -4.9998    1.0000 </r>
       <r>   13.8379    0.0000 </r>
       <r>   15.8653    0.0000 </r>
       <r>   16.0387    0.0000 </r>
       <r>   18.5836    0.0000 </r>
      </set>
      <set comment="kpoint 10">
       <r>  -43.4842    1.0000 </r>
       <r>   -4.5531    1.0000 </r>
       <r>   11.2778    0.0000 </r>
       <r>   14.9136    0.0000 </r>
       <r>   15.4359    0.0000 </r>
       <r>   18.1371    0.0000 </r>
      </set>
      <set comment="kpoint 11">
       <r>  -43.4723    1.0000 </r>
       <r>   -3.9364    1.0000 </r>
       <r>    8.8019    0.0000 </r>
       <r>   14.0694    0.0000 </r>
       <r>   15.1009    0.0000 </r>
       <r>   17.5632    0.0000 </r>
      </set>
      <set comment="kpoint 12">
       <r>  -43.4616    1.0000 </r>
       <r>   -3.2285    1.0000 </r>
       <r>    6.7319    0.0000 </r>
       <r>   13.4065    0.0000 </r>
       <r>   15.0529    0.0000 </r>
       <r>   16.9570    0.0000 </r>
      </set>
      <set comment="kpoint 13">
       <r>  -43.4545    1.0000 </r>
       <r>   -2.6172    1.0000 </r>
       <r>    5.3271    0.0000 </r>
       <r>   12.9711    0.0000 </r>
       <r>   15.2919    0.0000 </r>
       <r>   16.3871    0.0000 </r>
      </set>
      <set comment="kpoint 14">
       <r>  -43.4526    1.0000 </r>
       <r>   -2.4237    1.0000 </r>
       <r>    4.9349    0.0000 </r>
       <r>   12.7809    0.0000 </r>
       <r>   15.7979    0.0000 </r>
       <r>   15.9588    0.0000 </r>
      </set>
      <set comment="kpoint 15">
       <r>  -43.4564    1.0000 </r>
       <r>   -2.7954    1.0000 </r>
       <r>    5.7081    0.0000 </r>
       <r>   12.8327    0.0000 </r>
       <r>   15.7640    0.0000 </r>
       <r>   16.5093    0.0000 </r>
      </set>
      <set comment="kpoint 16">
       <r>  -43.4649    1.0000 </r>
       <r>   -3.4704    1.0000 </r>
       <r>    7.3754    0.0000 </r>
       <r>   13.1089    0.0000 </r>
       <r>   15.8542    0.0000 </r>
       <r>   17.2725    0.0000 </r>
      </set>
      <set comment="kpoint 17">
       <r>  -43.4763    1.0000 </r>
       <r>   -4.1614    1.0000 </r>
       <r>    9.6136    0.0000 </r>
       <r>   13.5897    0.0000 </r>
       <r>   16.2303    0.0000 </r>
       <r>   17.8785    0.0000 </r>
      </set>
      <set comment="kpoint 18">
       <r>  -43.4880    1.0000 </r>
       <r>   -4.7261    1.0000 </r>
       <r>   12.1764    0.0000 </r>
       <r>   14.2861    0.0000 </r>
       <r>   16.8122    0.0000 </r>
       <r>   18.2597    0.0000 </r>
      </set>
      <set comment="kpoint 19">
       <r>  -43.4971    1.0000 </r>
       <r>   -5.1067    1.0000 </r>
       <r>   14.4204    0.0000 </r>
       <r>   15.5517    0.0000 </r>
       <r>   17.3673    0.0000 </r>
       <r>   18.2777    0.0000 </r>
      </set>
      <set comment="kpoint 20">
       <r>  -43.4901    1.0000 </r>
       <r>   -4.8152    1.0000 </r>
       <r>   13.7571    0.0000 </r>
       <r>   15.0333    0.0000 </r>
       <r>   15.0333    0.0000 </r>
       <r>   18.3894    0.0000 </r>
      </set>
      <set comment="kpoint 21">
       <r>  -43.4816    1.0000 </r>
       <r>   -4.4224    1.0000 </r>
       <r>   11.9510    0.0000 </r>
       <r>   13.9235    0.0000 </r>
       <r>   14.2879    0.0000 </r>
       <r>   18.1606    0.0000 </r>
      </set>
      <set comment="kpoint 22">
       <r>  -43.4709    1.0000 </r>
       <r>   -3.8425    1.0000 </r>
       <r>    9.5779    0.0000 </r>
       <r>   12.7841    0.0000 </r>
       <r>   13.8352    0.0000 </r>
       <r>   17.5298    0.0000 </r>
      </set>
      <set comment="kpoint 23">
       <r>  -43.4604    1.0000 </r>
       <r>   -3.1322    1.0000 </r>
       <r>    7.3962    0.0000 </r>
       <r>   11.8512    0.0000 </r>
       <r>   13.6883    0.0000 </r>
       <r>   16.8942    0.0000 </r>
      </set>
      <set comment="kpoint 24">
       <r>  -43.4527    1.0000 </r>
       <r>   -2.4367    1.0000 </r>
       <r>    5.7452    0.0000 </r>
       <r>   11.1629    0.0000 </r>
       <r>   13.8513    0.0000 </r>
       <r>   16.3434    0.0000 </r>
      </set>
      <set comment="kpoint 25">
       <r>  -43.4494    1.0000 </r>
       <r>   -2.0604    1.0000 </r>
       <r>    4.9890    0.0000 </r>
       <r>   10.7336    0.0000 </r>
       <r>   14.3225    0.0000 </r>
       <r>   15.9554    0.0000 </r>
      </set>
      <set comment="kpoint 26">
       <r>  -43.4512    1.0000 </r>
       <r>   -2.2802    1.0000 </r>
       <r>    5.4240    0.0000 </r>
       <r>   10.5634    0.0000 </r>
       <r>   15.0917    0.0000 </r>
       <r>   15.7823    0.0000 </r>
      </set>
      <set comment="kpoint 27">
       <r>  -43.4578    1.0000 </r>
       <r>   -2.9238    1.0000 </r>
       <r>    6.8763    0.0000 </r>
       <r>   10.6430    0.0000 </r>
       <r>   15.8460    0.0000 </r>
       <r>   16.1299    0.0000 </r>
      </set>
      <set comment="kpoint 28">
       <r>  -43.4677    1.0000 </r>
       <r>   -3.6517    1.0000 </r>
       <r>    8.9850    0.0000 </r>
       <r>   10.9584    0.0000 </r>
       <r>   16.1249    0.0000 </r>
       <r>   17.3440    0.0000 </r>
      </set>
      <set comment="kpoint 29">
       <r>  -43.4786    1.0000 </r>
       <r>   -4.2773    1.0000 </r>
       <r>   11.3695    0.0000 </r>
       <r>   11.6340    0.0000 </r>
       <r>   16.5202    0.0000 </r>
       <r>   18.3593    0.0000 </r>
      </set>
      <set comment="kpoint 30">
       <r>  -43.4751    1.0000 </r>
       <r>   -4.0779    1.0000 </r>
       <r>   11.2713    0.0000 </r>
       <r>   13.4160    0.0000 </r>
       <r>   13.4160    0.0000 </r>
       <r>   16.6243    0.0000 </r>
      </set>
      <set comment="kpoint 31">
       <r>  -43.4663    1.0000 </r>
       <r>   -3.5334    1.0000 </r>
       <r>    9.6077    0.0000 </r>
       <r>   12.0973    0.0000 </r>
       <r>   12.8464    0.0000 </r>
       <r>   16.8819    0.0000 </r>
      </set>
      <set comment="kpoint 32">
       <r>  -43.4570    1.0000 </r>
       <r>   -2.8291    1.0000 </r>
       <r>    7.7310    0.0000 </r>
       <r>   10.6596    0.0000 </r>
       <r>   12.5894    0.0000 </r>
       <r>   16.8807    0.0000 </r>
      </set>
      <set comment="kpoint 33">
       <r>  -43.4495    1.0000 </r>
       <r>   -2.0754    1.0000 </r>
       <r>    6.0627    0.0000 </r>
       <r>    9.6145    0.0000 </r>
       <r>   12.6491    0.0000 </r>
       <r>   16.5031    0.0000 </r>
      </set>
      <set comment="kpoint 34">
       <r>  -43.4455    1.0000 </r>
       <r>   -1.5431    1.0000 </r>
       <r>    5.0707    0.0000 </r>
       <r>    8.9322    0.0000 </r>
       <r>   13.0260    0.0000 </r>
       <r>   16.1652    0.0000 </r>
      </set>
      <set comment="kpoint 35">
       <r>  -43.4459    1.0000 </r>
       <r>   -1.6046    1.0000 </r>
       <r>    5.2110    0.0000 </r>
       <r>    8.5691    0.0000 </r>
       <r>   13.7163    0.0000 </r>
       <r>   15.9502    0.0000 </r>
      </set>
      <set comment="kpoint 36">
       <r>  -43.4505    1.0000 </r>
       <r>   -2.2081    1.0000 </r>
       <r>    6.4512    0.0000 </r>
       <r>    8.5032    0.0000 </r>
       <r>   14.7089    0.0000 </r>
       <r>   15.8901    0.0000 </r>
      </set>
      <set comment="kpoint 37">
       <r>  -43.4584    1.0000 </r>
       <r>   -2.9693    1.0000 </r>
       <r>    8.2445    0.0000 </r>
       <r>    8.8656    0.0000 </r>
       <r>   15.9695    0.0000 </r>
       <r>   15.9720    0.0000 </r>
      </set>
      <set comment="kpoint 38">
       <r>  -43.4594    1.0000 </r>
       <r>   -3.0184    1.0000 </r>
       <r>    8.3852    0.0000 </r>
       <r>   12.1628    0.0000 </r>
       <r>   12.1628    0.0000 </r>
       <r>   15.2962    0.0000 </r>
      </set>
      <set comment="kpoint 39">
       <r>  -43.4520    1.0000 </r>
       <r>   -2.3268    1.0000 </r>
       <r>    6.9186    0.0000 </r>
       <r>   10.8760    0.0000 </r>
       <r>   11.7946    0.0000 </r>
       <r>   15.8373    0.0000 </r>
      </set>
      <set comment="kpoint 40">
       <r>  -43.4456    1.0000 </r>
       <r>   -1.5435    1.0000 </r>
       <r>    5.5819    0.0000 </r>
       <r>    9.3230    0.0000 </r>
       <r>   11.7459    0.0000 </r>
       <r>   16.4925    0.0000 </r>
      </set>
      <set comment="kpoint 41">
       <r>  -43.4419    1.0000 </r>
       <r>   -0.9090    1.0000 </r>
       <r>    4.6858    0.0000 </r>
       <r>    8.1792    0.0000 </r>
       <r>   12.0177    0.0000 </r>
       <r>   16.3795    0.0000 </r>
      </set>
      <set comment="kpoint 42">
       <r>  -43.4415    1.0000 </r>
       <r>   -0.8546    1.0000 </r>
       <r>    4.7188    0.0000 </r>
       <r>    7.5163    0.0000 </r>
       <r>   12.6083    0.0000 </r>
       <r>   16.1645    0.0000 </r>
      </set>
      <set comment="kpoint 43">
       <r>  -43.4446    1.0000 </r>
       <r>   -1.4275    1.0000 </r>
       <r>    5.6515    0.0000 </r>
       <r>    7.4280    0.0000 </r>
       <r>   13.5114    0.0000 </r>
       <r>   15.9916    0.0000 </r>
      </set>
      <set comment="kpoint 44">
       <r>  -43.4465    1.0000 </r>
       <r>   -1.6483    1.0000 </r>
       <r>    5.6040    0.0000 </r>
       <r>   11.3157    0.0000 </r>
       <r>   11.3157    0.0000 </r>
       <r>   14.4098    0.0000 </r>
      </set>
      <set comment="kpoint 45">
       <r>  -43.4420    1.0000 </r>
       <r>   -0.8703    1.0000 </r>
       <r>    4.4233    0.0000 </r>
       <r>   10.1864    0.0000 </r>
       <r>   11.1575    0.0000 </r>
       <r>   15.1968    0.0000 </r>
      </set>
      <set comment="kpoint 46">
       <r>  -43.4393    1.0000 </r>
       <r>   -0.2454    0.9979 </r>
       <r>    3.7148    0.0000 </r>
       <r>    8.7417    0.0000 </r>
       <r>   11.3212    0.0000 </r>
       <r>   16.2824    0.0000 </r>
      </set>
      <set comment="kpoint 47">
       <r>  -43.4391    1.0000 </r>
       <r>   -0.2537    0.9981 </r>
       <r>    3.9098    0.0000 </r>
       <r>    7.7341    0.0000 </r>
       <r>   11.8062    0.0000 </r>
       <r>   16.3553    0.0000 </r>
      </set>
      <set comment="kpoint 48">
       <r>  -43.4393    1.0000 </r>
       <r>   -0.1697    0.9953 </r>
       <r>    3.3759    0.0000 </r>
       <r>   10.8896    0.0000 </r>
       <r>   10.8896    0.0000 </r>
       <r>   13.9663    0.0000 </r>
      </set>
      <set comment="kpoint 49">
       <r>  -43.4383    1.0000 </r>
       <r>    0.1519    0.9457 </r>
       <r>    3.0362    0.0000 </r>
       <r>    9.9612    0.0000 </r>
       <r>   10.9443    0.0000 </r>
       <r>   14.9820    0.0000 </r>
      </set>
      <set comment="kpoint 50">
       <r>  -43.4870    1.0000 </r>
       <r>   -4.6817    1.0000 </r>
       <r>   12.7612    0.0000 </r>
       <r>   13.6218    0.0000 </r>
       <r>   16.0004    0.0000 </r>
       <r>   18.5897    0.0000 </r>
      </set>
      <set comment="kpoint 51">
       <r>  -43.4765    1.0000 </r>
       <r>   -4.1680    1.0000 </r>
       <r>   10.4903    0.0000 </r>
       <r>   12.4972    0.0000 </r>
       <r>   15.5089    0.0000 </r>
       <r>   18.0960    0.0000 </r>
      </set>
      <set comment="kpoint 52">
       <r>  -43.4654    1.0000 </r>
       <r>   -3.4983    1.0000 </r>
       <r>    8.1336    0.0000 </r>
       <r>   11.8942    0.0000 </r>
       <r>   15.0176    0.0000 </r>
       <r>   17.3354    0.0000 </r>
      </set>
      <set comment="kpoint 53">
       <r>  -43.4562    1.0000 </r>
       <r>   -2.7785    1.0000 </r>
       <r>    6.2401    0.0000 </r>
       <r>   11.4941    0.0000 </r>
       <r>   14.7324    0.0000 </r>
       <r>   16.6119    0.0000 </r>
      </set>
      <set comment="kpoint 54">
       <r>  -43.4510    1.0000 </r>
       <r>   -2.2517    1.0000 </r>
       <r>    5.1163    0.0000 </r>
       <r>   11.2902    0.0000 </r>
       <r>   14.6428    0.0000 </r>
       <r>   16.1557    0.0000 </r>
      </set>
      <set comment="kpoint 55">
       <r>  -43.4729    1.0000 </r>
       <r>   -3.9564    1.0000 </r>
       <r>   10.7258    0.0000 </r>
       <r>   11.9561    0.0000 </r>
       <r>   14.0911    0.0000 </r>
       <r>   17.9690    0.0000 </r>
      </set>
      <set comment="kpoint 56">
       <r>  -43.4629    1.0000 </r>
       <r>   -3.3123    1.0000 </r>
       <r>    8.7750    0.0000 </r>
       <r>   10.7078    0.0000 </r>
       <r>   13.6517    0.0000 </r>
       <r>   17.4479    0.0000 </r>
      </set>
      <set comment="kpoint 57">
       <r>  -43.4541    1.0000 </r>
       <r>   -2.5667    1.0000 </r>
       <r>    6.8053    0.0000 </r>
       <r>    9.9805    0.0000 </r>
       <r>   13.3707    0.0000 </r>
       <r>   16.8908    0.0000 </r>
      </set>
      <set comment="kpoint 58">
       <r>  -43.4482    1.0000 </r>
       <r>   -1.9153    1.0000 </r>
       <r>    5.4178    0.0000 </r>
       <r>    9.5007    0.0000 </r>
       <r>   13.3697    0.0000 </r>
       <r>   16.4683    0.0000 </r>
      </set>
      <set comment="kpoint 59">
       <r>  -43.4468    1.0000 </r>
       <r>   -1.7203    1.0000 </r>
       <r>    5.0542    0.0000 </r>
       <r>    9.2521    0.0000 </r>
       <r>   13.6263    0.0000 </r>
       <r>   16.2885    0.0000 </r>
      </set>
      <set comment="kpoint 60">
       <r>  -43.4500    1.0000 </r>
       <r>   -2.1428    1.0000 </r>
       <r>    5.8956    0.0000 </r>
       <r>    9.2369    0.0000 </r>
       <r>   14.0706    0.0000 </r>
       <r>   16.4351    0.0000 </r>
      </set>
      <set comment="kpoint 61">
       <r>  -43.4572    1.0000 </r>
       <r>   -2.8682    1.0000 </r>
       <r>    7.6215    0.0000 </r>
       <r>    9.4496    0.0000 </r>
       <r>   14.6155    0.0000 </r>
       <r>   16.9329    0.0000 </r>
      </set>
      <set comment="kpoint 62">
       <r>  -43.4668    1.0000 </r>
       <r>   -3.5893    1.0000 </r>
       <r>    9.8250    0.0000 </r>
       <r>    9.9444    0.0000 </r>
       <r>   15.1672    0.0000 </r>
       <r>   17.6351    0.0000 </r>
      </set>
      <set comment="kpoint 63">
       <r>  -43.4581    1.0000 </r>
       <r>   -2.9174    1.0000 </r>
       <r>    8.2279    0.0000 </r>
       <r>   10.6782    0.0000 </r>
       <r>   12.5313    0.0000 </r>
       <r>   17.2142    0.0000 </r>
      </set>
      <set comment="kpoint 64">
       <r>  -43.4504    1.0000 </r>
       <r>   -2.1642    1.0000 </r>
       <r>    6.7514    0.0000 </r>
       <r>    9.2684    0.0000 </r>
       <r>   12.3047    0.0000 </r>
       <r>   17.1279    0.0000 </r>
      </set>
      <set comment="kpoint 65">
       <r>  -43.4448    1.0000 </r>
       <r>   -1.4291    1.0000 </r>
       <r>    5.4669    0.0000 </r>
       <r>    8.2963    0.0000 </r>
       <r>   12.3272    0.0000 </r>
       <r>   16.7805    0.0000 </r>
      </set>
      <set comment="kpoint 66">
       <r>  -43.4426    1.0000 </r>
       <r>   -1.0693    1.0000 </r>
       <r>    4.9321    0.0000 </r>
       <r>    7.7207    0.0000 </r>
       <r>   12.6325    0.0000 </r>
       <r>   16.5304    0.0000 </r>
      </set>
      <set comment="kpoint 67">
       <r>  -43.4444    1.0000 </r>
       <r>   -1.3846    1.0000 </r>
       <r>    5.5533    0.0000 </r>
       <r>    7.4850    0.0000 </r>
       <r>   13.1855    0.0000 </r>
       <r>   16.4505    0.0000 </r>
      </set>
      <set comment="kpoint 68">
       <r>  -43.4497    1.0000 </r>
       <r>   -2.1073    1.0000 </r>
       <r>    6.9494    0.0000 </r>
       <r>    7.6989    0.0000 </r>
       <r>   13.9035    0.0000 </r>
       <r>   16.5863    0.0000 </r>
      </set>
      <set comment="kpoint 69">
       <r>  -43.4460    1.0000 </r>
       <r>   -1.5838    1.0000 </r>
       <r>    5.6429    0.0000 </r>
       <r>    9.8182    0.0000 </r>
       <r>   11.5652    0.0000 </r>
       <r>   16.3439    0.0000 </r>
      </set>
      <set comment="kpoint 70">
       <r>  -43.4415    1.0000 </r>
       <r>   -0.8220    1.0000 </r>
       <r>    4.6302    0.0000 </r>
       <r>    8.4744    0.0000 </r>
       <r>   11.5681    0.0000 </r>
       <r>   16.9630    0.0000 </r>
      </set>
      <set comment="kpoint 71">
       <r>  -43.4395    1.0000 </r>
       <r>   -0.3985    0.9999 </r>
       <r>    4.2404    0.0000 </r>
       <r>    7.4523    0.0000 </r>
       <r>   11.8486    0.0000 </r>
       <r>   16.7800    0.0000 </r>
      </set>
      <set comment="kpoint 72">
       <r>  -43.4406    1.0000 </r>
       <r>   -0.6751    1.0000 </r>
       <r>    4.7811    0.0000 </r>
       <r>    6.9696    0.0000 </r>
       <r>   12.4031    0.0000 </r>
       <r>   16.5793    0.0000 </r>
      </set>
      <set comment="kpoint 73">
       <r>  -43.4392    1.0000 </r>
       <r>   -0.1856    0.9958 </r>
       <r>    3.5503    0.0000 </r>
       <r>    9.3864    0.0000 </r>
       <r>   11.1053    0.0000 </r>
       <r>   15.9072    0.0000 </r>
      </set>
      <set comment="kpoint 74">
       <r>  -43.4383    1.0000 </r>
       <r>    0.0341    1.0461 </r>
       <r>    3.4731    0.0000 </r>
       <r>    8.2252    0.0000 </r>
       <r>   11.3335    0.0000 </r>
       <r>   16.8950    0.0000 </r>
      </set>
      <set comment="kpoint 75">
       <r>  -43.4545    1.0000 </r>
       <r>   -2.6129    1.0000 </r>
       <r>    7.9421    0.0000 </r>
       <r>    8.6545    0.0000 </r>
       <r>   13.3044    0.0000 </r>
       <r>   17.4249    0.0000 </r>
      </set>
      <set comment="kpoint 76">
       <r>  -43.4476    1.0000 </r>
       <r>   -1.8430    1.0000 </r>
       <r>    6.3967    0.0000 </r>
       <r>    7.8871    0.0000 </r>
       <r>   12.9574    0.0000 </r>
       <r>   17.1247    0.0000 </r>
      </set>
      <set comment="kpoint 77">
       <r>  -43.4436    1.0000 </r>
       <r>   -1.2597    1.0000 </r>
       <r>    5.2744    0.0000 </r>
       <r>    7.6342    0.0000 </r>
       <r>   12.7680    0.0000 </r>
       <r>   16.8962    0.0000 </r>
      </set>
      <set comment="kpoint 78">
       <r>  -43.4445    1.0000 </r>
       <r>   -1.3919    1.0000 </r>
       <r>    5.8315    0.0000 </r>
       <r>    7.7882    0.0000 </r>
       <r>   12.1142    0.0000 </r>
       <r>   17.4924    0.0000 </r>
      </set>
      <set comment="kpoint 79">
       <r>  -43.4408    1.0000 </r>
       <r>   -0.7254    1.0000 </r>
       <r>    5.0983    0.0000 </r>
       <r>    6.8010    0.0000 </r>
       <r>   12.0632    0.0000 </r>
       <r>   17.3773    0.0000 </r>
      </set>
      <set comment="kpoint 80">
       <r>  -43.4400    1.0000 </r>
       <r>   -0.5781    1.0000 </r>
       <r>    5.0912    0.0000 </r>
       <r>    6.3302    0.0000 </r>
       <r>   12.2049    0.0000 </r>
       <r>   17.2443    0.0000 </r>
      </set>
      <set comment="kpoint 81">
       <r>  -43.4425    1.0000 </r>
       <r>   -1.0802    1.0000 </r>
       <r>    6.0804    0.0000 </r>
       <r>    6.2753    0.0000 </r>
       <r>   12.5217    0.0000 </r>
       <r>   17.1988    0.0000 </r>
      </set>
      <set comment="kpoint 82">
       <r>  -43.4389    1.0000 </r>
       <r>   -0.2135    0.9968 </r>
       <r>    4.1051    0.0000 </r>
       <r>    7.3537    0.0000 </r>
       <r>   11.5793    0.0000 </r>
       <r>   17.6053    0.0000 </r>
      </set>
      <set comment="kpoint 83">
       <r>  -43.4384    1.0000 </r>
       <r>   -0.1130    0.9965 </r>
       <r>    4.3447    0.0000 </r>
       <r>    6.4795    0.0000 </r>
       <r>   11.7924    0.0000 </r>
       <r>   17.4952    0.0000 </r>
      </set>
      <set comment="kpoint 84">
       <r>  -43.4385    1.0000 </r>
       <r>   -0.2026    0.9963 </r>
       <r>    5.0824    0.0000 </r>
       <r>    5.6447    0.0000 </r>
       <r>   11.9092    0.0000 </r>
       <r>   17.6748    0.0000 </r>
      </set>
     </set>
    </set>
   </array>
  </eigenvalues>
  <separator name="orbital magnetization" >
   <v name="MAGDIPOLOUT">      0.00000000      0.00000000      0.00000000</v>
  </separator>
  <dos>
   <i name="efermi">      0.25454663 </i>
   <total>
    <array>
     <dimension dim="1">gridpoints</dimension>
     <dimension dim="2">spin</dimension>
     <field>energy</field>
     <field>total</field>
     <field>integrated</field>
     <set>
      <set comment="spin 1">
       <r>   -46.6097     0.0000     0.0000 </r>
       <r>   -46.3820     0.0000     0.0000 </r>
       <r>   -46.1543     0.0000     0.0000 </r>
       <r>   -45.9266     0.0000     0.0000 </r>
       <r>   -45.6989     0.0000     0.0000 </r>
       <r>   -45.4712     0.0000     0.0000 </r>
       <r>   -45.2435     0.0000     0.0000 </r>
       <r>   -45.0158     0.0000     0.0000 </r>
       <r>   -44.7881     0.0000     0.0000 </r>
       <r>   -44.5604     0.0000     0.0000 </r>
       <r>   -44.3327     0.0000     0.0000 </r>
       <r>   -44.1050     0.0004     0.0001 </r>
       <r>   -43.8773     0.0198     0.0046 </r>
       <r>   -43.6496    -0.2384    -0.0497 </r>
       <r>   -43.4219     3.1437     0.6661 </r>
       <r>   -43.1942     1.5905     1.0283 </r>
       <r>   -42.9665    -0.1353     0.9975 </r>
       <r>   -42.7388     0.0109     1.0000 </r>
       <r>   -42.5111     0.0001     1.0000 </r>
       <r>   -42.2834     0.0000     1.0000 </r>
       <r>   -42.0557     0.0000     1.0000 </r>
       <r>   -41.8280     0.0000     1.0000 </r>
       <r>   -41.6003     0.0000     1.0000 </r>
       <r>   -41.3726     0.0000     1.0000 </r>
       <r>   -41.1449     0.0000     1.0000 </r>
       <r>   -40.9172     0.0000     1.0000 </r>
       <r>   -40.6895     0.0000     1.0000 </r>
       <r>   -40.4618     0.0000     1.0000 </r>
       <r>   -40.2341     0.0000     1.0000 </r>
       <r>   -40.0064     0.0000     1.0000 </r>
       <r>   -39.7787     0.0000     1.0000 </r>
       <r>   -39.5510     0.0000     1.0000 </r>
       <r>   -39.3233     0.0000     1.0000 </r>
       <r>   -39.0956     0.0000     1.0000 </r>
       <r>   -38.8679     0.0000     1.0000 </r>
       <r>   -38.6402     0.0000     1.0000 </r>
       <r>   -38.4125     0.0000     1.0000 </r>
       <r>   -38.1848     0.0000     1.0000 </r>
       <r>   -37.9571     0.0000     1.0000 </r>
       <r>   -37.7294     0.0000     1.0000 </r>
       <r>   -37.5017     0.0000     1.0000 </r>
       <r>   -37.2740     0.0000     1.0000 </r>
       <r>   -37.0463     0.0000     1.0000 </r>
       <r>   -36.8186     0.0000     1.0000 </r>
       <r>   -36.5909     0.0000     1.0000 </r>
       <r>   -36.3632     0.0000     1.0000 </r>
       <r>   -36.1355     0.0000     1.0000 </r>
       <r>   -35.9078     0.0000     1.0000 </r>
       <r>   -35.6801     0.0000     1.0000 </r>
       <r>   -35.4524     0.0000     1.0000 </r>
       <r>   -35.2247     0.0000     1.0000 </r>
       <r>   -34.9970     0.0000     1.0000 </r>
       <r>   -34.7693     0.0000     1.0000 </r>
       <r>   -34.5416     0.0000     1.0000 </r>
       <r>   -34.3139     0.0000     1.0000 </r>
       <r>   -34.0862     0.0000     1.0000 </r>
       <r>   -33.8585     0.0000     1.0000 </r>
       <r>   -33.6308     0.0000     1.0000 </r>
       <r>   -33.4031     0.0000     1.0000 </r>
       <r>   -33.1754     0.0000     1.0000 </r>
       <r>   -32.9477     0.0000     1.0000 </r>
       <r>   -32.7200     0.0000     1.0000 </r>
       <r>   -32.4923     0.0000     1.0000 </r>
       <r>   -32.2646     0.0000     1.0000 </r>
       <r>   -32.0369     0.0000     1.0000 </r>
       <r>   -31.8092     0.0000     1.0000 </r>
       <r>   -31.5815     0.0000     1.0000 </r>
       <r>   -31.3538     0.0000     1.0000 </r>
       <r>   -31.1261     0.0000     1.0000 </r>
       <r>   -30.8984     0.0000     1.0000 </r>
       <r>   -30.6707     0.0000     1.0000 </r>
       <r>   -30.4430     0.0000     1.0000 </r>
       <r>   -30.2153     0.0000     1.0000 </r>
       <r>   -29.9876     0.0000     1.0000 </r>
       <r>   -29.7599     0.0000     1.0000 </r>
       <r>   -29.5322     0.0000     1.0000 </r>
       <r>   -29.3045     0.0000     1.0000 </r>
       <r>   -29.0768     0.0000     1.0000 </r>
       <r>   -28.8491     0.0000     1.0000 </r>
       <r>   -28.6214     0.0000     1.0000 </r>
       <r>   -28.3937     0.0000     1.0000 </r>
       <r>   -28.1660     0.0000     1.0000 </r>
       <r>   -27.9383     0.0000     1.0000 </r>
       <r>   -27.7106     0.0000     1.0000 </r>
       <r>   -27.4829     0.0000     1.0000 </r>
       <r>   -27.2552     0.0000     1.0000 </r>
       <r>   -27.0275     0.0000     1.0000 </r>
       <r>   -26.7998     0.0000     1.0000 </r>
       <r>   -26.5721     0.0000     1.0000 </r>
       <r>   -26.3444     0.0000     1.0000 </r>
       <r>   -26.1167     0.0000     1.0000 </r>
       <r>   -25.8890     0.0000     1.0000 </r>
       <r>   -25.6613     0.0000     1.0000 </r>
       <r>   -25.4336     0.0000     1.0000 </r>
       <r>   -25.2059     0.0000     1.0000 </r>
       <r>   -24.9782     0.0000     1.0000 </r>
       <r>   -24.7505     0.0000     1.0000 </r>
       <r>   -24.5228     0.0000     1.0000 </r>
       <r>   -24.2951     0.0000     1.0000 </r>
       <r>   -24.0674     0.0000     1.0000 </r>
[...]
        <r>  0.0000  0.0000  0.0000  0.0000  0.0000  0.0000  0.0000  0.0000  0.0000 </r>
       </set>
       <set comment="band 2">
        <r>  0.0034  0.0182  0.0064  0.0080  0.0000  0.0000  0.0000  0.0000  0.0000 </r>
        <r>  0.3413  0.0000  0.0004  0.0001  0.0000  0.0000  0.0000  0.0000  0.0000 </r>
       </set>
       <set comment="band 3">
        <r>  0.0033  0.0021  0.1601  0.0027  0.0000  0.0000  0.0000  0.0000  0.0000 </r>
        <r>  0.0157  0.0003  0.0190  0.0003  0.0000  0.0000  0.0000  0.0000  0.0000 </r>
       </set>
       <set comment="band 4">
        <r>  0.0361  0.0058  0.0053  0.1370  0.0000  0.0000  0.0000  0.0000  0.0000 </r>
        <r>  0.0229  0.0036  0.0003  0.0181  0.0000  0.0000  0.0000  0.0000  0.0000 </r>
       </set>
       <set comment="band 5">
        <r>  0.0739  0.1663  0.0030  0.1083  0.0000  0.0000  0.0000  0.0000  0.0000 </r>
        <r>  0.0004  0.0283  0.0000  0.0048  0.0000  0.0000  0.0000  0.0000  0.0000 </r>
       </set>
       <set comment="band 6">
        <r>  0.1673  0.2747  0.0091  0.0000  0.0000  0.0000  0.0000  0.0000  0.0000 </r>
        <r>  0.0905  0.0001  0.0000  0.0029  0.0000  0.0000  0.0000  0.0000  0.0000 </r>
       </set>
      </set>
      <set comment="kpoint 72">
       <set comment="band 1">
        <r>  0.9899  0.0000  0.0000  0.0000  0.0000  0.0000  0.0000  0.0000  0.0000 </r>
        <r>  0.0000  0.0000  0.0000  0.0000  0.0000  0.0000  0.0000  0.0000  0.0000 </r>
       </set>
       <set comment="band 2">
        <r>  0.0001  0.0232  0.0000  0.0173  0.0000  0.0000  0.0000  0.0000  0.0000 </r>
        <r>  0.3273  0.0001  0.0000  0.0004  0.0000  0.0000  0.0000  0.0000  0.0000 </r>
       </set>
       <set comment="band 3">
        <r>  0.0000  0.0000  0.1804  0.0000  0.0000  0.0000  0.0000  0.0000  0.0000 </r>
        <r>  0.0000  0.0000  0.0200  0.0000  0.0000  0.0000  0.0000  0.0000  0.0000 </r>
       </set>
       <set comment="band 4">
        <r>  0.0609  0.0014  0.0000  0.0895  0.0000  0.0000  0.0000  0.0000  0.0000 </r>
        <r>  0.0514  0.0051  0.0000  0.0169  0.0000  0.0000  0.0000  0.0000  0.0000 </r>
       </set>
       <set comment="band 5">
        <r>  0.0822  0.1055  0.0000  0.1704  0.0000  0.0000  0.0000  0.0000  0.0000 </r>
        <r>  0.0001  0.0264  0.0000  0.0056  0.0000  0.0000  0.0000  0.0000  0.0000 </r>
       </set>
       <set comment="band 6">
        <r>  0.1136  0.4061  0.0000  0.0021  0.0000  0.0000  0.0000  0.0000  0.0000 </r>
        <r>  0.1020  0.0001  0.0000  0.0029  0.0000  0.0000  0.0000  0.0000  0.0000 </r>
       </set>
      </set>
      <set comment="kpoint 73">
       <set comment="band 1">
        <r>  0.9900  0.0000  0.0000  0.0000  0.0000  0.0000  0.0000  0.0000  0.0000 </r>
        <r>  0.0000  0.0000  0.0000  0.0000  0.0000  0.0000  0.0000  0.0000  0.0000 </r>
       </set>
       <set comment="band 2">
        <r>  0.0155  0.0055  0.0118  0.0000  0.0000  0.0000  0.0000  0.0000  0.0000 </r>
        <r>  0.3428  0.0000  0.0010  0.0000  0.0000  0.0000  0.0000  0.0000  0.0000 </r>
       </set>
       <set comment="band 3">
        <r>  0.0000  0.0011  0.1522  0.0000  0.0000  0.0000  0.0000  0.0000  0.0000 </r>
        <r>  0.0402  0.0000  0.0185  0.0000  0.0000  0.0000  0.0000  0.0000  0.0000 </r>
       </set>
       <set comment="band 4">
        <r>  0.0000  0.0000  0.0000  0.2701  0.0000  0.0000  0.0000  0.0000  0.0000 </r>
        <r>  0.0000  0.0000  0.0000  0.0253  0.0000  0.0000  0.0000  0.0000  0.0000 </r>
       </set>
       <set comment="band 5">
        <r>  0.0387  0.3203  0.0013  0.0000  0.0000  0.0000  0.0000  0.0000  0.0000 </r>
        <r>  0.0010  0.0342  0.0000  0.0000  0.0000  0.0000  0.0000  0.0000  0.0000 </r>
       </set>
       <set comment="band 6">
        <r>  0.0000  0.0000  0.0000  0.1249  0.0000  0.0000  0.0000  0.0000  0.0000 </r>
        <r>  0.0000  0.0000  0.0000  0.0087  0.0000  0.0000  0.0000  0.0000  0.0000 </r>
       </set>
      </set>
      <set comment="kpoint 74">
       <set comment="band 1">
        <r>  0.9900  0.0000  0.0000  0.0000  0.0000  0.0000  0.0000  0.0000  0.0000 </r>
        <r>  0.0000  0.0000  0.0000  0.0000  0.0000  0.0000  0.0000  0.0000  0.0000 </r>
       </set>
       <set comment="band 2">
        <r>  0.0087  0.0130  0.0000  0.0022  0.0000  0.0000  0.0000  0.0000  0.0000 </r>
        <r>  0.3758  0.0000  0.0000  0.0000  0.0000  0.0000  0.0000  0.0000  0.0000 </r>
       </set>
       <set comment="band 3">
        <r>  0.0000  0.0000  0.1685  0.0000  0.0000  0.0000  0.0000  0.0000  0.0000 </r>
        <r>  0.0000  0.0000  0.0195  0.0000  0.0000  0.0000  0.0000  0.0000  0.0000 </r>
       </set>
       <set comment="band 4">
        <r>  0.0144  0.0084  0.0000  0.2001  0.0000  0.0000  0.0000  0.0000  0.0000 </r>
        <r>  0.0038  0.0020  0.0000  0.0211  0.0000  0.0000  0.0000  0.0000  0.0000 </r>
       </set>
       <set comment="band 5">
        <r>  0.0639  0.2372  0.0000  0.0468  0.0000  0.0000  0.0000  0.0000  0.0000 </r>
        <r>  0.0009  0.0311  0.0000  0.0027  0.0000  0.0000  0.0000  0.0000  0.0000 </r>
       </set>
       <set comment="band 6">
        <r>  0.1655  0.0988  0.0000  0.0317  0.0000  0.0000  0.0000  0.0000  0.0000 </r>
        <r>  0.0574  0.0002  0.0000  0.0052  0.0000  0.0000  0.0000  0.0000  0.0000 </r>
       </set>
      </set>
      <set comment="kpoint 75">
       <set comment="band 1">
        <r>  0.9891  0.0000  0.0000  0.0000  0.0000  0.0000  0.0000  0.0000  0.0000 </r>
        <r>  0.0000  0.0000  0.0000  0.0000  0.0000  0.0000  0.0000  0.0000  0.0000 </r>
       </set>
       <set comment="band 2">
        <r>  0.0285  0.0101  0.0241  0.0000  0.0000  0.0000  0.0000  0.0000  0.0000 </r>
        <r>  0.2397  0.0001  0.0013  0.0000  0.0000  0.0000  0.0000  0.0000  0.0000 </r>
       </set>
       <set comment="band 3">
        <r>  0.0468  0.0213  0.0557  0.0000  0.0000  0.0000  0.0000  0.0000  0.0000 </r>
        <r>  0.1520  0.0045  0.0180  0.0000  0.0000  0.0000  0.0000  0.0000  0.0000 </r>
       </set>
       <set comment="band 4">
        <r>  0.0000  0.0000  0.0000  0.2326  0.0000  0.0000  0.0000  0.0000  0.0000 </r>
        <r>  0.0000  0.0000  0.0000  0.0222  0.0000  0.0000  0.0000  0.0000  0.0000 </r>
       </set>
       <set comment="band 5">
        <r>  0.0806  0.1256  0.1619  0.0000  0.0000  0.0000  0.0000  0.0000  0.0000 </r>
        <r>  0.0229  0.0265  0.0018  0.0000  0.0000  0.0000  0.0000  0.0000  0.0000 </r>
       </set>
       <set comment="band 6">
        <r>  0.0590  0.5457  0.1526  0.0000  0.0000  0.0000  0.0000  0.0000  0.0000 </r>
        <r>  0.0891  0.0000  0.0002  0.0000  0.0000  0.0000  0.0000  0.0000  0.0000 </r>
       </set>
      </set>
      <set comment="kpoint 76">
       <set comment="band 1">
        <r>  0.9895  0.0000  0.0000  0.0000  0.0000  0.0000  0.0000  0.0000  0.0000 </r>
        <r>  0.0000  0.0000  0.0000  0.0000  0.0000  0.0000  0.0000  0.0000  0.0000 </r>
       </set>
       <set comment="band 2">
        <r>  0.0147  0.0158  0.0246  0.0013  0.0000  0.0000  0.0000  0.0000  0.0000 </r>
        <r>  0.2656  0.0001  0.0012  0.0000  0.0000  0.0000  0.0000  0.0000  0.0000 </r>
       </set>
       <set comment="band 3">
        <r>  0.0415  0.0080  0.0417  0.0649  0.0000  0.0000  0.0000  0.0000  0.0000 </r>
        <r>  0.0557  0.0031  0.0110  0.0075  0.0000  0.0000  0.0000  0.0000  0.0000 </r>
       </set>
       <set comment="band 4">
        <r>  0.0045  0.0035  0.0399  0.1366  0.0000  0.0000  0.0000  0.0000  0.0000 </r>
        <r>  0.0647  0.0005  0.0070  0.0136  0.0000  0.0000  0.0000  0.0000  0.0000 </r>
       </set>
       <set comment="band 5">
        <r>  0.1242  0.0447  0.1438  0.0183  0.0000  0.0000  0.0000  0.0000  0.0000 </r>
        <r>  0.0089  0.0277  0.0016  0.0004  0.0000  0.0000  0.0000  0.0000  0.0000 </r>
       </set>
       <set comment="band 6">
        <r>  0.0213  0.6458  0.0628  0.0018  0.0000  0.0000  0.0000  0.0000  0.0000 </r>
        <r>  0.1053  0.0000  0.0006  0.0005  0.0000  0.0000  0.0000  0.0000  0.0000 </r>
       </set>
      </set>
      <set comment="kpoint 77">
       <set comment="band 1">
        <r>  0.9897  0.0000  0.0000  0.0000  0.0000  0.0000  0.0000  0.0000  0.0000 </r>
        <r>  0.0000  0.0000  0.0000  0.0000  0.0000  0.0000  0.0000  0.0000  0.0000 </r>
       </set>
       <set comment="band 2">
        <r>  0.0022  0.0213  0.0185  0.0075  0.0000  0.0000  0.0000  0.0000  0.0000 </r>
        <r>  0.2952  0.0000  0.0007  0.0001  0.0000  0.0000  0.0000  0.0000  0.0000 </r>
       </set>
       <set comment="band 3">
        <r>  0.0497  0.0011  0.0482  0.0641  0.0000  0.0000  0.0000  0.0000  0.0000 </r>
        <r>  0.0074  0.0030  0.0094  0.0091  0.0000  0.0000  0.0000  0.0000  0.0000 </r>
       </set>
       <set comment="band 4">
        <r>  0.0007  0.0030  0.0711  0.0990  0.0000  0.0000  0.0000  0.0000  0.0000 </r>
        <r>  0.0817  0.0001  0.0094  0.0108  0.0000  0.0000  0.0000  0.0000  0.0000 </r>
       </set>
       <set comment="band 5">
        <r>  0.1474  0.0050  0.1030  0.0574  0.0000  0.0000  0.0000  0.0000  0.0000 </r>
        <r>  0.0010  0.0286  0.0013  0.0009  0.0000  0.0000  0.0000  0.0000  0.0000 </r>
       </set>
       <set comment="band 6">
        <r>  0.0024  0.6808  0.0237  0.0076  0.0000  0.0000  0.0000  0.0000  0.0000 </r>
        <r>  0.1110  0.0000  0.0009  0.0008  0.0000  0.0000  0.0000  0.0000  0.0000 </r>
       </set>
      </set>
      <set comment="kpoint 78">
       <set comment="band 1">
        <r>  0.9897  0.0000  0.0000  0.0000  0.0000  0.0000  0.0000  0.0000  0.0000 </r>
        <r>  0.0000  0.0000  0.0000  0.0000  0.0000  0.0000  0.0000  0.0000  0.0000 </r>
       </set>
       <set comment="band 2">
        <r>  0.0156  0.0126  0.0251  0.0000  0.0000  0.0000  0.0000  0.0000  0.0000 </r>
        <r>  0.2770  0.0000  0.0016  0.0000  0.0000  0.0000  0.0000  0.0000  0.0000 </r>
       </set>
       <set comment="band 3">
        <r>  0.0134  0.0109  0.1159  0.0000  0.0000  0.0000  0.0000  0.0000  0.0000 </r>
        <r>  0.1066  0.0012  0.0183  0.0000  0.0000  0.0000  0.0000  0.0000  0.0000 </r>
       </set>
       <set comment="band 4">
        <r>  0.0000  0.0000  0.0000  0.2208  0.0000  0.0000  0.0000  0.0000  0.0000 </r>
        <r>  0.0000  0.0000  0.0000  0.0219  0.0000  0.0000  0.0000  0.0000  0.0000 </r>
       </set>
       <set comment="band 5">
        <r>  0.1219  0.1391  0.0536  0.0000  0.0000  0.0000  0.0000  0.0000  0.0000 </r>
        <r>  0.0049  0.0317  0.0005  0.0000  0.0000  0.0000  0.0000  0.0000  0.0000 </r>
       </set>
       <set comment="band 6">
        <r>  0.1076  0.5092  0.0691  0.0000  0.0000  0.0000  0.0000  0.0000  0.0000 </r>
        <r>  0.1122  0.0001  0.0000  0.0000  0.0000  0.0000  0.0000  0.0000  0.0000 </r>
       </set>
      </set>
      <set comment="kpoint 79">
       <set comment="band 1">
        <r>  0.9899  0.0000  0.0000  0.0000  0.0000  0.0000  0.0000  0.0000  0.0000 </r>
        <r>  0.0000  0.0000  0.0000  0.0000  0.0000  0.0000  0.0000  0.0000  0.0000 </r>
       </set>
       <set comment="band 2">
        <r>  0.0048  0.0199  0.0160  0.0022  0.0000  0.0000  0.0000  0.0000  0.0000 </r>
        <r>  0.3173  0.0000  0.0009  0.0000  0.0000  0.0000  0.0000  0.0000  0.0000 </r>
       </set>
       <set comment="band 3">
        <r>  0.0137  0.0049  0.1307  0.0116  0.0000  0.0000  0.0000  0.0000  0.0000 </r>
        <r>  0.0433  0.0009  0.0176  0.0013  0.0000  0.0000  0.0000  0.0000  0.0000 </r>
       </set>
       <set comment="band 4">
        <r>  0.0035  0.0001  0.0134  0.1776  0.0000  0.0000  0.0000  0.0000  0.0000 </r>
        <r>  0.0174  0.0002  0.0014  0.0193  0.0000  0.0000  0.0000  0.0000  0.0000 </r>
       </set>
       <set comment="band 5">
        <r>  0.1654  0.0602  0.0332  0.0217  0.0000  0.0000  0.0000  0.0000  0.0000 </r>
        <r>  0.0014  0.0317  0.0003  0.0005  0.0000  0.0000  0.0000  0.0000  0.0000 </r>
       </set>
       <set comment="band 6">
        <r>  0.0530  0.6261  0.0239  0.0021  0.0000  0.0000  0.0000  0.0000  0.0000 </r>
        <r>  0.1194  0.0000  0.0001  0.0007  0.0000  0.0000  0.0000  0.0000  0.0000 </r>
       </set>
      </set>
      <set comment="kpoint 80">
       <set comment="band 1">
        <r>  0.9899  0.0000  0.0000  0.0000  0.0000  0.0000  0.0000  0.0000  0.0000 </r>
        <r>  0.0000  0.0000  0.0000  0.0000  0.0000  0.0000  0.0000  0.0000  0.0000 </r>
       </set>
       <set comment="band 2">
        <r>  0.0000  0.0243  0.0037  0.0113  0.0000  0.0000  0.0000  0.0000  0.0000 </r>
        <r>  0.3321  0.0000  0.0001  0.0004  0.0000  0.0000  0.0000  0.0000  0.0000 </r>
       </set>
       <set comment="band 3">
        <r>  0.0132  0.0002  0.1449  0.0203  0.0000  0.0000  0.0000  0.0000  0.0000 </r>
        <r>  0.0006  0.0008  0.0169  0.0029  0.0000  0.0000  0.0000  0.0000  0.0000 </r>
       </set>
       <set comment="band 4">
        <r>  0.0135  0.0011  0.0307  0.1266  0.0000  0.0000  0.0000  0.0000  0.0000 </r>
        <r>  0.0438  0.0009  0.0031  0.0165  0.0000  0.0000  0.0000  0.0000  0.0000 </r>
       </set>
       <set comment="band 5">
        <r>  0.1817  0.0123  0.0107  0.0658  0.0000  0.0000  0.0000  0.0000  0.0000 </r>
        <r>  0.0000  0.0310  0.0001  0.0012  0.0000  0.0000  0.0000  0.0000  0.0000 </r>
       </set>
       <set comment="band 6">
        <r>  0.0159  0.6993  0.0049  0.0053  0.0000  0.0000  0.0000  0.0000  0.0000 </r>
        <r>  0.1223  0.0000  0.0001  0.0012  0.0000  0.0000  0.0000  0.0000  0.0000 </r>
       </set>
      </set>
      <set comment="kpoint 81">
       <set comment="band 1">
        <r>  0.9898  0.0000  0.0000  0.0000  0.0000  0.0000  0.0000  0.0000  0.0000 </r>
        <r>  0.0000  0.0000  0.0000  0.0000  0.0000  0.0000  0.0000  0.0000  0.0000 </r>
       </set>
       <set comment="band 2">
        <r>  0.0054  0.0214  0.0000  0.0211  0.0000  0.0000  0.0000  0.0000  0.0000 </r>
        <r>  0.2999  0.0001  0.0000  0.0010  0.0000  0.0000  0.0000  0.0000  0.0000 </r>
       </set>
       <set comment="band 3">
        <r>  0.0000  0.0000  0.1949  0.0000  0.0000  0.0000  0.0000  0.0000  0.0000 </r>
        <r>  0.0000  0.0000  0.0206  0.0000  0.0000  0.0000  0.0000  0.0000  0.0000 </r>
       </set>
       <set comment="band 4">
        <r>  0.0351  0.0049  0.0000  0.1068  0.0000  0.0000  0.0000  0.0000  0.0000 </r>
        <r>  0.0784  0.0025  0.0000  0.0183  0.0000  0.0000  0.0000  0.0000  0.0000 </r>
       </set>
       <set comment="band 5">
        <r>  0.1698  0.0015  0.0000  0.1140  0.0000  0.0000  0.0000  0.0000  0.0000 </r>
        <r>  0.0024  0.0296  0.0000  0.0016  0.0000  0.0000  0.0000  0.0000  0.0000 </r>
       </set>
       <set comment="band 6">
        <r>  0.0000  0.7313  0.0000  0.0174  0.0000  0.0000  0.0000  0.0000  0.0000 </r>
        <r>  0.1212  0.0000  0.0000  0.0011  0.0000  0.0000  0.0000  0.0000  0.0000 </r>
       </set>
      </set>
      <set comment="kpoint 82">
       <set comment="band 1">
        <r>  0.9900  0.0000  0.0000  0.0000  0.0000  0.0000  0.0000  0.0000  0.0000 </r>
        <r>  0.0000  0.0000  0.0000  0.0000  0.0000  0.0000  0.0000  0.0000  0.0000 </r>
       </set>
       <set comment="band 2">
        <r>  0.0069  0.0174  0.0081  0.0000  0.0000  0.0000  0.0000  0.0000  0.0000 </r>
        <r>  0.3506  0.0000  0.0006  0.0000  0.0000  0.0000  0.0000  0.0000  0.0000 </r>
       </set>
       <set comment="band 3">
        <r>  0.0011  0.0021  0.1603  0.0000  0.0000  0.0000  0.0000  0.0000  0.0000 </r>
        <r>  0.0262  0.0001  0.0191  0.0000  0.0000  0.0000  0.0000  0.0000  0.0000 </r>
       </set>
       <set comment="band 4">
        <r>  0.0000  0.0000  0.0000  0.2154  0.0000  0.0000  0.0000  0.0000  0.0000 </r>
        <r>  0.0000  0.0000  0.0000  0.0218  0.0000  0.0000  0.0000  0.0000  0.0000 </r>
       </set>
       <set comment="band 5">
        <r>  0.1386  0.1488  0.0054  0.0000  0.0000  0.0000  0.0000  0.0000  0.0000 </r>
        <r>  0.0015  0.0335  0.0001  0.0000  0.0000  0.0000  0.0000  0.0000  0.0000 </r>
       </set>
       <set comment="band 6">
        <r>  0.1430  0.4901  0.0088  0.0000  0.0000  0.0000  0.0000  0.0000  0.0000 </r>
        <r>  0.1237  0.0001  0.0000  0.0000  0.0000  0.0000  0.0000  0.0000  0.0000 </r>
       </set>
      </set>
      <set comment="kpoint 83">
       <set comment="band 1">
        <r>  0.9900  0.0000  0.0000  0.0000  0.0000  0.0000  0.0000  0.0000  0.0000 </r>
        <r>  0.0000  0.0000  0.0000  0.0000  0.0000  0.0000  0.0000  0.0000  0.0000 </r>
       </set>
       <set comment="band 2">
        <r>  0.0015  0.0239  0.0000  0.0031  0.0000  0.0000  0.0000  0.0000  0.0000 </r>
        <r>  0.3666  0.0000  0.0000  0.0001  0.0000  0.0000  0.0000  0.0000  0.0000 </r>
       </set>
       <set comment="band 3">
        <r>  0.0000  0.0000  0.1764  0.0000  0.0000  0.0000  0.0000  0.0000  0.0000 </r>
        <r>  0.0000  0.0000  0.0199  0.0000  0.0000  0.0000  0.0000  0.0000  0.0000 </r>
       </set>
       <set comment="band 4">
        <r>  0.0086  0.0000  0.0000  0.1849  0.0000  0.0000  0.0000  0.0000  0.0000 </r>
        <r>  0.0078  0.0006  0.0000  0.0205  0.0000  0.0000  0.0000  0.0000  0.0000 </r>
       </set>
       <set comment="band 5">
        <r>  0.1774  0.0662  0.0000  0.0224  0.0000  0.0000  0.0000  0.0000  0.0000 </r>
        <r>  0.0004  0.0327  0.0000  0.0006  0.0000  0.0000  0.0000  0.0000  0.0000 </r>
       </set>
       <set comment="band 6">
        <r>  0.0694  0.6171  0.0000  0.0024  0.0000  0.0000  0.0000  0.0000  0.0000 </r>
        <r>  0.1243  0.0000  0.0000  0.0009  0.0000  0.0000  0.0000  0.0000  0.0000 </r>
       </set>
      </set>
      <set comment="kpoint 84">
       <set comment="band 1">
        <r>  0.9900  0.0000  0.0000  0.0000  0.0000  0.0000  0.0000  0.0000  0.0000 </r>
        <r>  0.0000  0.0000  0.0000  0.0000  0.0000  0.0000  0.0000  0.0000  0.0000 </r>
       </set>
       <set comment="band 2">
        <r>  0.0006  0.0257  0.0050  0.0000  0.0000  0.0000  0.0000  0.0000  0.0000 </r>
        <r>  0.3584  0.0000  0.0003  0.0000  0.0000  0.0000  0.0000  0.0000  0.0000 </r>
       </set>
       <set comment="band 3">
        <r>  0.0041  0.0011  0.1710  0.0000  0.0000  0.0000  0.0000  0.0000  0.0000 </r>
        <r>  0.0148  0.0003  0.0198  0.0000  0.0000  0.0000  0.0000  0.0000  0.0000 </r>
       </set>
       <set comment="band 4">
        <r>  0.0000  0.0000  0.0000  0.1904  0.0000  0.0000  0.0000  0.0000  0.0000 </r>
        <r>  0.0000  0.0000  0.0000  0.0205  0.0000  0.0000  0.0000  0.0000  0.0000 </r>
       </set>
       <set comment="band 5">
        <r>  0.2171  0.0065  0.0123  0.0000  0.0000  0.0000  0.0000  0.0000  0.0000 </r>
        <r>  0.0002  0.0330  0.0002  0.0000  0.0000  0.0000  0.0000  0.0000  0.0000 </r>
       </set>
       <set comment="band 6">
        <r>  0.0056  0.7913  0.0043  0.0000  0.0000  0.0000  0.0000  0.0000  0.0000 </r>
        <r>  0.1365  0.0000  0.0001  0.0000  0.0000  0.0000  0.0000  0.0000  0.0000 </r>
       </set>
      </set>
     </set>
    </set>
   </array>
  </projected>
 </calculation>
 <structure name="finalpos" >
  <crystal>
   <varray name="basis" >
    <v>       0.00000000       2.00008700       2.00008700 </v>
    <v>       2.00008700       0.00000000       2.00008700 </v>
    <v>       2.00008700       2.00008700       0.00000000 </v>
   </varray>
   <i name="volume">     16.00208809 </i>
   <varray name="rec_basis" >
    <v>      -0.24998913       0.24998913       0.24998913 </v>
    <v>       0.24998913      -0.24998913       0.24998913 </v>
    <v>       0.24998913       0.24998913      -0.24998913 </v>
   </varray>
  </crystal>
  <varray name="positions" >
   <v>       0.00000000       0.00000000       0.00000000 </v>
   <v>       0.50000000       0.50000000       0.50000000 </v>
  </varray>
 </structure>
</modeling>
