 vasp.5.4.4.18Apr17-6-g9f103f2a35 (build Aug 22 2019 09:35:51) complex          
  
 executed on             LinuxIFC date 2021.04.26  17:42:49
 running on    6 total cores
 distrk:  each k-point on    6 cores,    1 groups
 distr:  one band on NCORES_PER_BAND=   2 cores,    3 groups


--------------------------------------------------------------------------------------------------------


 INCAR:
 POTCAR:   PAW_PBE Li_sv 23Jan2001                
 POTCAR:   PAW_PBE Mn_pv 07Sep2000                
 POTCAR:   PAW_PBE O 08Apr2002                    
 POTCAR:   PAW_PBE Li_sv 23Jan2001                
   VRHFIN =Li: 1s2s2p                                                           
   LEXCH  = PE                                                                  
   EATOM  =   202.7858 eV,   14.9043 Ry                                         
                                                                                
   TITEL  = PAW_PBE Li_sv 23Jan2001                                             
   LULTRA =        F    use ultrasoft PP ?                                      
   IUNSCR =        0    unscreen: 0-lin 1-nonlin 2-no                           
   RPACOR =     .000    partial core radius                                     
   POMASS =    7.010; ZVAL   =    3.000    mass and valenz                      
   RCORE  =    2.050    outmost cutoff radius                                   
   RWIGS  =    2.050; RWIGS  =    1.085    wigner-seitz radius (au A)           
   ENMAX  =  271.649; ENMIN  =  203.737 eV                                      
   ICORE  =        2    local potential                                         
   LCOR   =        T    correct aug charges                                     
   LPAW   =        T    paw PP                                                  
   EAUG   =  428.394                                                            
   RMAX   =    2.797    core radius for proj-oper                               
   RAUG   =    1.300    factor for augmentation sphere                          
   RDEP   =    2.094    radius for radial grids                                 
   RDEPT  =    1.550    core radius for aug-charge                              
   QCUT   =   -4.468; QGAM   =    8.937    optimization parameters              
                                                                                
   Description                                                                  
     l     E      TYP  RCUT    TYP  RCUT                                        
     0   .000     23  1.550                                                     
     0   .000     23  2.050                                                     
     0   .000     23  1.550                                                     
     0   .000     23  2.050                                                     
     1  -.200     23  2.050                                                     
     1  1.500     23  2.050                                                     
     2   .000      7  1.550                                                     
  local pseudopotential read in
  atomic valenz-charges read in
  non local Contribution for L=           0  read in
    real space projection operators read in
  non local Contribution for L=           0  read in
    real space projection operators read in
  non local Contribution for L=           1  read in
    real space projection operators read in
  non local Contribution for L=           1  read in
    real space projection operators read in
    PAW grid and wavefunctions read in
 
   number of l-projection  operators is LMAX  =           4
   number of lm-projection operators is LMMAX =           8
 
 POTCAR:   PAW_PBE Mn_pv 07Sep2000                
   VRHFIN =Mn: 3p4s3d                                                           
   LEXCH  = PE                                                                  
   EATOM  =  2024.8347 eV,  148.8212 Ry                                         
                                                                                
   TITEL  = PAW_PBE Mn_pv 07Sep2000                                             
   LULTRA =        F    use ultrasoft PP ?                                      
   IUNSCR =        1    unscreen: 0-lin 1-nonlin 2-no                           
   RPACOR =    2.080    partial core radius                                     
   POMASS =   54.938; ZVAL   =   13.000    mass and valenz                      
   RCORE  =    2.300    outmost cutoff radius                                   
   RWIGS  =    2.500; RWIGS  =    1.323    wigner-seitz radius (au A)           
   ENMAX  =  269.865; ENMIN  =  202.399 eV                                      
   RCLOC  =    1.725    cutoff for local pot                                    
   LCOR   =        T    correct aug charges                                     
   LPAW   =        T    paw PP                                                  
   EAUG   =  569.085                                                            
   DEXC   =    -.003                                                            
   RMAX   =    2.807    core radius for proj-oper                               
   RAUG   =    1.300    factor for augmentation sphere                          
   RDEP   =    2.338    radius for radial grids                                 
   QCUT   =   -4.454; QGAM   =    8.907    optimization parameters              
                                                                                
   Description                                                                  
     l     E      TYP  RCUT    TYP  RCUT                                        
     1   .000     23  2.000                                                     
     1  -.100     23  2.000                                                     
     2   .000     23  2.300                                                     
     2   .000     23  2.300                                                     
     0   .000     23  2.300                                                     
     0   .000     23  2.300                                                     
     3   .000      7   .000                                                     
  local pseudopotential read in
  partial core-charges read in
  atomic valenz-charges read in
  non local Contribution for L=           1  read in
    real space projection operators read in
  non local Contribution for L=           1  read in
    real space projection operators read in
  non local Contribution for L=           2  read in
    real space projection operators read in
  non local Contribution for L=           2  read in
    real space projection operators read in
  non local Contribution for L=           0  read in
    real space projection operators read in
  non local Contribution for L=           0  read in
    real space projection operators read in
    PAW grid and wavefunctions read in
 
   number of l-projection  operators is LMAX  =           6
   number of lm-projection operators is LMMAX =          18
 
 POTCAR:   PAW_PBE O 08Apr2002                    
   VRHFIN =O: s2p4                                                              
   LEXCH  = PE                                                                  
   EATOM  =   432.3788 eV,   31.7789 Ry                                         
                                                                                
   TITEL  = PAW_PBE O 08Apr2002                                                 
   LULTRA =        F    use ultrasoft PP ?                                      
   IUNSCR =        0    unscreen: 0-lin 1-nonlin 2-no                           
   RPACOR =     .000    partial core radius                                     
   POMASS =   16.000; ZVAL   =    6.000    mass and valenz                      
   RCORE  =    1.520    outmost cutoff radius                                   
   RWIGS  =    1.550; RWIGS  =     .820    wigner-seitz radius (au A)           
   ENMAX  =  400.000; ENMIN  =  300.000 eV                                      
   ICORE  =        2    local potential                                         
   LCOR   =        T    correct aug charges                                     
   LPAW   =        T    paw PP                                                  
   EAUG   =  605.392                                                            
   DEXC   =     .000                                                            
   RMAX   =    2.264    core radius for proj-oper                               
   RAUG   =    1.300    factor for augmentation sphere                          
   RDEP   =    1.550    radius for radial grids                                 
   QCUT   =   -5.520; QGAM   =   11.041    optimization parameters              
                                                                                
   Description                                                                  
     l     E      TYP  RCUT    TYP  RCUT                                        
     0   .000     23  1.200                                                     
     0  -.700     23  1.200                                                     
     1   .000     23  1.520                                                     
     1   .600     23  1.520                                                     
     2   .000      7  1.500                                                     
  local pseudopotential read in
  atomic valenz-charges read in
  non local Contribution for L=           0  read in
    real space projection operators read in
  non local Contribution for L=           0  read in
    real space projection operators read in
  non local Contribution for L=           1  read in
    real space projection operators read in
  non local Contribution for L=           1  read in
    real space projection operators read in
    PAW grid and wavefunctions read in
 
   number of l-projection  operators is LMAX  =           4
   number of lm-projection operators is LMMAX =           8
 
 Optimization of the real space projectors (new method)

 maximal supplied QI-value         = 18.33
 optimisation between [QCUT,QGAM] = [ 11.55, 23.28] = [ 37.34,151.76] Ry 
 Optimized for a Real-space Cutoff    1.32 Angstroem

   l    n(q)    QCUT    max X(q) W(low)/X(q) W(high)/X(q)  e(spline) 
   0      9    11.548     5.519    0.68E-05    0.20E-05    0.27E-07
   0      9    11.548    24.272    0.42E-04    0.24E-04    0.63E-07
   1      9    11.548     4.148    0.83E-04    0.77E-04    0.38E-06
   1      9    11.548    11.842    0.23E-03    0.17E-03    0.54E-06
 Optimization of the real space projectors (new method)

 maximal supplied QI-value         = 16.25
 optimisation between [QCUT,QGAM] = [ 11.54, 23.24] = [ 37.28,151.24] Ry 
 Optimized for a Real-space Cutoff    1.53 Angstroem

   l    n(q)    QCUT    max X(q) W(low)/X(q) W(high)/X(q)  e(spline) 
   1     10    11.539     4.093    0.14E-05    0.94E-06    0.35E-07
   1     10    11.539     5.163    0.38E-04    0.24E-04    0.17E-06
   2     10    11.539     4.144    0.87E-05    0.14E-04    0.48E-07
   2     10    11.539    35.116    0.12E-03    0.13E-03    0.25E-06
   0     11    11.539    20.431    0.20E-04    0.18E-05    0.19E-07
   0     11    11.539    61.159    0.37E-04    0.19E-04    0.29E-06
 Optimization of the real space projectors (new method)

 maximal supplied QI-value         = 24.76
 optimisation between [QCUT,QGAM] = [ 11.64, 23.27] = [ 37.91,151.63] Ry 
 Optimized for a Real-space Cutoff    1.08 Angstroem

   l    n(q)    QCUT    max X(q) W(low)/X(q) W(high)/X(q)  e(spline) 
   0      7    11.635     4.192    0.54E-04    0.80E-04    0.26E-07
   0      7    11.635     8.473    0.70E-04    0.40E-03    0.21E-06
   1      7    11.635     2.474    0.39E-04    0.14E-03    0.23E-07
   1      7    11.635     3.912    0.25E-03    0.37E-03    0.22E-06
 PAW_PBE Li_sv 23Jan2001                :
 energy of atom  1       EATOM= -202.7858
 kinetic energy error for atom=    0.0020 (will be added to EATOM!!)
 PAW_PBE Mn_pv 07Sep2000                :
 energy of atom  2       EATOM=-2024.8347
 kinetic energy error for atom=    0.0058 (will be added to EATOM!!)
 PAW_PBE O 08Apr2002                    :
 energy of atom  3       EATOM= -432.3788
 kinetic energy error for atom=    0.0208 (will be added to EATOM!!)
 
 
 POSCAR: Li1 Mn8 O16                             
  positions in direct lattice
  No initial velocities read in
 exchange correlation table for  LEXCH =        8
   RHO(1)=    0.500       N(1)  =     2000
   RHO(2)=  100.500       N(2)  =     4000
 


--------------------------------------------------------------------------------------------------------


 ion  position               nearest neighbor table
   1  0.000  0.000  0.500-  13 1.98  14 1.98  23 1.98  25 1.98
   2  0.750  0.500  0.375-  10 1.93  13 1.93  14 1.93  16 1.93  12 1.93  17 1.93   4 2.89   4 2.89
                             9 2.89   3 2.89   5 2.89   7 2.89
   3  0.000  0.250  0.125-  15 1.93  17 1.93  19 1.93  20 1.93  14 1.93  24 1.93   5 2.89   5 2.89
                             8 2.89   4 2.89   2 2.89   6 2.89
   4  0.250  0.500  0.375-  10 1.93  13 1.93  14 1.93  16 1.93  15 1.93  11 1.93   2 2.89   2 2.89
                             9 2.89   3 2.89   5 2.89   7 2.89
   5  0.000  0.750  0.125-  15 1.93  17 1.93  19 1.93  20 1.93  13 1.93  18 1.93   3 2.89   3 2.89
                             8 2.89   2 2.89   4 2.89   6 2.89
   6  0.250  0.000  0.875-  18 1.93  21 1.93  22 1.93  24 1.93  20 1.93  25 1.93   8 2.89   8 2.89
                             9 2.89   5 2.89   7 2.89   3 2.89
   7  0.500  0.750  0.625-  11 1.93  12 1.93  23 1.93  25 1.93  16 1.93  22 1.93   9 2.89   9 2.89
                             2 2.89   4 2.89   6 2.89   8 2.89
   8  0.750  0.000  0.875-  18 1.93  21 1.93  22 1.93  24 1.93  23 1.93  19 1.93   6 2.89   6 2.89
                             9 2.89   5 2.89   3 2.89   7 2.89
   9  0.500  0.250  0.625-  11 1.93  12 1.93  23 1.93  25 1.93  10 1.93  21 1.93   7 2.89   7 2.89
                             8 2.89   4 2.89   6 2.89   2 2.89
  10  0.500  0.279  0.391-   2 1.93   4 1.93   9 1.93
  11  0.279  0.500  0.609-   7 1.93   9 1.93   4 1.93
  12  0.721  0.500  0.609-   7 1.93   9 1.93   2 1.93
  13  0.000  0.721  0.359-   2 1.93   4 1.93   5 1.93   1 1.98
  14  0.000  0.279  0.359-   2 1.93   4 1.93   3 1.93   1 1.98
  15  0.221  0.500  0.141-   3 1.93   5 1.93   4 1.93
  16  0.500  0.721  0.391-   2 1.93   4 1.93   7 1.93
  17  0.779  0.500  0.141-   3 1.93   5 1.93   2 1.93
  18  0.000  0.779  0.891-   6 1.93   8 1.93   5 1.93
  19  0.779  0.000  0.109-   3 1.93   5 1.93   8 1.93
  20  0.221  0.000  0.109-   3 1.93   5 1.93   6 1.93
  21  0.500  0.221  0.859-   6 1.93   8 1.93   9 1.93
  22  0.500  0.779  0.859-   6 1.93   8 1.93   7 1.93
  23  0.721  0.000  0.641-   7 1.93   9 1.93   8 1.93   1 1.98
  24  0.000  0.221  0.891-   6 1.93   8 1.93   3 1.93
  25  0.279  0.000  0.641-   7 1.93   9 1.93   6 1.93   1 1.98
 

IMPORTANT INFORMATION: All symmetrisations will be switched off!
NOSYMM: (Re-)initialisation of all symmetry stuff for point group C_1.

 
 
 KPOINTS: pymatgen v2019.10.16 with grid density =

Automatic generation of k-mesh.
Space group operators:
 irot       det(A)        alpha          n_x          n_y          n_z        tau_x        tau_y        tau_z
    1     1.000000     0.000000     1.000000     0.000000     0.000000     0.000000     0.000000     0.000000
 
 Subroutine IBZKPT returns following result:
 ===========================================
 
 Found     26 irreducible k-points:
 
 Following reciprocal coordinates:
            Coordinates               Weight
  0.000000  0.000000  0.000000      1.000000
  0.250000  0.000000  0.000000      2.000000
  0.500000  0.000000  0.000000      1.000000
  0.000000  0.250000  0.000000      2.000000
  0.250000  0.250000  0.000000      2.000000
  0.500000  0.250000  0.000000      2.000000
 -0.250000  0.250000  0.000000      2.000000
  0.000000  0.500000  0.000000      1.000000
  0.250000  0.500000  0.000000      2.000000
  0.500000  0.500000  0.000000      1.000000
  0.000000  0.000000  0.333333      2.000000
  0.250000  0.000000  0.333333      2.000000
  0.500000  0.000000  0.333333      2.000000
 -0.250000  0.000000  0.333333      2.000000
  0.000000  0.250000  0.333333      2.000000
  0.250000  0.250000  0.333333      2.000000
  0.500000  0.250000  0.333333      2.000000
 -0.250000  0.250000  0.333333      2.000000
  0.000000  0.500000  0.333333      2.000000
  0.250000  0.500000  0.333333      2.000000
  0.500000  0.500000  0.333333      2.000000
 -0.250000  0.500000  0.333333      2.000000
  0.000000 -0.250000  0.333333      2.000000
  0.250000 -0.250000  0.333333      2.000000
  0.500000 -0.250000  0.333333      2.000000
 -0.250000 -0.250000  0.333333      2.000000
 
 Following cartesian coordinates:
            Coordinates               Weight
  0.000000  0.000000  0.000000      1.000000
  0.043323  0.000000  0.000000      2.000000
  0.086646  0.000000  0.000000      1.000000
  0.000000  0.043323  0.000000      2.000000
  0.043323  0.043323  0.000000      2.000000
  0.086646  0.043323  0.000000      2.000000
 -0.043323  0.043323  0.000000      2.000000
  0.000000  0.086646  0.000000      1.000000
  0.043323  0.086646  0.000000      2.000000
  0.086646  0.086646  0.000000      1.000000
  0.000000  0.000000  0.040601      2.000000
  0.043323  0.000000  0.040601      2.000000
  0.086646  0.000000  0.040601      2.000000
 -0.043323  0.000000  0.040601      2.000000
  0.000000  0.043323  0.040601      2.000000
  0.043323  0.043323  0.040601      2.000000
  0.086646  0.043323  0.040601      2.000000
 -0.043323  0.043323  0.040601      2.000000
  0.000000  0.086646  0.040601      2.000000
  0.043323  0.086646  0.040601      2.000000
  0.086646  0.086646  0.040601      2.000000
 -0.043323  0.086646  0.040601      2.000000
  0.000000 -0.043323  0.040601      2.000000
  0.043323 -0.043323  0.040601      2.000000
  0.086646 -0.043323  0.040601      2.000000
 -0.043323 -0.043323  0.040601      2.000000
 
 TETIRR: Found    144 inequivalent tetrahedra from      288


--------------------------------------------------------------------------------------------------------




 Dimension of arrays:
   k-points           NKPTS =     26   k-points in BZ     NKDIM =     26   number of bands    NBANDS=    147
   number of dos      NEDOS =    301   number of ions     NIONS =     25
   non local maximal  LDIM  =      6   non local SUM 2l+1 LMDIM =     18
   total plane-waves  NPLWV = 147456
   max r-space proj   IRMAX =   8202   max aug-charges    IRDMAX=  16563
   dimension x,y,z NGX =    48 NGY =   48 NGZ =   64
   dimension x,y,z NGXF=    96 NGYF=   96 NGZF=  128
   support grid    NGXF=    96 NGYF=   96 NGZF=  128
   ions per type =               1   8  16
   NGX,Y,Z   is equivalent  to a cutoff of  13.83, 13.83, 12.96 a.u.
   NGXF,Y,Z  is equivalent  to a cutoff of  27.66, 27.66, 25.92 a.u.

 SYSTEM =  unknown system                          
 POSCAR =  Li1 Mn8 O16                             

 Startparameter for this run:
   NWRITE =      2    write-flag & timer
   PREC   = accura    normal or accurate (medium, high low for compatibility)
   ISTART =      0    job   : 0-new  1-cont  2-samecut
   ICHARG =      1    charge: 1-file 2-atom 10-const
   ISPIN  =      2    spin polarized calculation?
   LNONCOLLINEAR =      F non collinear calculations
   LSORBIT =      F    spin-orbit coupling
   INIWAV =      1    electr: 0-lowe 1-rand  2-diag
   LASPH  =      F    aspherical Exc in radial PAW
   METAGGA=      F    non-selfconsistent MetaGGA calc.

 Electronic Relaxation 1
   ENCUT  =  520.0 eV  38.22 Ry    6.18 a.u.  10.73 10.73 15.27*2*pi/ulx,y,z
   ENINI  =  520.0     initial cutoff
   ENAUG  =  605.4 eV  augmentation charge cutoff
   NELM   =    100;   NELMIN=  1; NELMDL= -5     # of ELM steps 
   EDIFF  = 0.1E-01   stopping-criterion for ELM
   LREAL  =      T    real-space projection
   NLSPLINE    = F    spline interpolate recip. space projectors
   LCOMPAT=      F    compatible to vasp.4.4
   GGA_COMPAT  = T    GGA compatible to vasp.4.4-vasp.4.6
   LMAXPAW     = -100 max onsite density
   LMAXMIX     =    2 max onsite mixed and CHGCAR
   VOSKOWN=      0    Vosko Wilk Nusair interpolation
   ROPT   =   -0.00025  -0.00025  -0.00025
 Ionic relaxation
   EDIFFG = 0.0E+00   stopping-criterion for IOM
   NSW    =      0    number of steps for IOM
   NBLOCK =      1;   KBLOCK =      1    inner block; outer block 
   IBRION =     -1    ionic relax: 0-MD 1-quasi-New 2-CG
   NFREE  =      0    steps in history (QN), initial steepest desc. (CG)
   ISIF   =      2    stress and relaxation
   IWAVPR =     10    prediction:  0-non 1-charg 2-wave 3-comb
   ISYM   =      0    0-nonsym 1-usesym 2-fastsym
   LCORR  =      T    Harris-Foulkes like correction to forces

   POTIM  = 0.5000    time-step for ionic-motion
   TEIN   =    0.0    initial temperature
   TEBEG  =    0.0;   TEEND  =   0.0 temperature during run
   SMASS  =  -3.00    Nose mass-parameter (am)
   estimated Nose-frequenzy (Omega)   =  0.10E-29 period in steps =****** mass=  -0.761E-27a.u.
   SCALEE = 1.0000    scale energy and forces
   NPACO  =    256;   APACO  = 16.0  distance and # of slots for P.C.
   PSTRESS=    0.0 pullay stress

  Mass of Ions in am
   POMASS =   7.01 54.94 16.00
  Ionic Valenz
   ZVAL   =   3.00 13.00  6.00
  Atomic Wigner-Seitz radii
   RWIGS  =  -1.00 -1.00 -1.00
  virtual crystal weights 
   VCA    =   1.00  1.00  1.00
   NELECT =     203.0000    total number of electrons
   NUPDOWN=      -1.0000    fix difference up-down

 DOS related values:
   EMIN   =  10.00;   EMAX   =-10.00  energy-range for DOS
   EFERMI =   0.00
   ISMEAR =    -5;   SIGMA  =   0.05  broadening in eV -4-tet -1-fermi 0-gaus

 Electronic relaxation 2 (details)
   IALGO  =     68    algorithm
   LDIAG  =      T    sub-space diagonalisation (order eigenvalues)
   LSUBROT=      F    optimize rotation matrix (better conditioning)
   TURBO    =      0    0=normal 1=particle mesh
   IRESTART =      0    0=no restart 2=restart with 2 vectors
   NREBOOT  =      0    no. of reboots
   NMIN     =      0    reboot dimension
   EREF     =   0.00    reference energy to select bands
   IMIX   =      4    mixing-type and parameters
     AMIX     =   0.40;   BMIX     =  1.00
     AMIX_MAG =   1.60;   BMIX_MAG =  1.00
     AMIN     =   0.10
     WC   =   100.;   INIMIX=   1;  MIXPRE=   1;  MAXMIX= -45

 Intra band minimization:
   WEIMIN = 0.0000     energy-eigenvalue tresh-hold
   EBREAK =  0.00E+00  absolut break condition
   DEPER  =   0.30     relativ break condition  

   TIME   =   0.40     timestep for ELM

  volume/ion in A,a.u.               =      10.94        73.80
  Fermi-wavevector in a.u.,A,eV,Ry     =   1.482442  2.801409 29.900622  2.197634
  Thomas-Fermi vector in A             =   2.596227
 
 Write flags
   LWAVE        =      F    write WAVECAR
   LDOWNSAMPLE  =      F    k-point downsampling of WAVECAR
   LCHARG       =      T    write CHGCAR
   LVTOT        =      F    write LOCPOT, total local potential
   LVHAR        =      F    write LOCPOT, Hartree potential only
   LELF         =      F    write electronic localiz. function (ELF)
   LORBIT       =     11    0 simple, 1 ext, 2 COOP (PROOUT), +10 PAW based schemes


 Dipole corrections
   LMONO  =      F    monopole corrections only (constant potential shift)
   LDIPOL =      F    correct potential (dipole corrections)
   IDIPOL =      0    1-x, 2-y, 3-z, 4-all directions 
   EPSILON=  1.0000000 bulk dielectric constant

 Exchange correlation treatment:
   GGA     =    --    GGA type
   LEXCH   =     8    internal setting for exchange type
   VOSKOWN=      0    Vosko Wilk Nusair interpolation
   LHFCALC =     F    Hartree Fock is set to
   LHFONE  =     F    Hartree Fock one center treatment
   AEXX    =    0.0000 exact exchange contribution

 Linear response parameters
   LEPSILON=     F    determine dielectric tensor
   LRPA    =     F    only Hartree local field effects (RPA)
   LNABLA  =     F    use nabla operator in PAW spheres
   LVEL    =     F    velocity operator in full k-point grid
   LINTERFAST=   F  fast interpolation
   KINTER  =     0    interpolate to denser k-point grid
   CSHIFT  =0.1000    complex shift for real part using Kramers Kronig
   OMEGAMAX=  -1.0    maximum frequency
   DEG_THRESHOLD= 0.2000000E-02 threshold for treating states as degnerate
   RTIME   =   -0.100 relaxation time in fs
  (WPLASMAI=    0.000 imaginary part of plasma frequency in eV, 0.658/RTIME)
   DFIELD  = 0.0000000 0.0000000 0.0000000 field for delta impulse in time
 
 Orbital magnetization related:
   ORBITALMAG=     F  switch on orbital magnetization
   LCHIMAG   =     F  perturbation theory with respect to B field
   DQ        =  0.001000  dq finite difference perturbation B field
   LLRAUG    =     F  two centre corrections for induced B field



--------------------------------------------------------------------------------------------------------


 Static calculation
 charge density and potential will be updated during run
 spin polarized calculation
 RMM-DIIS sequential band-by-band and
  variant of blocked Davidson during initial phase
 perform sub-space diagonalisation
    before iterative eigenvector-optimisation
 modified Broyden-mixing scheme, WC =      100.0
 initial mixing is a Kerker type mixing with AMIX =  0.4000 and BMIX =      1.0000
 Hartree-type preconditioning will be used
 using additional bands           45
 real space projection scheme for non local part
 use partial core corrections
 calculate Harris-corrections to forces 
   (improved forces if not selfconsistent)
 use gradient corrections 
 use of overlap-Matrix (Vanderbilt PP)
 Fermi weights with tetrahedron method with Bloechl corrections


--------------------------------------------------------------------------------------------------------


  energy-cutoff  :      520.00
  volume of cell :      273.39
      direct lattice vectors                 reciprocal lattice vectors
     5.770635000  0.000000000  0.000000000     0.173291154  0.000000000  0.000000000
     0.000000000  5.770635000  0.000000000     0.000000000  0.173291154  0.000000000
     0.000000000  0.000000000  8.209947000     0.000000000  0.000000000  0.121803466

  length of vectors
     5.770635000  5.770635000  8.209947000     0.173291154  0.173291154  0.121803466


 
 k-points in units of 2pi/SCALE and weight: pymatgen v2019.10.16 with grid density =
   0.00000000  0.00000000  0.00000000       0.021
   0.04332279  0.00000000  0.00000000       0.042
   0.08664558  0.00000000  0.00000000       0.021
   0.00000000  0.04332279  0.00000000       0.042
   0.04332279  0.04332279  0.00000000       0.042
   0.08664558  0.04332279  0.00000000       0.042
  -0.04332279  0.04332279  0.00000000       0.042
   0.00000000  0.08664558  0.00000000       0.021
   0.04332279  0.08664558  0.00000000       0.042
   0.08664558  0.08664558  0.00000000       0.021
   0.00000000  0.00000000  0.04060116       0.042
   0.04332279  0.00000000  0.04060116       0.042
   0.08664558  0.00000000  0.04060116       0.042
  -0.04332279  0.00000000  0.04060116       0.042
   0.00000000  0.04332279  0.04060116       0.042
   0.04332279  0.04332279  0.04060116       0.042
   0.08664558  0.04332279  0.04060116       0.042
  -0.04332279  0.04332279  0.04060116       0.042
   0.00000000  0.08664558  0.04060116       0.042
   0.04332279  0.08664558  0.04060116       0.042
   0.08664558  0.08664558  0.04060116       0.042
  -0.04332279  0.08664558  0.04060116       0.042
   0.00000000 -0.04332279  0.04060116       0.042
   0.04332279 -0.04332279  0.04060116       0.042
   0.08664558 -0.04332279  0.04060116       0.042
  -0.04332279 -0.04332279  0.04060116       0.042
 
 k-points in reciprocal lattice and weights: pymatgen v2019.10.16 with grid density =
   0.00000000  0.00000000  0.00000000       0.021
   0.25000000  0.00000000  0.00000000       0.042
   0.50000000  0.00000000  0.00000000       0.021
   0.00000000  0.25000000  0.00000000       0.042
   0.25000000  0.25000000  0.00000000       0.042
   0.50000000  0.25000000  0.00000000       0.042
  -0.25000000  0.25000000  0.00000000       0.042
   0.00000000  0.50000000  0.00000000       0.021
   0.25000000  0.50000000  0.00000000       0.042
   0.50000000  0.50000000  0.00000000       0.021
   0.00000000  0.00000000  0.33333333       0.042
   0.25000000  0.00000000  0.33333333       0.042
   0.50000000  0.00000000  0.33333333       0.042
  -0.25000000  0.00000000  0.33333333       0.042
   0.00000000  0.25000000  0.33333333       0.042
   0.25000000  0.25000000  0.33333333       0.042
   0.50000000  0.25000000  0.33333333       0.042
  -0.25000000  0.25000000  0.33333333       0.042
   0.00000000  0.50000000  0.33333333       0.042
   0.25000000  0.50000000  0.33333333       0.042
   0.50000000  0.50000000  0.33333333       0.042
  -0.25000000  0.50000000  0.33333333       0.042
   0.00000000 -0.25000000  0.33333333       0.042
   0.25000000 -0.25000000  0.33333333       0.042
   0.50000000 -0.25000000  0.33333333       0.042
  -0.25000000 -0.25000000  0.33333333       0.042
 
 position of ions in fractional coordinates (direct lattice) 
   0.00000000  0.00000000  0.50000000
   0.75000000  0.50000000  0.37500000
   0.00000000  0.25000000  0.12500000
   0.25000000  0.50000000  0.37500000
   0.00000000  0.75000000  0.12500000
   0.25000000  0.00000000  0.87500000
   0.50000000  0.75000000  0.62500000
   0.75000000  0.00000000  0.87500000
   0.50000000  0.25000000  0.62500000
   0.50000000  0.27918000  0.39075200
   0.27918000  0.50000000  0.60924800
   0.72082000  0.50000000  0.60924800
   0.00000000  0.72082000  0.35924800
   0.00000000  0.27918000  0.35924800
   0.22082000  0.50000000  0.14075200
   0.50000000  0.72082000  0.39075200
   0.77918000  0.50000000  0.14075200
   0.00000000  0.77918000  0.89075200
   0.77918000  0.00000000  0.10924800
   0.22082000  0.00000000  0.10924800
   0.50000000  0.22082000  0.85924800
   0.50000000  0.77918000  0.85924800
   0.72082000  0.00000000  0.64075200
   0.00000000  0.22082000  0.89075200
   0.27918000  0.00000000  0.64075200
 
 position of ions in cartesian coordinates  (Angst):
   0.00000000  0.00000000  4.10497350
   4.32797625  2.88531750  3.07873012
   0.00000000  1.44265875  1.02624337
   1.44265875  2.88531750  3.07873012
   0.00000000  4.32797625  1.02624337
   1.44265875  0.00000000  7.18370362
   2.88531750  4.32797625  5.13121687
   4.32797625  0.00000000  7.18370362
   2.88531750  1.44265875  5.13121687
   2.88531750  1.61104588  3.20805321
   1.61104588  2.88531750  5.00189379
   4.15958912  2.88531750  5.00189379
   0.00000000  4.15958912  2.94940704
   0.00000000  1.61104588  2.94940704
   1.27427162  2.88531750  1.15556646
   2.88531750  4.15958912  3.20805321
   4.49636338  2.88531750  1.15556646
   0.00000000  4.49636338  7.31302671
   4.49636338  0.00000000  0.89692029
   1.27427162  0.00000000  0.89692029
   2.88531750  1.27427162  7.05438054
   2.88531750  4.49636338  7.05438054
   4.15958912  0.00000000  5.26053996
   0.00000000  1.27427162  7.31302671
   1.61104588  0.00000000  5.26053996
 


--------------------------------------------------------------------------------------------------------


 k-point  1 :   0.0000 0.0000 0.0000  plane waves:    7395
 k-point  2 :   0.2500 0.0000 0.0000  plane waves:    7381
 k-point  3 :   0.5000 0.0000 0.0000  plane waves:    7382
 k-point  4 :   0.0000 0.2500 0.0000  plane waves:    7381
 k-point  5 :   0.2500 0.2500 0.0000  plane waves:    7355
 k-point  6 :   0.5000 0.2500 0.0000  plane waves:    7358
 k-point  7 :  -0.2500 0.2500 0.0000  plane waves:    7355
 k-point  8 :   0.0000 0.5000 0.0000  plane waves:    7382
 k-point  9 :   0.2500 0.5000 0.0000  plane waves:    7358
 k-point 10 :   0.5000 0.5000 0.0000  plane waves:    7384
 k-point 11 :   0.0000 0.0000 0.3333  plane waves:    7330
 k-point 12 :   0.2500 0.0000 0.3333  plane waves:    7359
 k-point 13 :   0.5000 0.0000 0.3333  plane waves:    7362
 k-point 14 :  -0.2500 0.0000 0.3333  plane waves:    7359
 k-point 15 :   0.0000 0.2500 0.3333  plane waves:    7359
 k-point 16 :   0.2500 0.2500 0.3333  plane waves:    7352
 k-point 17 :   0.5000 0.2500 0.3333  plane waves:    7350
 k-point 18 :  -0.2500 0.2500 0.3333  plane waves:    7352
 k-point 19 :   0.0000 0.5000 0.3333  plane waves:    7362
 k-point 20 :   0.2500 0.5000 0.3333  plane waves:    7350
 k-point 21 :   0.5000 0.5000 0.3333  plane waves:    7356
 k-point 22 :  -0.2500 0.5000 0.3333  plane waves:    7350
 k-point 23 :   0.0000-0.2500 0.3333  plane waves:    7359
 k-point 24 :   0.2500-0.2500 0.3333  plane waves:    7352
 k-point 25 :   0.5000-0.2500 0.3333  plane waves:    7350
 k-point 26 :  -0.2500-0.2500 0.3333  plane waves:    7352

 maximum and minimum number of plane-waves per node :      3704     3659

 maximum number of plane-waves:      7395
 maximum index in each direction: 
   IXMAX=   10   IYMAX=   10   IZMAX=   15
   IXMIN=  -11   IYMIN=  -11   IZMIN=  -15


 real space projection operators:
  total allocation   :      11996.44 KBytes
  max/ min on nodes  :       6017.06       5979.38


 parallel 3D FFT for wavefunctions:
    minimum data exchange during FFTs selected (reduces bandwidth)
 parallel 3D FFT for charge:
    minimum data exchange during FFTs selected (reduces bandwidth)


 total amount of memory used by VASP MPI-rank0   230530. kBytes
=======================================================================

   base      :      30000. kBytes
   nonlr-proj:      10891. kBytes
   fftplans  :       8862. kBytes
   grid      :      23457. kBytes
   one-center:        404. kBytes
   wavefun   :     156916. kBytes
 
     INWAV:  cpu time    0.0000: real time    0.0000
 Broyden mixing: mesh for mixing (old mesh)
   NGX = 21   NGY = 21   NGZ = 31
  (NGX  = 96   NGY  = 96   NGZ  =128)
  gives a total of  13671 points

 initial charge density was supplied:
 charge density of overlapping atoms calculated
 number of electron     203.0000000 magnetization      50.2000000
 keeping initial charge density in first step


--------------------------------------------------------------------------------------------------------


 Maximum index for non-local projection operator         3983
 Maximum index for augmentation-charges         2679 (set IRDMAX)


--------------------------------------------------------------------------------------------------------


 First call to EWALD:  gamma=   0.273
 Maximum number of real-space cells 3x 3x 2
 Maximum number of reciprocal cells 2x 2x 3

    FEWALD:  cpu time    0.0017: real time    0.0017


--------------------------------------- Iteration      1(   1)  ---------------------------------------


    POTLOK:  cpu time    0.2797: real time    0.2822
    SETDIJ:  cpu time    0.0271: real time    0.0273
     EDDAV:  cpu time   63.1091: real time   63.7186
 BZINTS: Fermi energy: 25.972520;203.000000 electrons
         Band energy: 756.193807;  BLOECHL correction: -0.081086
       DOS:  cpu time    0.0616: real time    0.0618
    --------------------------------------------
      LOOP:  cpu time   63.4775: real time   64.0900

 eigenvalue-minimisations  : 15477
 total energy-change (2. order) : 0.3402743E+04  (-0.9922358E+04)
 number of electron     203.0000000 magnetization      50.2000000
 augmentation part      203.0000000 magnetization      50.2000000

 Free energy of the ion-electron system (eV)
  ---------------------------------------------------
  alpha Z        PSCENC =      1096.51130837
  Ewald energy   TEWEN  =    -13555.49358463
  -Hartree energ DENC   =     -8780.69930831
  -exchange      EXHF   =         0.00000000
  -V(xc)+E(xc)   XCENC  =      1023.10749167
  PAW double counting   =     15913.62944871   -16369.64932519
  entropy T*S    EENTRO =         0.00000000
  eigenvalues    EBANDS =       756.19380734
  atomic energy  EATOM  =     23319.14298724
  Solvation  Ediel_sol  =         0.00000000
  ---------------------------------------------------
  free energy    TOTEN  =      3402.74282519 eV

  energy without entropy =     3402.74282519  energy(sigma->0) =     3402.74282519


--------------------------------------------------------------------------------------------------------




--------------------------------------- Iteration      1(   2)  ---------------------------------------


     EDDAV:  cpu time   61.2920: real time   61.7686
 BZINTS: Fermi energy:  9.378997;203.000000 electrons
         Band energy:***********;  BLOECHL correction: -0.055297
       DOS:  cpu time    0.0634: real time    0.0637
    --------------------------------------------
      LOOP:  cpu time   61.3553: real time   61.8323

 eigenvalue-minimisations  : 15414
 total energy-change (2. order) :-0.2992154E+04  (-0.2739267E+04)
 number of electron     203.0000000 magnetization      50.2000000
 augmentation part      203.0000000 magnetization      50.2000000

 Free energy of the ion-electron system (eV)
  ---------------------------------------------------
  alpha Z        PSCENC =      1096.51130837
  Ewald energy   TEWEN  =    -13555.49358463
  -Hartree energ DENC   =     -8780.69930831
  -exchange      EXHF   =         0.00000000
  -V(xc)+E(xc)   XCENC  =      1023.10749167
  PAW double counting   =     15913.62944871   -16369.64932519
  entropy T*S    EENTRO =         0.00000000
  eigenvalues    EBANDS =     -2235.96046231
  atomic energy  EATOM  =     23319.14298724
  Solvation  Ediel_sol  =         0.00000000
  ---------------------------------------------------
  free energy    TOTEN  =       410.58855554 eV

  energy without entropy =      410.58855554  energy(sigma->0) =      410.58855554


--------------------------------------------------------------------------------------------------------




--------------------------------------- Iteration      1(   3)  ---------------------------------------


     EDDAV:  cpu time   63.3049: real time   63.7483
 BZINTS: Fermi energy:  5.813443;203.000000 electrons
         Band energy:***********;  BLOECHL correction: -0.018625
       DOS:  cpu time    0.0630: real time    0.0632
    --------------------------------------------
      LOOP:  cpu time   63.3679: real time   63.8115

 eigenvalue-minimisations  : 16065
 total energy-change (2. order) :-0.5901655E+03  (-0.5169457E+03)
 number of electron     203.0000000 magnetization      50.2000000
 augmentation part      203.0000000 magnetization      50.2000000

 Free energy of the ion-electron system (eV)
  ---------------------------------------------------
  alpha Z        PSCENC =      1096.51130837
  Ewald energy   TEWEN  =    -13555.49358463
  -Hartree energ DENC   =     -8780.69930831
  -exchange      EXHF   =         0.00000000
  -V(xc)+E(xc)   XCENC  =      1023.10749167
  PAW double counting   =     15913.62944871   -16369.64932519
  entropy T*S    EENTRO =         0.00000000
  eigenvalues    EBANDS =     -2826.12597254
  atomic energy  EATOM  =     23319.14298724
  Solvation  Ediel_sol  =         0.00000000
  ---------------------------------------------------
  free energy    TOTEN  =      -179.57695468 eV

  energy without entropy =     -179.57695468  energy(sigma->0) =     -179.57695468


--------------------------------------------------------------------------------------------------------




--------------------------------------- Iteration      1(   4)  ---------------------------------------


     EDDAV:  cpu time   82.1634: real time   82.6510
 BZINTS: Fermi energy:  5.483989;203.000000 electrons
         Band energy:***********;  BLOECHL correction: -0.028273
       DOS:  cpu time    0.0716: real time    0.0719
    --------------------------------------------
      LOOP:  cpu time   82.2351: real time   82.7230

 eigenvalue-minimisations  : 22530
 total energy-change (2. order) :-0.6788555E+02  (-0.6620263E+02)
 number of electron     203.0000000 magnetization      50.2000000
 augmentation part      203.0000000 magnetization      50.2000000

 Free energy of the ion-electron system (eV)
  ---------------------------------------------------
  alpha Z        PSCENC =      1096.51130837
  Ewald energy   TEWEN  =    -13555.49358463
  -Hartree energ DENC   =     -8780.69930831
  -exchange      EXHF   =         0.00000000
  -V(xc)+E(xc)   XCENC  =      1023.10749167
  PAW double counting   =     15913.62944871   -16369.64932519
  entropy T*S    EENTRO =         0.00000000
  eigenvalues    EBANDS =     -2894.01152393
  atomic energy  EATOM  =     23319.14298724
  Solvation  Ediel_sol  =         0.00000000
  ---------------------------------------------------
  free energy    TOTEN  =      -247.46250608 eV

  energy without entropy =     -247.46250608  energy(sigma->0) =     -247.46250608


--------------------------------------------------------------------------------------------------------




--------------------------------------- Iteration      1(   5)  ---------------------------------------


     EDDAV:  cpu time   81.5624: real time   82.0741
 BZINTS: Fermi energy:  5.469839;203.000000 electrons
         Band energy:***********;  BLOECHL correction: -0.027680
       DOS:  cpu time    0.0648: real time    0.0652
    CHARGE:  cpu time    2.0543: real time    2.0717
    MIXING:  cpu time    0.0100: real time    0.0100
    --------------------------------------------
      LOOP:  cpu time   83.6915: real time   84.2210

 eigenvalue-minimisations  : 22413
 total energy-change (2. order) :-0.1433610E+01  (-0.1427123E+01)
 number of electron     202.9999994 magnetization      35.3071723
 augmentation part       64.2633949 magnetization      26.3554198

 Broyden mixing:
  rms(total) = 0.66792E+01    rms(broyden)= 0.66767E+01
  rms(prec ) = 0.89982E+01
  weight for this iteration     100.00

 Free energy of the ion-electron system (eV)
  ---------------------------------------------------
  alpha Z        PSCENC =      1096.51130837
  Ewald energy   TEWEN  =    -13555.49358463
  -Hartree energ DENC   =     -8780.69930831
  -exchange      EXHF   =         0.00000000
  -V(xc)+E(xc)   XCENC  =      1023.10749167
  PAW double counting   =     15913.62944871   -16369.64932519
  entropy T*S    EENTRO =         0.00000000
  eigenvalues    EBANDS =     -2895.44513369
  atomic energy  EATOM  =     23319.14298724
  Solvation  Ediel_sol  =         0.00000000
  ---------------------------------------------------
  free energy    TOTEN  =      -248.89611583 eV

  energy without entropy =     -248.89611583  energy(sigma->0) =     -248.89611583


--------------------------------------------------------------------------------------------------------




--------------------------------------- Iteration      1(   6)  ---------------------------------------


    POTLOK:  cpu time    0.2987: real time    0.2998
    SETDIJ:  cpu time    0.0264: real time    0.0264
    EDDIAG:  cpu time    9.1892: real time    9.2473
  RMM-DIIS:  cpu time   52.7131: real time   52.9838
    ORTHCH:  cpu time    0.8230: real time    0.8245
 BZINTS: Fermi energy:  1.195431;203.000000 electrons
         Band energy:***********;  BLOECHL correction: -0.116875
       DOS:  cpu time    0.0812: real time    0.0815
    CHARGE:  cpu time    1.7494: real time    1.7550
    MIXING:  cpu time    0.0082: real time    0.0082
    --------------------------------------------
      LOOP:  cpu time   64.8893: real time   65.2266

 eigenvalue-minimisations  : 18488
 total energy-change (2. order) : 0.9594926E+01  (-0.4357916E+02)
 number of electron     202.9999900 magnetization      30.2515413
 augmentation part       82.0005891 magnetization      24.1681385

 Broyden mixing:
  rms(total) = 0.92668E+01    rms(broyden)= 0.92649E+01
  rms(prec ) = 0.13476E+02
  weight for this iteration     100.00

 eigenvalues of (default mixing * dielectric matrix)
  average eigenvalue GAMMA=   0.4626
  0.4626

 Free energy of the ion-electron system (eV)
  ---------------------------------------------------
  alpha Z        PSCENC =      1096.51130837
  Ewald energy   TEWEN  =    -13555.49358463
  -Hartree energ DENC   =     -8423.59192079
  -exchange      EXHF   =         0.00000000
  -V(xc)+E(xc)   XCENC  =      1017.22998738
  PAW double counting   =     15646.21171455   -16098.23567670
  entropy T*S    EENTRO =         0.00000000
  eigenvalues    EBANDS =     -3241.07600488
  atomic energy  EATOM  =     23319.14298724
  Solvation  Ediel_sol  =         0.00000000
  ---------------------------------------------------
  free energy    TOTEN  =      -239.30118947 eV

  energy without entropy =     -239.30118947  energy(sigma->0) =     -239.30118947


--------------------------------------------------------------------------------------------------------




--------------------------------------- Iteration      1(   7)  ---------------------------------------


    POTLOK:  cpu time    0.2568: real time    0.2575
    SETDIJ:  cpu time    0.0245: real time    0.0246
    EDDIAG:  cpu time    8.2217: real time    8.2525
  RMM-DIIS:  cpu time   59.3364: real time   59.6850
    ORTHCH:  cpu time    0.7967: real time    0.7998
 BZINTS: Fermi energy:  4.256788;203.000000 electrons
         Band energy:***********;  BLOECHL correction: -0.032727
       DOS:  cpu time    0.0679: real time    0.0681
    CHARGE:  cpu time    1.9402: real time    1.9468
    MIXING:  cpu time    0.0092: real time    0.0092
    --------------------------------------------
      LOOP:  cpu time   70.6534: real time   71.0436

 eigenvalue-minimisations  : 21136
 total energy-change (2. order) : 0.4077519E+02  (-0.1090459E+02)
 number of electron     202.9999976 magnetization      26.4180956
 augmentation part       65.5426191 magnetization      17.9049999

 Broyden mixing:
  rms(total) = 0.33532E+01    rms(broyden)= 0.33504E+01
  rms(prec ) = 0.44776E+01
  weight for this iteration     100.00

 eigenvalues of (default mixing * dielectric matrix)
  average eigenvalue GAMMA=   0.5198
  0.7478  0.2919

 Free energy of the ion-electron system (eV)
  ---------------------------------------------------
  alpha Z        PSCENC =      1096.51130837
  Ewald energy   TEWEN  =    -13555.49358463
  -Hartree energ DENC   =     -8738.87749146
  -exchange      EXHF   =         0.00000000
  -V(xc)+E(xc)   XCENC  =      1016.93497012
  PAW double counting   =     16360.09337162   -16842.52207110
  entropy T*S    EENTRO =         0.00000000
  eigenvalues    EBANDS =     -2854.31548774
  atomic energy  EATOM  =     23319.14298724
  Solvation  Ediel_sol  =         0.00000000
  ---------------------------------------------------
  free energy    TOTEN  =      -198.52599759 eV

  energy without entropy =     -198.52599759  energy(sigma->0) =     -198.52599759


--------------------------------------------------------------------------------------------------------




--------------------------------------- Iteration      1(   8)  ---------------------------------------


    POTLOK:  cpu time    0.2842: real time    0.2857
    SETDIJ:  cpu time    0.0250: real time    0.0251
    EDDIAG:  cpu time    8.2386: real time    8.2571
  RMM-DIIS:  cpu time   49.8686: real time   50.1963
    ORTHCH:  cpu time    0.8318: real time    0.8356
 BZINTS: Fermi energy:  3.577879;203.000000 electrons
         Band energy:***********;  BLOECHL correction: -0.033748
       DOS:  cpu time    0.0675: real time    0.0676
    CHARGE:  cpu time    1.7925: real time    1.7995
    MIXING:  cpu time    0.0084: real time    0.0084
    --------------------------------------------
      LOOP:  cpu time   61.1167: real time   61.4752

 eigenvalue-minimisations  : 17269
 total energy-change (2. order) : 0.2484487E+01  (-0.7832079E+00)
 number of electron     202.9999970 magnetization      23.6663138
 augmentation part       66.7749192 magnetization      15.8542719

 Broyden mixing:
  rms(total) = 0.17731E+01    rms(broyden)= 0.17730E+01
  rms(prec ) = 0.25403E+01
  weight for this iteration     100.00

 eigenvalues of (default mixing * dielectric matrix)
  average eigenvalue GAMMA=   0.7224
  0.3228  0.9223  0.9223

 Free energy of the ion-electron system (eV)
  ---------------------------------------------------
  alpha Z        PSCENC =      1096.51130837
  Ewald energy   TEWEN  =    -13555.49358463
  -Hartree energ DENC   =     -8670.48227535
  -exchange      EXHF   =         0.00000000
  -V(xc)+E(xc)   XCENC  =      1013.99570825
  PAW double counting   =     16398.70132812   -16885.42835518
  entropy T*S    EENTRO =         0.00000000
  eigenvalues    EBANDS =     -2912.98862771
  atomic energy  EATOM  =     23319.14298724
  Solvation  Ediel_sol  =         0.00000000
  ---------------------------------------------------
  free energy    TOTEN  =      -196.04151090 eV

  energy without entropy =     -196.04151090  energy(sigma->0) =     -196.04151090


--------------------------------------------------------------------------------------------------------




--------------------------------------- Iteration      1(   9)  ---------------------------------------


    POTLOK:  cpu time    0.2566: real time    0.2572
    SETDIJ:  cpu time    0.0253: real time    0.0255
    EDDIAG:  cpu time    8.5302: real time    8.5705
  RMM-DIIS:  cpu time   48.3558: real time   48.6927
    ORTHCH:  cpu time    0.7211: real time    0.7251
 BZINTS: Fermi energy:  2.858987;203.000000 electrons
         Band energy:***********;  BLOECHL correction: -0.029749
       DOS:  cpu time    0.0625: real time    0.0626
    CHARGE:  cpu time    1.6961: real time    1.7046
    MIXING:  cpu time    0.0093: real time    0.0093
    --------------------------------------------
      LOOP:  cpu time   59.6569: real time   60.0474

 eigenvalue-minimisations  : 16663
 total energy-change (2. order) :-0.6474558E+00  (-0.1009369E+01)
 number of electron     202.9999963 magnetization      23.1396867
 augmentation part       68.1222465 magnetization      15.9306916

 Broyden mixing:
  rms(total) = 0.80465E+00    rms(broyden)= 0.80434E+00
  rms(prec ) = 0.10614E+01
  weight for this iteration     100.00

 eigenvalues of (default mixing * dielectric matrix)
  average eigenvalue GAMMA=   0.7518
  1.0812  1.0812  0.3209  0.5240

 Free energy of the ion-electron system (eV)
  ---------------------------------------------------
  alpha Z        PSCENC =      1096.51130837
  Ewald energy   TEWEN  =    -13555.49358463
  -Hartree energ DENC   =     -8600.74647500
  -exchange      EXHF   =         0.00000000
  -V(xc)+E(xc)   XCENC  =      1011.05639991
  PAW double counting   =     16456.36281631   -16948.36589443
  entropy T*S    EENTRO =         0.00000000
  eigenvalues    EBANDS =     -2975.15652446
  atomic energy  EATOM  =     23319.14298724
  Solvation  Ediel_sol  =         0.00000000
  ---------------------------------------------------
  free energy    TOTEN  =      -196.68896669 eV

  energy without entropy =     -196.68896669  energy(sigma->0) =     -196.68896669


--------------------------------------------------------------------------------------------------------




--------------------------------------- Iteration      1(  10)  ---------------------------------------


    POTLOK:  cpu time    0.2592: real time    0.2603
    SETDIJ:  cpu time    0.0237: real time    0.0237
    EDDIAG:  cpu time    8.5769: real time    8.6310
  RMM-DIIS:  cpu time   51.7154: real time   52.0635
    ORTHCH:  cpu time    0.6750: real time    0.6785
 BZINTS: Fermi energy:  2.737524;203.000000 electrons
         Band energy:***********;  BLOECHL correction: -0.034276
       DOS:  cpu time    0.0626: real time    0.0631
    CHARGE:  cpu time    1.7140: real time    1.7224
    MIXING:  cpu time    0.0087: real time    0.0087
    --------------------------------------------
      LOOP:  cpu time   63.0355: real time   63.4512

 eigenvalue-minimisations  : 17926
 total energy-change (2. order) : 0.1374414E+00  (-0.1777272E+00)
 number of electron     202.9999961 magnetization      23.0757546
 augmentation part       68.6211245 magnetization      16.0911065

 Broyden mixing:
  rms(total) = 0.42995E+00    rms(broyden)= 0.42975E+00
  rms(prec ) = 0.56496E+00
  weight for this iteration     100.00

 eigenvalues of (default mixing * dielectric matrix)
  average eigenvalue GAMMA=   0.8029
  1.3483  1.3483  0.6513  0.3175  0.3492

 Free energy of the ion-electron system (eV)
  ---------------------------------------------------
  alpha Z        PSCENC =      1096.51130837
  Ewald energy   TEWEN  =    -13555.49358463
  -Hartree energ DENC   =     -8573.04547572
  -exchange      EXHF   =         0.00000000
  -V(xc)+E(xc)   XCENC  =      1010.47599532
  PAW double counting   =     16486.68394998   -16981.46498271
  entropy T*S    EENTRO =         0.00000000
  eigenvalues    EBANDS =     -2999.36172319
  atomic energy  EATOM  =     23319.14298724
  Solvation  Ediel_sol  =         0.00000000
  ---------------------------------------------------
  free energy    TOTEN  =      -196.55152533 eV

  energy without entropy =     -196.55152533  energy(sigma->0) =     -196.55152533


--------------------------------------------------------------------------------------------------------




--------------------------------------- Iteration      1(  11)  ---------------------------------------


    POTLOK:  cpu time    0.2598: real time    0.2609
    SETDIJ:  cpu time    0.0249: real time    0.0251
    EDDIAG:  cpu time    8.8452: real time    8.9284
  RMM-DIIS:  cpu time   58.0803: real time   58.4632
    ORTHCH:  cpu time    0.6736: real time    0.6775
 BZINTS: Fermi energy:  2.636186;203.000000 electrons
         Band energy:***********;  BLOECHL correction: -0.033307
       DOS:  cpu time    0.0550: real time    0.0552
    CHARGE:  cpu time    1.7154: real time    1.7241
    MIXING:  cpu time    0.0098: real time    0.0099
    --------------------------------------------
      LOOP:  cpu time   69.6640: real time   70.1443

 eigenvalue-minimisations  : 20259
 total energy-change (2. order) : 0.2082346E-01  (-0.5573679E-01)
 number of electron     202.9999960 magnetization      23.0265759
 augmentation part       68.8529506 magnetization      16.2405308

 Broyden mixing:
  rms(total) = 0.17538E+00    rms(broyden)= 0.17527E+00
  rms(prec ) = 0.23316E+00
  weight for this iteration     100.00

 eigenvalues of (default mixing * dielectric matrix)
  average eigenvalue GAMMA=   0.8798
  1.7257  1.2674  0.9957  0.6764  0.3214  0.2924

 Free energy of the ion-electron system (eV)
  ---------------------------------------------------
  alpha Z        PSCENC =      1096.51130837
  Ewald energy   TEWEN  =    -13555.49358463
  -Hartree energ DENC   =     -8552.44850228
  -exchange      EXHF   =         0.00000000
  -V(xc)+E(xc)   XCENC  =      1010.25383855
  PAW double counting   =     16527.67615993   -17025.98193126
  entropy T*S    EENTRO =         0.00000000
  eigenvalues    EBANDS =     -3016.19097780
  atomic energy  EATOM  =     23319.14298724
  Solvation  Ediel_sol  =         0.00000000
  ---------------------------------------------------
  free energy    TOTEN  =      -196.53070187 eV

  energy without entropy =     -196.53070187  energy(sigma->0) =     -196.53070187


--------------------------------------------------------------------------------------------------------




--------------------------------------- Iteration      1(  12)  ---------------------------------------


    POTLOK:  cpu time    0.2614: real time    0.2630
    SETDIJ:  cpu time    0.0238: real time    0.0238
    EDDIAG:  cpu time    8.6972: real time    8.7481
  RMM-DIIS:  cpu time   59.7075: real time   60.1034
    ORTHCH:  cpu time    0.8321: real time    0.8344
 BZINTS: Fermi energy:  2.659026;203.000000 electrons
         Band energy:***********;  BLOECHL correction: -0.034416
       DOS:  cpu time    0.0689: real time    0.0690
    CHARGE:  cpu time    1.8945: real time    1.9020
    MIXING:  cpu time    0.0089: real time    0.0090
    --------------------------------------------
      LOOP:  cpu time   71.4944: real time   71.9529

 eigenvalue-minimisations  : 20774
 total energy-change (2. order) : 0.1302117E-01  (-0.1411463E-01)
 number of electron     202.9999960 magnetization      22.9664221
 augmentation part       68.8846507 magnetization      16.2745714

 Broyden mixing:
  rms(total) = 0.76603E-01    rms(broyden)= 0.76567E-01
  rms(prec ) = 0.91025E-01
  weight for this iteration     100.00

 eigenvalues of (default mixing * dielectric matrix)
  average eigenvalue GAMMA=   0.9355
  2.1343  1.2220  1.2220  0.6780  0.6780  0.3220  0.2920

 Free energy of the ion-electron system (eV)
  ---------------------------------------------------
  alpha Z        PSCENC =      1096.51130837
  Ewald energy   TEWEN  =    -13555.49358463
  -Hartree energ DENC   =     -8544.09236497
  -exchange      EXHF   =         0.00000000
  -V(xc)+E(xc)   XCENC  =      1010.18648067
  PAW double counting   =     16583.77854617   -17086.45301140
  entropy T*S    EENTRO =         0.00000000
  eigenvalues    EBANDS =     -3020.09804215
  atomic energy  EATOM  =     23319.14298724
  Solvation  Ediel_sol  =         0.00000000
  ---------------------------------------------------
  free energy    TOTEN  =      -196.51768070 eV

  energy without entropy =     -196.51768070  energy(sigma->0) =     -196.51768070


--------------------------------------------------------------------------------------------------------




--------------------------------------- Iteration      1(  13)  ---------------------------------------


    POTLOK:  cpu time    0.2597: real time    0.2608
    SETDIJ:  cpu time    0.0288: real time    0.0292
    EDDIAG:  cpu time    8.5148: real time    8.5617
  RMM-DIIS:  cpu time   59.7894: real time   60.1876
    ORTHCH:  cpu time    0.7050: real time    0.7083
 BZINTS: Fermi energy:  2.662558;203.000000 electrons
         Band energy:***********;  BLOECHL correction: -0.034403
       DOS:  cpu time    0.0777: real time    0.0823
    --------------------------------------------
      LOOP:  cpu time   69.3754: real time   69.8298

 eigenvalue-minimisations  : 20939
 total energy-change (2. order) :-0.2650696E-03  (-0.1130717E-02)
 number of electron     202.9999960 magnetization      22.9664221
 augmentation part       68.8846507 magnetization      16.2745714

 Free energy of the ion-electron system (eV)
  ---------------------------------------------------
  alpha Z        PSCENC =      1096.51130837
  Ewald energy   TEWEN  =    -13555.49358463
  -Hartree energ DENC   =     -8546.06033463
  -exchange      EXHF   =         0.00000000
  -V(xc)+E(xc)   XCENC  =      1010.24426270
  PAW double counting   =     16603.74931400   -17107.72531937
  entropy T*S    EENTRO =         0.00000000
  eigenvalues    EBANDS =     -3016.88657945
  atomic energy  EATOM  =     23319.14298724
  Solvation  Ediel_sol  =         0.00000000
  ---------------------------------------------------
  free energy    TOTEN  =      -196.51794577 eV

  energy without entropy =     -196.51794577  energy(sigma->0) =     -196.51794577


--------------------------------------------------------------------------------------------------------




 average (electrostatic) potential at core
  the test charge radii are     0.8577  0.9577  0.7215
  (the norm of the test charge is              1.0000)
       1 -16.1415       2 -50.3072       3 -50.2615       4 -50.2689       5 -50.2605
       6 -50.2684       7 -50.3058       8 -50.2761       9 -50.3009      10 -73.2651
      11 -73.2646      12 -73.2634      13 -73.4024      14 -73.4028      15 -73.0840
      16 -73.2648      17 -73.0821      18 -73.1369      19 -73.1365      20 -73.1363
      21 -73.0819      22 -73.0822      23 -73.4041      24 -73.1368      25 -73.4034
 
 
 
 E-fermi :   2.6626     XC(G=0): -10.6814     alpha+bet : -9.6740


 spin component 1

 k-point     1 :       0.0000    0.0000    0.0000
  band No.  band energies     occupation 
      1     -48.4790      1.00000
      2     -48.4148      1.00000
      3     -48.3989      1.00000
      4     -48.3650      1.00000
      5     -48.3496      1.00000
      6     -48.3360      1.00000
      7     -48.3285      1.00000
      8     -48.3208      1.00000
      9     -48.2320      1.00000
     10     -48.2203      1.00000
     11     -48.2104      1.00000
     12     -48.2061      1.00000
     13     -48.1965      1.00000
     14     -48.1917      1.00000
     15     -48.1892      1.00000
     16     -48.1875      1.00000
     17     -48.1804      1.00000
     18     -48.1774      1.00000
     19     -48.1752      1.00000
     20     -48.1719      1.00000
     21     -48.1680      1.00000
     22     -48.1519      1.00000
     23     -48.1468      1.00000
     24     -48.1286      1.00000
     25     -41.6623      1.00000
     26     -17.5787      1.00000
     27     -16.9836      1.00000
     28     -16.8204      1.00000
     29     -16.2153      1.00000
     30     -16.1815      1.00000
     31     -16.1797      1.00000
     32     -15.9779      1.00000
     33     -15.8545      1.00000
     34     -15.8542      1.00000
     35     -15.8023      1.00000
     36     -15.7914      1.00000
     37     -15.6971      1.00000
     38     -15.6966      1.00000
     39     -15.5542      1.00000
     40     -15.5237      1.00000
     41     -15.5232      1.00000
     42      -5.1485      1.00000
     43      -4.6653      1.00000
     44      -4.6128      1.00000
     45      -4.6125      1.00000
     46      -4.1691      1.00000
     47      -4.1287      1.00000
     48      -3.9578      1.00000
     49      -3.9534      1.00000
     50      -3.8082      1.00000
     51      -3.6693      1.00000
     52      -3.6689      1.00000
     53      -3.6608      1.00000
     54      -3.5548      1.00000
     55      -3.4712      1.00000
     56      -3.1162      1.00000
     57      -3.0575      1.00000
     58      -3.0375      1.00000
     59      -3.0360      1.00000
     60      -2.9676      1.00000
     61      -2.8819      1.00000
     62      -2.8076      1.00000
     63      -2.7995      1.00000
     64      -2.7991      1.00000
     65      -2.6629      1.00000
     66      -2.4755      1.00000
     67      -2.4753      1.00000
     68      -2.3354      1.00000
     69      -2.2991      1.00000
     70      -1.9935      1.00000
     71      -1.9907      1.00000
     72      -1.8370      1.00000
     73      -1.6788      1.00000
     74      -1.6758      1.00000
     75      -1.1789      1.00000
     76      -1.1767      1.00000
     77      -0.8488      1.00000
     78      -0.7993      1.00000
     79      -0.7992      1.00000
     80      -0.7048      1.00000
     81      -0.6864      1.00000
     82      -0.5461      1.00000
     83      -0.5202      1.00000
     84      -0.5006      1.00000
     85      -0.5004      1.00000
     86      -0.3925      1.00000
     87       0.1201      1.00000
     88       0.1211      1.00000
     89       0.1331      1.00000
     90       0.2577      1.00000
     91       0.2592      1.00000
     92       0.2611      1.00000
     93       0.2724      1.00000
     94       0.2735      1.00000
     95       0.4229      1.00000
     96       0.4320      1.00000
     97       0.4330      1.00000
     98       0.4462      1.00000
     99       0.5360      1.00000
    100       0.5379      1.00000
    101       0.6122      1.00000
    102       0.6127      1.00000
    103       0.6447      1.00000
    104       0.9253      1.00000
    105       0.9500      1.00000
    106       0.9514      1.00000
    107       1.3426      1.00000
    108       1.3480      1.00000
    109       1.3510      1.00000
    110       1.3945      1.00000
    111       1.4793      1.00000
    112       1.5016      1.00000
    113       1.5022      1.00000
    114       3.2195      0.00000
    115       3.2410      0.00000
    116       3.6595      0.00000
    117       3.6597      0.00000
    118       3.8369      0.00000
    119       3.8438      0.00000
    120       3.8949      0.00000
    121       3.9887      0.00000
    122       3.9938      0.00000
    123       4.2565      0.00000
    124       4.2632      0.00000
    125       4.4251      0.00000
    126       4.4264      0.00000
    127       4.4678      0.00000
    128       4.5187      0.00000
    129       4.5614      0.00000
    130       8.4315      0.00000
    131      11.1222      0.00000
    132      11.5348      0.00000
    133      11.6551      0.00000
    134      11.6557      0.00000
    135      11.9604      0.00000
    136      12.4856      0.00000
    137      12.4866      0.00000
    138      13.2133      0.00000
    139      13.3781      0.00000
    140      13.5207      0.00000
    141      13.5252      0.00000
    142      13.5640      0.00000
    143      13.8660      0.00000
    144      15.7749      0.00000
    145      15.8533      0.00000
    146      15.9257      0.00000
    147      16.0852      0.00000

 k-point     2 :       0.2500    0.0000    0.0000
  band No.  band energies     occupation 
      1     -48.4710      1.00000
      2     -48.4166      1.00000
      3     -48.3948      1.00000
      4     -48.3648      1.00000
      5     -48.3542      1.00000
      6     -48.3388      1.00000
      7     -48.3245      1.00000
      8     -48.3210      1.00000
      9     -48.2291      1.00000
     10     -48.2201      1.00000
     11     -48.2106      1.00000
     12     -48.2076      1.00000
     13     -48.1969      1.00000
     14     -48.1955      1.00000
     15     -48.1912      1.00000
     16     -48.1866      1.00000
     17     -48.1815      1.00000
     18     -48.1791      1.00000
     19     -48.1733      1.00000
     20     -48.1702      1.00000
     21     -48.1671      1.00000
     22     -48.1527      1.00000
     23     -48.1476      1.00000
     24     -48.1322      1.00000
     25     -41.6623      1.00000
     26     -17.4823      1.00000
     27     -17.0209      1.00000
     28     -16.7774      1.00000
     29     -16.3290      1.00000
     30     -16.1724      1.00000
     31     -16.1697      1.00000
     32     -15.9563      1.00000
     33     -15.8742      1.00000
     34     -15.8589      1.00000
     35     -15.8049      1.00000
     36     -15.7767      1.00000
     37     -15.7075      1.00000
     38     -15.6774      1.00000
     39     -15.5707      1.00000
     40     -15.5521      1.00000
     41     -15.5438      1.00000
     42      -4.9706      1.00000
     43      -4.4684      1.00000
     44      -4.4675      1.00000
     45      -4.3697      1.00000
     46      -4.1108      1.00000
     47      -4.0015      1.00000
     48      -3.9366      1.00000
     49      -3.9288      1.00000
     50      -3.9043      1.00000
     51      -3.7082      1.00000
     52      -3.6494      1.00000
     53      -3.6144      1.00000
     54      -3.5662      1.00000
     55      -3.3902      1.00000
     56      -3.2778      1.00000
     57      -3.2195      1.00000
     58      -3.1530      1.00000
     59      -3.0782      1.00000
     60      -3.0699      1.00000
     61      -2.9802      1.00000
     62      -2.9478      1.00000
     63      -2.9170      1.00000
     64      -2.8307      1.00000
     65      -2.7120      1.00000
     66      -2.6820      1.00000
     67      -2.4881      1.00000
     68      -2.2997      1.00000
     69      -1.9206      1.00000
     70      -1.9049      1.00000
     71      -1.8908      1.00000
     72      -1.6402      1.00000
     73      -1.6292      1.00000
     74      -1.4803      1.00000
     75      -1.3903      1.00000
     76      -1.3320      1.00000
     77      -1.2449      1.00000
     78      -1.1235      1.00000
     79      -1.0729      1.00000
     80      -0.9450      1.00000
     81      -0.6624      1.00000
     82      -0.6514      1.00000
     83      -0.6179      1.00000
     84      -0.5631      1.00000
     85      -0.3731      1.00000
     86      -0.2281      1.00000
     87      -0.1709      1.00000
     88       0.0236      1.00000
     89       0.0534      1.00000
     90       0.1693      1.00000
     91       0.2696      1.00000
     92       0.3393      1.00000
     93       0.3508      1.00000
     94       0.3722      1.00000
     95       0.4268      1.00000
     96       0.4901      1.00000
     97       0.5879      1.00000
     98       0.5908      1.00000
     99       0.6358      1.00000
    100       0.6957      1.00000
    101       0.7509      1.00000
    102       0.8116      1.00000
    103       0.8275      1.00000
    104       0.9355      1.00000
    105       1.0822      1.00000
    106       1.1193      1.00000
    107       1.1955      1.00000
    108       1.2639      1.00000
    109       1.3117      1.00000
    110       1.3722      1.00000
    111       1.4021      1.00000
    112       1.4853      1.00000
    113       1.5577      1.00000
    114       3.4171      0.00000
    115       3.4369      0.00000
    116       3.6882      0.00000
    117       3.7449      0.00000
    118       3.7463      0.00000
    119       3.7702      0.00000
    120       3.8597      0.00000
    121       3.8952      0.00000
    122       3.9140      0.00000
    123       4.0891      0.00000
    124       4.2404      0.00000
    125       4.2692      0.00000
    126       4.3047      0.00000
    127       4.3552      0.00000
    128       4.4069      0.00000
    129       4.4888      0.00000
    130       8.9203      0.00000
    131      11.2372      0.00000
    132      11.3020      0.00000
    133      11.6775      0.00000
    134      11.9797      0.00000
    135      12.0631      0.00000
    136      12.2027      0.00000
    137      12.7765      0.00000
    138      13.1773      0.00000
    139      13.5620      0.00000
    140      13.6849      0.00000
    141      13.7091      0.00000
    142      14.1885      0.00000
    143      14.5987      0.00000
    144      15.2566      0.00000
    145      15.7194      0.00000
    146      15.8842      0.00000
    147      16.2914      0.00000

 k-point     3 :       0.5000    0.0000    0.0000
  band No.  band energies     occupation 
      1     -48.4605      1.00000
      2     -48.4236      1.00000
      3     -48.3850      1.00000
      4     -48.3645      1.00000
      5     -48.3613      1.00000
      6     -48.3409      1.00000
      7     -48.3216      1.00000
      8     -48.3210      1.00000
      9     -48.2228      1.00000
     10     -48.2191      1.00000
     11     -48.2145      1.00000
     12     -48.2104      1.00000
     13     -48.2016      1.00000
     14     -48.1965      1.00000
     15     -48.1906      1.00000
     16     -48.1864      1.00000
     17     -48.1830      1.00000
     18     -48.1808      1.00000
     19     -48.1708      1.00000
     20     -48.1676      1.00000
     21     -48.1665      1.00000
     22     -48.1540      1.00000
     23     -48.1482      1.00000
     24     -48.1362      1.00000
     25     -41.6623      1.00000
     26     -17.2783      1.00000
     27     -17.2045      1.00000
     28     -16.5843      1.00000
     29     -16.5486      1.00000
     30     -16.1650      1.00000
     31     -16.1584      1.00000
     32     -15.9390      1.00000
     33     -15.8785      1.00000
     34     -15.8638      1.00000
     35     -15.8105      1.00000
     36     -15.7653      1.00000
     37     -15.7281      1.00000
     38     -15.6475      1.00000
     39     -15.5869      1.00000
     40     -15.5818      1.00000
     41     -15.5738      1.00000
     42      -4.5667      1.00000
     43      -4.5388      1.00000
     44      -4.1267      1.00000
     45      -4.0325      1.00000
     46      -4.0168      1.00000
     47      -3.9343      1.00000
     48      -3.8901      1.00000
     49      -3.8745      1.00000
     50      -3.8491      1.00000
     51      -3.8011      1.00000
     52      -3.7928      1.00000
     53      -3.7030      1.00000
     54      -3.5542      1.00000
     55      -3.4783      1.00000
     56      -3.4132      1.00000
     57      -3.3451      1.00000
     58      -3.3250      1.00000
     59      -3.2548      1.00000
     60      -3.1275      1.00000
     61      -3.0573      1.00000
     62      -2.9406      1.00000
     63      -2.8911      1.00000
     64      -2.8430      1.00000
     65      -2.7534      1.00000
     66      -2.5413      1.00000
     67      -2.5122      1.00000
     68      -2.0855      1.00000
     69      -2.0582      1.00000
     70      -1.9799      1.00000
     71      -1.9749      1.00000
     72      -1.6865      1.00000
     73      -1.5918      1.00000
     74      -1.5434      1.00000
     75      -1.4656      1.00000
     76      -1.4145      1.00000
     77      -1.2604      1.00000
     78      -1.2040      1.00000
     79      -1.1495      1.00000
     80      -0.9767      1.00000
     81      -0.9040      1.00000
     82      -0.7871      1.00000
     83      -0.7822      1.00000
     84      -0.6804      1.00000
     85      -0.4529      1.00000
     86      -0.2930      1.00000
     87      -0.0708      1.00000
     88       0.0544      1.00000
     89       0.0716      1.00000
     90       0.1645      1.00000
     91       0.2391      1.00000
     92       0.3003      1.00000
     93       0.3057      1.00000
     94       0.5854      1.00000
     95       0.6326      1.00000
     96       0.6644      1.00000
     97       0.6794      1.00000
     98       0.6880      1.00000
     99       0.7315      1.00000
    100       0.7722      1.00000
    101       0.8333      1.00000
    102       0.9634      1.00000
    103       0.9875      1.00000
    104       1.0094      1.00000
    105       1.0852      1.00000
    106       1.1306      1.00000
    107       1.1312      1.00000
    108       1.1524      1.00000
    109       1.2412      1.00000
    110       1.3806      1.00000
    111       1.4150      1.00000
    112       1.4844      1.00000
    113       1.4977      1.00000
    114       3.5851      0.00000
    115       3.6191      0.00000
    116       3.6569      0.00000
    117       3.6767      0.00000
    118       3.7064      0.00000
    119       3.7284      0.00000
    120       3.8402      0.00000
    121       3.8482      0.00000
    122       3.9462      0.00000
    123       4.0535      0.00000
    124       4.0938      0.00000
    125       4.1084      0.00000
    126       4.1770      0.00000
    127       4.2090      0.00000
    128       4.2515      0.00000
    129       4.4559      0.00000
    130      10.0153      0.00000
    131      10.1370      0.00000
    132      11.4305      0.00000
    133      11.8422      0.00000
    134      11.9998      0.00000
    135      12.1652      0.00000
    136      12.2221      0.00000
    137      13.6702      0.00000
    138      13.8436      0.00000
    139      13.9104      0.00000
    140      13.9477      0.00000
    141      13.9743      0.00000
    142      14.1231      0.00000
    143      14.6731      0.00000
    144      14.7326      0.00000
    145      15.1029      0.00000
    146      15.8228      0.00000
    147      16.0085      0.00000

 k-point     4 :       0.0000    0.2500    0.0000
  band No.  band energies     occupation 
      1     -48.4691      1.00000
      2     -48.4187      1.00000
      3     -48.3962      1.00000
      4     -48.3689      1.00000
      5     -48.3491      1.00000
      6     -48.3338      1.00000
      7     -48.3287      1.00000
      8     -48.3213      1.00000
      9     -48.2318      1.00000
     10     -48.2180      1.00000
     11     -48.2100      1.00000
     12     -48.2056      1.00000
     13     -48.1983      1.00000
     14     -48.1945      1.00000
     15     -48.1891      1.00000
     16     -48.1833      1.00000
     17     -48.1822      1.00000
     18     -48.1805      1.00000
     19     -48.1756      1.00000
     20     -48.1717      1.00000
     21     -48.1666      1.00000
     22     -48.1558      1.00000
     23     -48.1498      1.00000
     24     -48.1284      1.00000
     25     -41.6623      1.00000
     26     -17.4823      1.00000
     27     -17.0210      1.00000
     28     -16.7774      1.00000
     29     -16.3288      1.00000
     30     -16.1743      1.00000
     31     -16.1682      1.00000
     32     -15.9562      1.00000
     33     -15.8744      1.00000
     34     -15.8586      1.00000
     35     -15.8049      1.00000
     36     -15.7769      1.00000
     37     -15.7078      1.00000
     38     -15.6769      1.00000
     39     -15.5709      1.00000
     40     -15.5526      1.00000
     41     -15.5433      1.00000
     42      -4.9706      1.00000
     43      -4.4681      1.00000
     44      -4.4671      1.00000
     45      -4.3697      1.00000
     46      -4.1107      1.00000
     47      -4.0014      1.00000
     48      -3.9364      1.00000
     49      -3.9260      1.00000
     50      -3.9074      1.00000
     51      -3.7080      1.00000
     52      -3.6496      1.00000
     53      -3.6145      1.00000
     54      -3.5665      1.00000
     55      -3.3913      1.00000
     56      -3.2783      1.00000
     57      -3.2194      1.00000
     58      -3.1519      1.00000
     59      -3.0784      1.00000
     60      -3.0729      1.00000
     61      -2.9803      1.00000
     62      -2.9474      1.00000
     63      -2.9141      1.00000
     64      -2.8309      1.00000
     65      -2.7114      1.00000
     66      -2.6822      1.00000
     67      -2.4882      1.00000
     68      -2.2999      1.00000
     69      -1.9203      1.00000
     70      -1.9060      1.00000
     71      -1.8892      1.00000
     72      -1.6420      1.00000
     73      -1.6288      1.00000
     74      -1.4815      1.00000
     75      -1.3900      1.00000
     76      -1.3310      1.00000
     77      -1.2465      1.00000
     78      -1.1237      1.00000
     79      -1.0713      1.00000
     80      -0.9439      1.00000
     81      -0.6626      1.00000
     82      -0.6511      1.00000
     83      -0.6176      1.00000
     84      -0.5634      1.00000
     85      -0.3733      1.00000
     86      -0.2267      1.00000
     87      -0.1707      1.00000
     88       0.0233      1.00000
     89       0.0532      1.00000
     90       0.1671      1.00000
     91       0.2715      1.00000
     92       0.3399      1.00000
     93       0.3517      1.00000
     94       0.3735      1.00000
     95       0.4263      1.00000
     96       0.4924      1.00000
     97       0.5868      1.00000
     98       0.5899      1.00000
     99       0.6359      1.00000
    100       0.6941      1.00000
    101       0.7442      1.00000
    102       0.8119      1.00000
    103       0.8310      1.00000
    104       0.9344      1.00000
    105       1.0822      1.00000
    106       1.1214      1.00000
    107       1.1925      1.00000
    108       1.2631      1.00000
    109       1.3132      1.00000
    110       1.3717      1.00000
    111       1.4075      1.00000
    112       1.4822      1.00000
    113       1.5579      1.00000
    114       3.4168      0.00000
    115       3.4378      0.00000
    116       3.6864      0.00000
    117       3.7406      0.00000
    118       3.7522      0.00000
    119       3.7692      0.00000
    120       3.8596      0.00000
    121       3.9004      0.00000
    122       3.9092      0.00000
    123       4.0821      0.00000
    124       4.2468      0.00000
    125       4.2748      0.00000
    126       4.3032      0.00000
    127       4.3569      0.00000
    128       4.4069      0.00000
    129       4.4843      0.00000
    130       8.9203      0.00000
    131      11.2376      0.00000
    132      11.3017      0.00000
[...]
    100       3.4921      0.00000
    101       3.5514      0.00000
    102       3.5892      0.00000
    103       3.6350      0.00000
    104       3.6527      0.00000
    105       3.6816      0.00000
    106       3.6902      0.00000
    107       3.7238      0.00000
    108       3.7796      0.00000
    109       3.8032      0.00000
    110       3.8771      0.00000
    111       3.9176      0.00000
    112       3.9490      0.00000
    113       3.9624      0.00000
    114       5.0944      0.00000
    115       5.1400      0.00000
    116       5.1983      0.00000
    117       5.2705      0.00000
    118       5.2963      0.00000
    119       5.3069      0.00000
    120       5.3492      0.00000
    121       5.3687      0.00000
    122       5.3889      0.00000
    123       5.4206      0.00000
    124       5.5002      0.00000
    125       5.5848      0.00000
    126       5.6603      0.00000
    127       5.6816      0.00000
    128       5.7272      0.00000
    129       5.7714      0.00000
    130       9.9785      0.00000
    131      10.9146      0.00000
    132      11.6021      0.00000
    133      11.8016      0.00000
    134      12.1544      0.00000
    135      12.5934      0.00000
    136      13.1162      0.00000
    137      13.2182      0.00000
    138      13.7379      0.00000
    139      14.1431      0.00000
    140      14.3853      0.00000
    141      14.4596      0.00000
    142      14.7277      0.00000
    143      15.0497      0.00000
    144      15.3577      0.00000
    145      15.4421      0.00000
    146      15.9329      0.00000
    147      16.3790      0.00000


--------------------------------------------------------------------------------------------------------


 soft charge-density along one line, spin component           1
         0         1         2         3         4         5         6         7         8         9
 total charge-density along one line
 
 soft charge-density along one line, spin component           2
         0         1         2         3         4         5         6         7         8         9
 total charge-density along one line
 
 pseudopotential strength for first ion, spin component:           1
-49.626   9.581  -0.000  -0.000   0.000  -0.000  -0.000   0.000
  9.581  -0.621   0.000   0.000  -0.000   0.000   0.000  -0.000
 -0.000   0.000  -0.517  -0.000  -0.000   0.264   0.000  -0.000
 -0.000   0.000  -0.000  -0.517  -0.000   0.000   0.264  -0.000
  0.000  -0.000  -0.000  -0.000  -0.517  -0.000  -0.000   0.264
 -0.000   0.000   0.264   0.000  -0.000   1.932   0.000  -0.000
 -0.000   0.000   0.000   0.264  -0.000   0.000   1.932  -0.000
  0.000  -0.000  -0.000  -0.000   0.264  -0.000  -0.000   1.932
 pseudopotential strength for first ion, spin component:           2
-49.614   9.577  -0.000  -0.000   0.000  -0.000  -0.000   0.000
  9.577  -0.619   0.000   0.000  -0.000   0.000   0.000  -0.000
 -0.000   0.000  -0.507  -0.000  -0.000   0.259   0.000  -0.000
 -0.000   0.000  -0.000  -0.507  -0.000   0.000   0.259  -0.000
  0.000  -0.000  -0.000  -0.000  -0.507  -0.000  -0.000   0.259
 -0.000   0.000   0.259   0.000  -0.000   1.935   0.000  -0.000
 -0.000   0.000   0.000   0.259  -0.000   0.000   1.935  -0.000
  0.000  -0.000  -0.000  -0.000   0.259  -0.000  -0.000   1.935
 total augmentation occupancy for first ion, spin component:           1
  2.016   0.109   0.000   0.000   0.000   0.000  -0.000   0.000
  0.109   0.773  -0.000   0.000   0.000  -0.000  -0.000  -0.000
  0.000  -0.000   0.088   0.000   0.000  -0.016  -0.000  -0.000
  0.000   0.000   0.000   0.089  -0.000  -0.000  -0.016   0.000
  0.000   0.000   0.000  -0.000   0.088  -0.000   0.000  -0.016
  0.000  -0.000  -0.016  -0.000  -0.000   0.003   0.000  -0.000
 -0.000  -0.000  -0.000  -0.016   0.000   0.000   0.003  -0.000
  0.000  -0.000  -0.000   0.000  -0.016  -0.000  -0.000   0.003
 total augmentation occupancy for first ion, spin component:           2
  0.001   0.004   0.000  -0.000  -0.000  -0.000   0.000  -0.000
  0.004   0.030   0.000  -0.000  -0.000  -0.000   0.000   0.000
  0.000   0.000   0.003   0.000   0.000  -0.000  -0.000  -0.000
 -0.000  -0.000   0.000   0.003  -0.000  -0.000  -0.000   0.000
 -0.000  -0.000   0.000  -0.000   0.003  -0.000   0.000  -0.000
 -0.000  -0.000  -0.000  -0.000  -0.000   0.000  -0.000   0.000
  0.000   0.000  -0.000  -0.000   0.000  -0.000   0.000  -0.000
 -0.000   0.000  -0.000   0.000  -0.000   0.000  -0.000   0.000


------------------------ aborting loop because EDIFF is reached ----------------------------------------


 


 total charge     
 
# of ion       s       p       d       tot
------------------------------------------
    1        2.081   0.213   0.000   2.293
    2        0.343   6.444   4.878  11.665
    3        0.343   6.445   4.865  11.654
    4        0.342   6.444   4.861  11.647
    5        0.343   6.445   4.865  11.653
    6        0.343   6.445   4.869  11.657
    7        0.343   6.444   4.879  11.666
    8        0.343   6.445   4.872  11.660
    9        0.343   6.444   4.877  11.664
   10        1.581   3.398   0.000   4.979
   11        1.581   3.398   0.000   4.979
   12        1.581   3.397   0.000   4.978
   13        1.569   3.461   0.000   5.030
   14        1.569   3.461   0.000   5.030
   15        1.583   3.388   0.000   4.971
   16        1.581   3.398   0.000   4.979
   17        1.583   3.387   0.000   4.970
   18        1.582   3.393   0.000   4.975
   19        1.582   3.393   0.000   4.975
   20        1.582   3.393   0.000   4.975
   21        1.583   3.386   0.000   4.969
   22        1.583   3.386   0.000   4.969
   23        1.569   3.461   0.000   5.030
   24        1.582   3.393   0.000   4.975
   25        1.569   3.461   0.000   5.030
--------------------------------------------------
tot         30.084 106.324  38.966 175.374
 


 magnetization (x)
 
# of ion       s       p       d       tot
------------------------------------------
    1        0.003   0.007   0.000   0.010
    2        0.029   0.034   2.667   2.730
    3        0.030   0.035   2.715   2.780
    4        0.029   0.034   2.672   2.735
    5        0.030   0.035   2.715   2.780
    6        0.030   0.035   2.713   2.778
    7        0.029   0.034   2.666   2.728
    8        0.030   0.035   2.713   2.778
    9        0.029   0.034   2.666   2.729
   10        0.003   0.010   0.000   0.013
   11        0.003   0.010   0.000   0.013
   12        0.003   0.010   0.000   0.013
   13        0.001   0.018   0.000   0.019
   14        0.001   0.018   0.000   0.019
   15        0.004   0.021   0.000   0.024
   16        0.003   0.010   0.000   0.013
   17        0.004   0.021   0.000   0.024
   18        0.003   0.010   0.000   0.014
   19        0.003   0.010   0.000   0.014
   20        0.003   0.010   0.000   0.014
   21        0.004   0.021   0.000   0.024
   22        0.004   0.021   0.000   0.024
   23        0.001   0.018   0.000   0.019
   24        0.003   0.010   0.000   0.014
   25        0.001   0.018   0.000   0.019
--------------------------------------------------
tot          0.284   0.519  21.528  22.331
 
    CHARGE:  cpu time    2.0449: real time    2.0536
    FORLOC:  cpu time    0.0358: real time    0.0359
    FORNL :  cpu time   18.0741: real time   18.1841
    STRESS:  cpu time   54.8420: real time   55.1262
    FORCOR:  cpu time    0.3191: real time    0.3198
    FORHAR:  cpu time    0.0731: real time    0.0733
    MIXING:  cpu time    0.0096: real time    0.0096
    OFIELD:  cpu time    0.0001: real time    0.0001

  FORCE on cell =-STRESS in cart. coord.  units (eV):
  Direction    XX          YY          ZZ          XY          YZ          ZX
  --------------------------------------------------------------------------------------
  Alpha Z  1096.51131  1096.51131  1096.51131
  Ewald   -4524.79093 -4524.79093 -4505.96233    -0.00000    -0.00000     0.00000
  Hartree  2847.41233  2847.81765  2862.67078     0.01080     0.15855    -0.90880
  E(xc)   -1110.72848 -1110.72814 -1110.73398     0.00024     0.00000    -0.00055
  Local   -1205.04632 -1205.45601 -1238.50482    -0.01836    -0.18279     1.01215
  n-local  -906.99148  -906.99280  -906.96409    -0.00041    -0.00045     0.00530
  augment   599.57111   599.55246   599.27296     0.00694    -0.00008     0.01029
  Kinetic  3210.73093  3210.68610  3209.59269     0.00808     0.00071     0.03110
  Fock        0.00000     0.00000     0.00000     0.00000     0.00000     0.00000
  -------------------------------------------------------------------------------------
  Total       6.66847     6.59964     5.88252     0.00729    -0.02405     0.14949
  in kB      39.07950    38.67618    34.47357     0.04273    -0.14096     0.87604
  external pressure =       37.41 kB  Pullay stress =        0.00 kB


 VOLUME and BASIS-vectors are now :
 -----------------------------------------------------------------------------
  energy-cutoff  :      520.00
  volume of cell :      273.39
      direct lattice vectors                 reciprocal lattice vectors
     5.770635000  0.000000000  0.000000000     0.173291154  0.000000000  0.000000000
     0.000000000  5.770635000  0.000000000     0.000000000  0.173291154  0.000000000
     0.000000000  0.000000000  8.209947000     0.000000000  0.000000000  0.121803466

  length of vectors
     5.770635000  5.770635000  8.209947000     0.173291154  0.173291154  0.121803466


 FORCES acting on ions
    electron-ion (+dipol)            ewald-force                    non-local-force                 convergence-correction
 -----------------------------------------------------------------------------------------------
   -.315E-01 -.347E-02 0.450E-01   0.142E-13 0.151E-13 -.284E-13   -.809E-03 0.203E-03 0.799E-03   0.303E-01 0.298E-02 -.460E-01
   0.186E+02 0.881E-02 0.267E+02   -.201E+02 -.256E-13 -.269E+02   0.403E+00 0.183E-02 0.552E+00   0.348E+00 -.107E-01 -.464E+00
   -.106E+00 -.110E+02 0.313E+02   -.117E-12 0.110E+02 -.329E+02   -.508E-02 -.284E+00 0.621E+00   0.112E+00 0.355E+00 0.284E+00
   -.186E+02 0.666E-02 0.267E+02   0.201E+02 -.256E-13 -.269E+02   -.406E+00 0.250E-03 0.552E+00   -.345E+00 -.699E-02 -.453E+00
   -.106E+00 0.110E+02 0.313E+02   -.103E-12 -.110E+02 -.329E+02   -.419E-02 0.284E+00 0.620E+00   0.111E+00 -.355E+00 0.289E+00
   -.109E+02 -.114E-01 -.317E+02   0.110E+02 -.282E-13 0.329E+02   -.277E+00 -.594E-03 -.631E+00   0.229E+00 0.123E-01 0.835E-01
   0.121E+00 0.188E+02 -.264E+02   -.568E-13 -.201E+02 0.269E+02   0.632E-02 0.411E+00 -.541E+00   -.126E+00 0.148E+00 0.128E+00
   0.109E+02 -.123E-01 -.317E+02   -.110E+02 -.148E-15 0.329E+02   0.277E+00 -.647E-03 -.632E+00   -.228E+00 0.131E-01 0.916E-01
   0.119E+00 -.188E+02 -.264E+02   -.568E-13 0.201E+02 0.269E+02   0.473E-02 -.411E+00 -.541E+00   -.123E+00 -.148E+00 0.131E+00
   0.261E+00 0.344E+03 0.258E+03   0.568E-13 -.364E+03 -.272E+03   0.185E-01 0.201E+02 0.145E+02   -.276E+00 -.774E-01 -.304E+00
   0.344E+03 0.306E-01 -.257E+03   -.364E+03 0.264E-13 0.272E+03   0.201E+02 0.185E-02 -.144E+02   -.342E+00 -.321E-01 -.131E+00
   -.344E+03 0.320E-01 -.258E+03   0.364E+03 -.506E-14 0.272E+03   -.201E+02 0.294E-02 -.144E+02   0.294E+00 -.335E-01 0.172E+00
   -.256E+00 -.315E+03 -.212E+03   0.551E-13 0.330E+03 0.222E+03   -.191E-01 -.142E+02 -.959E+01   0.274E+00 0.729E-01 0.902E-01
   -.256E+00 0.315E+03 -.212E+03   0.213E-13 -.330E+03 0.222E+03   -.192E-01 0.142E+02 -.959E+01   0.273E+00 -.723E-01 0.102E+00
   -.356E+03 -.441E-02 0.257E+03   0.376E+03 0.102E-13 -.272E+03   -.206E+02 -.906E-04 0.145E+02   0.200E+00 0.474E-02 0.168E+00
   0.262E+00 -.344E+03 0.258E+03   0.604E-13 0.364E+03 -.272E+03   0.198E-01 -.201E+02 0.145E+02   -.278E+00 0.722E-01 -.342E+00
   0.356E+03 -.543E-02 0.258E+03   -.376E+03 0.713E-14 -.272E+03   0.206E+02 -.388E-03 0.145E+02   -.153E+00 0.521E-02 -.137E+00
   -.518E-01 0.358E+03 0.234E+03   0.533E-13 -.378E+03 -.247E+03   -.351E-02 0.206E+02 0.139E+02   0.542E-01 -.373E+00 -.482E-01
   0.357E+03 0.480E-02 -.234E+03   -.378E+03 0.178E-13 0.247E+03   0.206E+02 0.719E-03 -.140E+02   -.201E+00 -.579E-02 0.299E+00
   -.357E+03 0.537E-02 -.234E+03   0.378E+03 -.107E-13 0.247E+03   -.206E+02 0.226E-03 -.140E+02   0.218E+00 -.489E-02 0.287E+00
   0.519E-01 -.356E+03 -.258E+03   0.533E-13 0.376E+03 0.272E+03   0.345E-02 -.206E+02 -.145E+02   -.543E-01 0.323E+00 0.213E+00
   0.515E-01 0.356E+03 -.258E+03   0.284E-13 -.376E+03 0.272E+03   0.349E-02 0.206E+02 -.145E+02   -.548E-01 -.318E+00 0.251E+00
   -.316E+03 -.310E-01 0.212E+03   0.330E+03 0.127E-15 -.222E+03   -.142E+02 -.241E-02 0.959E+01   0.285E+00 0.333E-01 -.273E+00
   -.504E-01 -.358E+03 0.234E+03   0.568E-13 0.378E+03 -.247E+03   -.361E-02 -.206E+02 0.139E+02   0.538E-01 0.373E+00 -.607E-01
   0.316E+03 -.309E-01 0.212E+03   -.330E+03 -.662E-16 -.222E+03   0.142E+02 -.239E-02 0.959E+01   -.302E+00 0.326E-01 -.262E+00
 -----------------------------------------------------------------------------------------------
   0.605E-02 -.109E-01 -.689E-01   -.227E-12 0.568E-13 0.540E-12   -.327E-02 0.185E-02 0.434E-02   -.205E-02 0.102E-01 0.664E-01
 
 
 POSITION                                       TOTAL-FORCE (eV/Angst)
 -----------------------------------------------------------------------------------
      0.00000      0.00000      4.10497        -0.002011     -0.000332     -0.000205
      4.32798      2.88532      3.07873        -0.782859     -0.000099     -0.134567
      0.00000      1.44266      1.02624         0.000159      0.060922     -0.627015
      1.44266      2.88532      3.07873         0.780277     -0.000121     -0.134817
      0.00000      4.32798      1.02624         0.000259     -0.061189     -0.626984
      1.44266      0.00000      7.18370         0.063305      0.000215      0.622566
      2.88532      4.32798      5.13122         0.001047     -0.780754      0.137431
      4.32798      0.00000      7.18370        -0.063256      0.000177      0.623061
      2.88532      1.44266      5.13122         0.001112      0.780509      0.137611
      2.88532      1.61105      3.20805         0.002980      0.009432     -0.024869
      1.61105      2.88532      5.00189         0.011883      0.000252      0.027191
      4.15959      2.88532      5.00189        -0.005270      0.001408      0.027702
      0.00000      4.15959      2.94941        -0.001311      0.442027      0.412179
      0.00000      1.61105      2.94941        -0.001909     -0.442069      0.411782
      1.27427      2.88532      1.15557        -0.056757      0.000198      0.107878
      2.88532      4.15959      3.20805         0.004366     -0.008785     -0.024683
      4.49636      2.88532      1.15557         0.049344     -0.000658      0.107998
      0.00000      4.49636      7.31303        -0.001117     -0.005874     -0.002578
      4.49636      0.00000      0.89692        -0.006733     -0.000319     -0.000417
      1.27427      0.00000      0.89692         0.005774      0.000665      0.000205
      2.88532      1.27427      7.05438         0.000992     -0.049761     -0.105258
      2.88532      4.49636      7.05438         0.000131      0.049034     -0.105556
      4.15959      0.00000      5.26054         0.443558     -0.000158     -0.413142
      0.00000      1.27427      7.31303        -0.000204      0.006068     -0.002112
      1.61105      0.00000      5.26054        -0.443759     -0.000787     -0.413401
 -----------------------------------------------------------------------------------
    total drift:                                0.000729      0.001127      0.001902


--------------------------------------------------------------------------------------------------------



  FREE ENERGIE OF THE ION-ELECTRON SYSTEM (eV)
  ---------------------------------------------------
  free  energy   TOTEN  =      -196.51794577 eV

  energy  without entropy=     -196.51794577  energy(sigma->0) =     -196.51794577
 


--------------------------------------------------------------------------------------------------------


    POTLOK:  cpu time    0.3710: real time    0.3721


--------------------------------------------------------------------------------------------------------


     LOOP+:  cpu time  962.8382: real time  969.1258
    4ORBIT:  cpu time    0.0000: real time    0.0000
 


 total charge     
 
# of ion       s       p       d       tot
------------------------------------------
    1        2.081   0.213   0.000   2.293
    2        0.343   6.444   4.878  11.665
    3        0.343   6.445   4.865  11.654
    4        0.342   6.444   4.861  11.647
    5        0.343   6.445   4.865  11.653
    6        0.343   6.445   4.869  11.657
    7        0.343   6.444   4.879  11.666
    8        0.343   6.445   4.872  11.660
    9        0.343   6.444   4.877  11.664
   10        1.581   3.398   0.000   4.979
   11        1.581   3.398   0.000   4.979
   12        1.581   3.397   0.000   4.978
   13        1.569   3.461   0.000   5.030
   14        1.569   3.461   0.000   5.030
   15        1.583   3.388   0.000   4.971
   16        1.581   3.398   0.000   4.979
   17        1.583   3.387   0.000   4.970
   18        1.582   3.393   0.000   4.975
   19        1.582   3.393   0.000   4.975
   20        1.582   3.393   0.000   4.975
   21        1.583   3.386   0.000   4.969
   22        1.583   3.386   0.000   4.969
   23        1.569   3.461   0.000   5.030
   24        1.582   3.393   0.000   4.975
   25        1.569   3.461   0.000   5.030
--------------------------------------------------
tot         30.084 106.324  38.966 175.374
 


 magnetization (x)
 
# of ion       s       p       d       tot
------------------------------------------
    1        0.003   0.007   0.000   0.010
    2        0.029   0.034   2.667   2.730
    3        0.030   0.035   2.715   2.780
    4        0.029   0.034   2.672   2.735
    5        0.030   0.035   2.715   2.780
    6        0.030   0.035   2.713   2.778
    7        0.029   0.034   2.666   2.728
    8        0.030   0.035   2.713   2.778
    9        0.029   0.034   2.666   2.729
   10        0.003   0.010   0.000   0.013
   11        0.003   0.010   0.000   0.013
   12        0.003   0.010   0.000   0.013
   13        0.001   0.018   0.000   0.019
   14        0.001   0.018   0.000   0.019
   15        0.004   0.021   0.000   0.024
   16        0.003   0.010   0.000   0.013
   17        0.004   0.021   0.000   0.024
   18        0.003   0.010   0.000   0.014
   19        0.003   0.010   0.000   0.014
   20        0.003   0.010   0.000   0.014
   21        0.004   0.021   0.000   0.024
   22        0.004   0.021   0.000   0.024
   23        0.001   0.018   0.000   0.019
   24        0.003   0.010   0.000   0.014
   25        0.001   0.018   0.000   0.019
--------------------------------------------------
tot          0.284   0.519  21.528  22.331
 
 BZINTS: Fermi energy:  2.662558;203.000000 electrons
         Band energy:***********;  BLOECHL correction: -0.034403

 total amount of memory used by VASP MPI-rank0   230530. kBytes
=======================================================================

   base      :      30000. kBytes
   nonlr-proj:      10891. kBytes
   fftplans  :       8862. kBytes
   grid      :      23457. kBytes
   one-center:        404. kBytes
   wavefun   :     156916. kBytes
 
  
  
 General timing and accounting informations for this job:
 ========================================================
  
                  Total CPU time used (sec):      982.744
                            User time (sec):      971.393
                          System time (sec):       11.350
                         Elapsed time (sec):      989.168
  
                   Maximum memory used (kb):   427102208.
                   Average memory used (kb):           0.
  
                          Minor page faults:       110940
                          Major page faults:          134
                 Voluntary context switches:           17
