 vasp.5.4.1 24Jun15 (build Feb 01 2016 23:38:11) complex                        
  
 executed on           IFC91_impi date 2016.08.25  07:35:05
 running on   16 total cores
 distrk:  each k-point on   16 cores,    1 groups
 distr:  one band on NCORES_PER_BAND=   1 cores,   16 groups


--------------------------------------------------------------------------------------------------------


 INCAR:
 POTCAR:   PAW_PBE Si 05Jan2001                   

 ----------------------------------------------------------------------------- 
|                                                                             |
|           W    W    AA    RRRRR   N    N  II  N    N   GGGG   !!!           |
|           W    W   A  A   R    R  NN   N  II  NN   N  G    G  !!!           |
|           W    W  A    A  R    R  N N  N  II  N N  N  G       !!!           |
|           W WW W  AAAAAA  RRRRR   N  N N  II  N  N N  G  GGG   !            |
|           WW  WW  A    A  R   R   N   NN  II  N   NN  G    G                |
|           W    W  A    A  R    R  N    N  II  N    N   GGGG   !!!           |
|                                                                             |
|      For optimal performance we recommend to set                            |
|        NCORE= 4 - approx SQRT( number of cores)                             |
|      NCORE specifies how many cores store one orbital (NPAR=cpu/NCORE).     |
|      This setting can  greatly improve the performance of VASP for DFT.     |
|      The default, NPAR=number of cores might be grossly inefficient         |
|      on modern multi-core architectures or massively parallel machines.     |
|      Do your own testing !!!!                                               |
|      Unfortunately you need to use the default for GW and RPA calculations. |
|      (for HF NCORE is supported but not extensively tested yet)             |
|                                                                             |
 ----------------------------------------------------------------------------- 

 POTCAR:   PAW_PBE Si 05Jan2001                   
   VRHFIN =Si: s2p2                                                             
   LEXCH  = PE                                                                  
   EATOM  =   103.0669 eV,    7.5752 Ry                                         
                                                                                
   TITEL  = PAW_PBE Si 05Jan2001                                                
   LULTRA =        F    use ultrasoft PP ?                                      
   IUNSCR =        1    unscreen: 0-lin 1-nonlin 2-no                           
   RPACOR =    1.500    partial core radius                                     
   POMASS =   28.085; ZVAL   =    4.000    mass and valenz                      
   RCORE  =    1.900    outmost cutoff radius                                   
   RWIGS  =    2.480; RWIGS  =    1.312    wigner-seitz radius (au A)           
   ENMAX  =  245.345; ENMIN  =  184.009 eV                                      
   ICORE  =        2    local potential                                         
   LCOR   =        T    correct aug charges                                     
   LPAW   =        T    paw PP                                                  
   EAUG   =  322.069                                                            
   DEXC   =    -.007                                                            
   RMAX   =    2.944    core radius for proj-oper                               
   RAUG   =    1.300    factor for augmentation sphere                          
   RDEP   =    1.993    radius for radial grids                                 
   QCUT   =   -4.246; QGAM   =    8.493    optimization parameters              
                                                                                
   Description                                                                  
     l     E      TYP  RCUT    TYP  RCUT                                        
     0   .000     23  1.900                                                     
     0   .000     23  1.900                                                     
     1   .000     23  1.900                                                     
     1   .000     23  1.900                                                     
     2   .000      7  1.900                                                     
  local pseudopotential read in
  partial core-charges read in
  atomic valenz-charges read in
  non local Contribution for L=           0  read in
    real space projection operators read in
  non local Contribution for L=           0  read in
    real space projection operators read in
  non local Contribution for L=           1  read in
    real space projection operators read in
  non local Contribution for L=           1  read in
    real space projection operators read in
    PAW grid and wavefunctions read in
 
   number of l-projection  operators is LMAX  =           4
   number of lm-projection operators is LMMAX =           8
 

 ----------------------------------------------------------------------------- 
|                                                                             |
|  ADVICE TO THIS USER RUNNING 'VASP/VAMP'   (HEAR YOUR MASTER'S VOICE ...):  |
|                                                                             |
|      You have a (more or less) 'small supercell' and for smaller cells      |
|      it is recommended  to use the reciprocal-space projection scheme!      |
|      The real space optimization is not  efficient for small cells and it   |
|      is also less accurate ...                                              |
|      Therefore set LREAL=.FALSE. in the  INCAR file                         |
|                                                                             |
 ----------------------------------------------------------------------------- 

 Optimization of the real space projectors (new method)

 maximal supplied QI-value         = 19.84
 optimisation between [QCUT,QGAM] = [ 12.50, 25.00] = [ 43.76,175.03] Ry 
 Optimized for a Real-space Cutoff    1.16 Angstroem

   l    n(q)    QCUT    max X(q) W(low)/X(q) W(high)/X(q)  e(spline) 
   0      9    12.501     8.708    0.14E-04    0.64E-05    0.48E-08
   0      9    12.501   106.241    0.99E-04    0.81E-04    0.70E-07
   1      8    12.501     5.901    0.24E-04    0.20E-04    0.18E-07
   1      8    12.501    73.241    0.20E-03    0.24E-03    0.75E-07
 PAW_PBE Si 05Jan2001                   :
 energy of atom  1       EATOM= -103.0669
 kinetic energy error for atom=    0.0003 (will be added to EATOM!!)
 
 
 POSCAR: Si2                                     
  positions in direct lattice
  No initial velocities read in
 exchange correlation table for  LEXCH =        8
   RHO(1)=    0.500       N(1)  =     2000
   RHO(2)=  100.500       N(2)  =     4000
 


--------------------------------------------------------------------------------------------------------


 ion  position               nearest neighbor table
   1  0.000  0.000  0.000-   2 2.37   2 2.37   2 2.37   2 2.37
   2  0.750  0.500  0.750-   1 2.37   1 2.37   1 2.37   1 2.37
 
  LATTYP: Found a face centered cubic cell.
 ALAT       =     5.4694110002
  
  Lattice vectors:
  
 A1 = (   1.9337280000,   3.3493170000,   0.0000000000)
 A2 = (   0.0000000000,   2.2328760000,  -3.1577660000)
 A3 = (  -1.9337290000,   3.3493170000,   0.0000000000)


Analysis of symmetry for initial positions (statically):
=====================================================================
 Subroutine PRICEL returns:
 Original cell was already a primitive cell.
 

 Routine SETGRP: Setting up the symmetry group for a 
 face centered cubic supercell.


 Subroutine GETGRP returns: Found 48 space group operations
 (whereof 24 operations were pure point group operations)
 out of a pool of 48 trial point group operations.


The static configuration has the point symmetry T_d .
 The point group associated with its full space group is O_h .


Analysis of symmetry for dynamics (positions and initial velocities):
=====================================================================
 Subroutine PRICEL returns:
 Original cell was already a primitive cell.
 

 Routine SETGRP: Setting up the symmetry group for a 
 face centered cubic supercell.


 Subroutine GETGRP returns: Found 48 space group operations
 (whereof 24 operations were pure point group operations)
 out of a pool of 48 trial point group operations.


The dynamic configuration has the point symmetry T_d .
 The point group associated with its full space group is O_h .


Analysis of structural, dynamic, and magnetic symmetry:
=====================================================================
 Subroutine PRICEL returns:
 Original cell was already a primitive cell.
 

 Routine SETGRP: Setting up the symmetry group for a 
 face centered cubic supercell.


 Subroutine GETGRP returns: Found 48 space group operations
 (whereof 24 operations were pure point group operations)
 out of a pool of 48 trial point group operations.


The magnetic configuration has the point symmetry T_d .
 The point group associated with its full space group is O_h .


 Subroutine INISYM returns: Found 48 space group operations
 (whereof 24 operations are pure point group operations),
 and found     1 'primitive' translations

 
 
 KPOINTS: pymatgen generated KPOINTS with grid den

Automatic generation of k-mesh.
Space group operators:
 irot       det(A)        alpha          n_x          n_y          n_z        tau_x        tau_y        tau_z
    1     1.000000     0.000000     1.000000     0.000000     0.000000     0.000000     0.000000     0.000000
    2     1.000000   120.000000    -0.000000    -0.942809     0.333334     0.000000     0.000000     0.000000
    3     1.000000   120.000000    -0.000001     0.942809    -0.333334     0.000000     0.000000     0.000000
    4    -1.000000    90.000000    -0.707107    -0.408248     0.577350     0.000000     0.000000     0.000000
    5    -1.000000   180.000000     0.500000     0.866025    -0.000000     0.000000     0.000000     0.000000
    6    -1.000000    90.000000    -0.000000     0.816497     0.577350     0.000000     0.000000     0.000000
    7     1.000000   180.000000     0.707107     0.408248    -0.577350     0.000000     0.000000     0.000000
    8     1.000000   120.000000     0.816496     0.471405     0.333333     0.000000     0.000000     0.000000
    9     1.000000   120.000000     0.000000     0.000000     1.000000     0.000000     0.000000     0.000000
   10    -1.000000    90.000000     0.707107     0.408248    -0.577350     0.000000     0.000000     0.000000
   11    -1.000000    90.000000     0.707107    -0.408248     0.577350     0.000000     0.000000     0.000000
   12    -1.000000   180.000000     0.000000    -0.577350     0.816497     0.000000     0.000000     0.000000
   13     1.000000   120.000000     0.000001    -0.000000    -1.000000     0.000000     0.000000     0.000000
   14     1.000000   120.000000     0.816497    -0.471405    -0.333333     0.000000     0.000000     0.000000
   15     1.000000   180.000000    -0.707107     0.408248    -0.577350     0.000000     0.000000     0.000000
   16    -1.000000    90.000000     0.000000    -0.816497    -0.577350     0.000000     0.000000     0.000000
   17    -1.000000   180.000000    -0.500000     0.866025    -0.000001     0.000000     0.000000     0.000000
   18    -1.000000    90.000000    -0.707107     0.408248    -0.577350     0.000000     0.000000     0.000000
   19     1.000000   120.000000    -0.816497    -0.471404    -0.333334     0.000000     0.000000     0.000000
   20     1.000000   180.000000     0.000000    -0.816497    -0.577350     0.000000     0.000000     0.000000
   21     1.000000   120.000000    -0.816497     0.471404     0.333334     0.000000     0.000000     0.000000
   22    -1.000000   180.000000    -0.500000     0.288675     0.816496     0.000000     0.000000     0.000000
   23    -1.000000   180.000000     0.500000     0.288675     0.816496     0.000000     0.000000     0.000000
   24    -1.000000   179.999999     1.000000     0.000000     0.000000     0.000000     0.000000     0.000000
   25    -1.000000     0.000000     1.000000     0.000000     0.000000    -0.250000     0.500000    -0.250000
   26    -1.000000   120.000000    -0.000000    -0.942809     0.333334    -0.250000     0.500000    -0.250000
   27    -1.000000   120.000000    -0.000001     0.942809    -0.333334    -0.250000     0.500000    -0.250000
   28     1.000000    90.000000    -0.707107    -0.408248     0.577350    -0.250000     0.500000    -0.250000
   29     1.000000   180.000000     0.500000     0.866025    -0.000000    -0.250000     0.500000    -0.250000
   30     1.000000    90.000000    -0.000000     0.816497     0.577350    -0.250000     0.500000    -0.250000
   31    -1.000000   180.000000     0.707107     0.408248    -0.577350    -0.250000     0.500000    -0.250000
   32    -1.000000   120.000000     0.816496     0.471405     0.333333    -0.250000     0.500000    -0.250000
   33    -1.000000   120.000000     0.000000     0.000000     1.000000    -0.250000     0.500000    -0.250000
   34     1.000000    90.000000     0.707107     0.408248    -0.577350    -0.250000     0.500000    -0.250000
   35     1.000000    90.000000     0.707107    -0.408248     0.577350    -0.250000     0.500000    -0.250000
   36     1.000000   180.000000     0.000000    -0.577350     0.816497    -0.250000     0.500000    -0.250000
   37    -1.000000   120.000000     0.000001    -0.000000    -1.000000    -0.250000     0.500000    -0.250000
   38    -1.000000   120.000000     0.816497    -0.471405    -0.333333    -0.250000     0.500000    -0.250000
   39    -1.000000   180.000000    -0.707107     0.408248    -0.577350    -0.250000     0.500000    -0.250000
   40     1.000000    90.000000     0.000000    -0.816497    -0.577350    -0.250000     0.500000    -0.250000
   41     1.000000   180.000000    -0.500000     0.866025    -0.000001    -0.250000     0.500000    -0.250000
   42     1.000000    90.000000    -0.707107     0.408248    -0.577350    -0.250000     0.500000    -0.250000
   43    -1.000000   120.000000    -0.816497    -0.471404    -0.333334    -0.250000     0.500000    -0.250000
   44    -1.000000   180.000000     0.000000    -0.816497    -0.577350    -0.250000     0.500000    -0.250000
   45    -1.000000   120.000000    -0.816497     0.471404     0.333334    -0.250000     0.500000    -0.250000
   46     1.000000   180.000000    -0.500000     0.288675     0.816496    -0.250000     0.500000    -0.250000
   47     1.000000   180.000000     0.500000     0.288675     0.816496    -0.250000     0.500000    -0.250000
   48     1.000000   179.999999     1.000000     0.000000     0.000000    -0.250000     0.500000    -0.250000
 
 Subroutine IBZKPT returns following result:
 ===========================================
 
 Found     56 irreducible k-points:
 
 Following reciprocal coordinates:
            Coordinates               Weight
  0.000000  0.000000  0.000000      1.000000
  0.090909  0.000000 -0.000000      8.000000
  0.181818  0.000000 -0.000000      8.000000
  0.272727  0.000000  0.000000      8.000000
  0.363636  0.000000 -0.000000      8.000000
  0.454545  0.000000  0.000000      8.000000
  0.000000  0.090909 -0.000000      6.000000
  0.181818  0.090909 -0.000000     12.000000
  0.272727  0.090909 -0.000000     24.000000
  0.363636  0.090909 -0.000000     24.000000
  0.454545  0.090909  0.000000     24.000000
 -0.454545  0.090909  0.000000     24.000000
 -0.363636  0.090909  0.000000     24.000000
 -0.272727  0.090909  0.000000     24.000000
 -0.181818  0.090909 -0.000000     24.000000
 -0.090909  0.090909 -0.000000     24.000000
  0.000000  0.181818 -0.000000      6.000000
  0.363636  0.181818 -0.000000     12.000000
  0.454545  0.181818  0.000000     24.000000
 -0.454545  0.181818 -0.000000     24.000000
 -0.363636  0.181818 -0.000000     24.000000
 -0.272727  0.181818 -0.000000     24.000000
 -0.181818  0.181818 -0.000000     24.000000
 -0.090909  0.181818  0.000000     24.000000
  0.000000  0.272727 -0.000000      6.000000
 -0.454545  0.272727 -0.000000     12.000000
 -0.363636  0.272727 -0.000000     24.000000
 -0.272727  0.272727 -0.000000     24.000000
 -0.181818  0.272727 -0.000000     24.000000
 -0.090909  0.272727 -0.000000     24.000000
  0.000000  0.363636 -0.000000      6.000000
 -0.272727  0.363636  0.000000     12.000000
 -0.181818  0.363636  0.000000     24.000000
 -0.090909  0.363636 -0.000000     24.000000
  0.000000  0.454545 -0.000000      6.000000
 -0.090909  0.454545 -0.000000     12.000000
  0.272727  0.090909  0.090909     24.000000
  0.363636  0.090909  0.090909     48.000000
  0.454545  0.090909  0.090909     48.000000
 -0.454545  0.090909  0.090909     48.000000
  0.454545  0.181818  0.090909     24.000000
 -0.454545  0.181818  0.090909     48.000000
 -0.363636  0.181818  0.090909     48.000000
 -0.272727  0.181818  0.090909     48.000000
 -0.181818  0.181818  0.090909     48.000000
 -0.090909  0.181818  0.090909     24.000000
 -0.363636  0.272727  0.090909     24.000000
 -0.272727  0.272727  0.090909     48.000000
 -0.181818  0.272727  0.090909     48.000000
 -0.090909  0.272727  0.090909     24.000000
 -0.181818  0.363636  0.090909     24.000000
 -0.090909  0.363636  0.090909     24.000000
 -0.454545  0.181818  0.181818     24.000000
 -0.363636  0.181818  0.181818     48.000000
 -0.272727  0.272727  0.181818     24.000000
 -0.181818  0.272727  0.181818     24.000000
 
 Following cartesian coordinates:
            Coordinates               Weight
  0.000000  0.000000  0.000000      1.000000
  0.023506 -0.013571 -0.009596      8.000000
  0.047012 -0.027143 -0.019193      8.000000
  0.070519 -0.040714 -0.028789      8.000000
  0.094025 -0.054285 -0.038385      8.000000
  0.117531 -0.067856 -0.047982      8.000000
  0.000000  0.027143  0.019193      6.000000
  0.047012  0.000000  0.000000     12.000000
  0.070519 -0.013571 -0.009596     24.000000
  0.094025 -0.027143 -0.019193     24.000000
  0.117531 -0.040714 -0.028789     24.000000
 -0.117531  0.094999  0.067174     24.000000
 -0.094025  0.081428  0.057578     24.000000
 -0.070519  0.067856  0.047982     24.000000
 -0.047012  0.054285  0.038385     24.000000
 -0.023506  0.040714  0.028789     24.000000
  0.000000  0.054285  0.038385      6.000000
  0.094025  0.000000  0.000000     12.000000
  0.117531 -0.013571 -0.009596     24.000000
 -0.117531  0.122142  0.086367     24.000000
 -0.094025  0.108570  0.076771     24.000000
 -0.070519  0.094999  0.067174     24.000000
 -0.047012  0.081428  0.057578     24.000000
 -0.023506  0.067856  0.047982     24.000000
  0.000000  0.081428  0.057578      6.000000
 -0.117531  0.149284  0.105560     12.000000
 -0.094025  0.135713  0.095963     24.000000
 -0.070519  0.122142  0.086367     24.000000
 -0.047012  0.108570  0.076771     24.000000
 -0.023506  0.094999  0.067174     24.000000
  0.000000  0.108570  0.076771      6.000000
 -0.070519  0.149284  0.105560     12.000000
 -0.047012  0.135713  0.095963     24.000000
 -0.023506  0.122142  0.086367     24.000000
  0.000000  0.135713  0.095963      6.000000
 -0.023506  0.149284  0.105560     12.000000
  0.070519 -0.013571  0.019193     24.000000
  0.094025 -0.027143  0.009596     48.000000
  0.117531 -0.040714  0.000000     48.000000
 -0.117531  0.094999  0.095963     48.000000
  0.117531 -0.013571  0.019193     24.000000
 -0.117531  0.122142  0.115156     48.000000
 -0.094025  0.108570  0.105560     48.000000
 -0.070519  0.094999  0.095963     48.000000
 -0.047012  0.081428  0.086367     48.000000
 -0.023506  0.067856  0.076771     24.000000
 -0.094025  0.135713  0.124752     24.000000
 -0.070519  0.122142  0.115156     48.000000
 -0.047012  0.108570  0.105560     48.000000
 -0.023506  0.094999  0.095963     24.000000
 -0.047012  0.135713  0.124752     24.000000
 -0.023506  0.122142  0.115156     24.000000
 -0.117531  0.122142  0.143945     24.000000
 -0.094025  0.108570  0.134349     48.000000
 -0.070519  0.122142  0.143945     24.000000
 -0.047012  0.108570  0.134349     24.000000
 
 TETIRR: Found    879 inequivalent tetrahedra from     7986
 
 Subroutine IBZKPT_HF returns following result:
 ==============================================
 
 Found   1331 k-points in 1st BZ
 the following   1331 k-points will be used (e.g. in the exchange kernel)
 Following reciprocal coordinates:   # in IRBZ
  0.000000  0.000000  0.000000    0.00075131   1 t-inv F
  0.090909  0.000000 -0.000000    0.00075131   2 t-inv F
  0.181818  0.000000 -0.000000    0.00075131   3 t-inv F
  0.272727  0.000000  0.000000    0.00075131   4 t-inv F
  0.363636  0.000000 -0.000000    0.00075131   5 t-inv F
  0.454545  0.000000  0.000000    0.00075131   6 t-inv F
  0.000000  0.090909 -0.000000    0.00075131   7 t-inv F
  0.181818  0.090909 -0.000000    0.00075131   8 t-inv F
  0.272727  0.090909 -0.000000    0.00075131   9 t-inv F
  0.363636  0.090909 -0.000000    0.00075131  10 t-inv F
  0.454545  0.090909  0.000000    0.00075131  11 t-inv F
 -0.454545  0.090909  0.000000    0.00075131  12 t-inv F
 -0.363636  0.090909  0.000000    0.00075131  13 t-inv F
 -0.272727  0.090909  0.000000    0.00075131  14 t-inv F
 -0.181818  0.090909 -0.000000    0.00075131  15 t-inv F
 -0.090909  0.090909 -0.000000    0.00075131  16 t-inv F
  0.000000  0.181818 -0.000000    0.00075131  17 t-inv F
  0.363636  0.181818 -0.000000    0.00075131  18 t-inv F
  0.454545  0.181818  0.000000    0.00075131  19 t-inv F
 -0.454545  0.181818 -0.000000    0.00075131  20 t-inv F
 -0.363636  0.181818 -0.000000    0.00075131  21 t-inv F
 -0.272727  0.181818 -0.000000    0.00075131  22 t-inv F
 -0.181818  0.181818 -0.000000    0.00075131  23 t-inv F
 -0.090909  0.181818  0.000000    0.00075131  24 t-inv F
  0.000000  0.272727 -0.000000    0.00075131  25 t-inv F
 -0.454545  0.272727 -0.000000    0.00075131  26 t-inv F
 -0.363636  0.272727 -0.000000    0.00075131  27 t-inv F
 -0.272727  0.272727 -0.000000    0.00075131  28 t-inv F
 -0.181818  0.272727 -0.000000    0.00075131  29 t-inv F
 -0.090909  0.272727 -0.000000    0.00075131  30 t-inv F
  0.000000  0.363636 -0.000000    0.00075131  31 t-inv F
 -0.272727  0.363636  0.000000    0.00075131  32 t-inv F
 -0.181818  0.363636  0.000000    0.00075131  33 t-inv F
 -0.090909  0.363636 -0.000000    0.00075131  34 t-inv F
  0.000000  0.454545 -0.000000    0.00075131  35 t-inv F
 -0.090909  0.454545 -0.000000    0.00075131  36 t-inv F
  0.272727  0.090909  0.090909    0.00075131  37 t-inv F
  0.363636  0.090909  0.090909    0.00075131  38 t-inv F
  0.454545  0.090909  0.090909    0.00075131  39 t-inv F
 -0.454545  0.090909  0.090909    0.00075131  40 t-inv F
  0.454545  0.181818  0.090909    0.00075131  41 t-inv F
 -0.454545  0.181818  0.090909    0.00075131  42 t-inv F
 -0.363636  0.181818  0.090909    0.00075131  43 t-inv F
 -0.272727  0.181818  0.090909    0.00075131  44 t-inv F
 -0.181818  0.181818  0.090909    0.00075131  45 t-inv F
 -0.090909  0.181818  0.090909    0.00075131  46 t-inv F
 -0.363636  0.272727  0.090909    0.00075131  47 t-inv F
 -0.272727  0.272727  0.090909    0.00075131  48 t-inv F
 -0.181818  0.272727  0.090909    0.00075131  49 t-inv F
 -0.090909  0.272727  0.090909    0.00075131  50 t-inv F
 -0.181818  0.363636  0.090909    0.00075131  51 t-inv F
 -0.090909  0.363636  0.090909    0.00075131  52 t-inv F
 -0.454545  0.181818  0.181818    0.00075131  53 t-inv F
 -0.363636  0.181818  0.181818    0.00075131  54 t-inv F
 -0.272727  0.272727  0.181818    0.00075131  55 t-inv F
 -0.181818  0.272727  0.181818    0.00075131  56 t-inv F
 -0.090909 -0.090909  0.000000    0.00075131   2 t-inv F
  0.000000  0.000000  0.090909    0.00075131   2 t-inv F
 -0.000000  0.090909 -0.090909    0.00075131   2 t-inv F
 -0.090909  0.000000  0.000000    0.00075131   2 t-inv F
  0.090909  0.090909  0.000000    0.00075131   2 t-inv F
 -0.000000 -0.000000 -0.090909    0.00075131   2 t-inv F
  0.000000 -0.090909  0.090909    0.00075131   2 t-inv F
 -0.181818 -0.181818  0.000000    0.00075131   3 t-inv F
  0.000000  0.000000  0.181818    0.00075131   3 t-inv F
 -0.000000  0.181818 -0.181818    0.00075131   3 t-inv F
 -0.181818  0.000000  0.000000    0.00075131   3 t-inv F
  0.181818  0.181818  0.000000    0.00075131   3 t-inv F
 -0.000000 -0.000000 -0.181818    0.00075131   3 t-inv F
  0.000000 -0.181818  0.181818    0.00075131   3 t-inv F
 -0.272727 -0.272727 -0.000000    0.00075131   4 t-inv F
 -0.000000  0.000000  0.272727    0.00075131   4 t-inv F
  0.000000  0.272727 -0.272727    0.00075131   4 t-inv F
 -0.272727 -0.000000  0.000000    0.00075131   4 t-inv F
  0.272727  0.272727  0.000000    0.00075131   4 t-inv F
  0.000000  0.000000 -0.272727    0.00075131   4 t-inv F
  0.000000 -0.272727  0.272727    0.00075131   4 t-inv F
 -0.363636 -0.363636  0.000000    0.00075131   5 t-inv F
  0.000000  0.000000  0.363636    0.00075131   5 t-inv F
 -0.000000  0.363636 -0.363636    0.00075131   5 t-inv F
 -0.363636  0.000000  0.000000    0.00075131   5 t-inv F
  0.363636  0.363636  0.000000    0.00075131   5 t-inv F
 -0.000000 -0.000000 -0.363636    0.00075131   5 t-inv F
  0.000000 -0.363636  0.363636    0.00075131   5 t-inv F
 -0.454545 -0.454545  0.000000    0.00075131   6 t-inv F
 -0.000000 -0.000000  0.454545    0.00075131   6 t-inv F
  0.000000  0.454545 -0.454545    0.00075131   6 t-inv F
 -0.454545  0.000000 -0.000000    0.00075131   6 t-inv F
  0.454545  0.454545  0.000000    0.00075131   6 t-inv F
  0.000000  0.000000 -0.454545    0.00075131   6 t-inv F
 -0.000000 -0.454545  0.454545    0.00075131   6 t-inv F
  0.090909  0.090909 -0.090909    0.00075131   7 t-inv F
 -0.090909  0.000000 -0.090909    0.00075131   7 t-inv F
 -0.090909 -0.090909  0.090909    0.00075131   7 t-inv F
 -0.000000 -0.090909  0.000000    0.00075131   7 t-inv F
  0.090909  0.000000  0.090909    0.00075131   7 t-inv F
 -0.090909 -0.090909 -0.090909    0.00075131   8 t-inv F
 -0.090909  0.000000  0.090909    0.00075131   8 t-inv F
  0.090909 -0.090909  0.090909    0.00075131   8 t-inv F
 -0.000000  0.090909 -0.181818    0.00075131   8 t-inv F
  0.090909  0.090909  0.090909    0.00075131   8 t-inv F
 -0.090909 -0.181818  0.090909    0.00075131   8 t-inv F
 -0.090909  0.090909 -0.090909    0.00075131   8 t-inv F
  0.090909 -0.000000 -0.090909    0.00075131   8 t-inv F
 -0.000000 -0.090909  0.181818    0.00075131   8 t-inv F
  0.090909  0.181818 -0.090909    0.00075131   8 t-inv F
 -0.181818 -0.090909  0.000000    0.00075131   8 t-inv F
 -0.181818 -0.181818 -0.090909    0.00075131   9 t-inv F
 -0.090909  0.000000  0.181818    0.00075131   9 t-inv F
  0.181818 -0.090909  0.090909    0.00075131   9 t-inv F
 -0.000000  0.181818 -0.272727    0.00075131   9 t-inv F
  0.090909  0.090909  0.181818    0.00075131   9 t-inv F
 -0.181818 -0.272727  0.090909    0.00075131   9 t-inv F
 -0.090909  0.181818 -0.181818    0.00075131   9 t-inv F
  0.181818 -0.000000 -0.090909    0.00075131   9 t-inv F
 -0.000000 -0.090909  0.272727    0.00075131   9 t-inv F
  0.090909  0.272727 -0.181818    0.00075131   9 t-inv F
 -0.272727 -0.181818  0.000000    0.00075131   9 t-inv F
 -0.272727 -0.090909  0.000000    0.00075131   9 t-inv F
  0.181818  0.181818  0.090909    0.00075131   9 t-inv F
  0.090909 -0.000000 -0.181818    0.00075131   9 t-inv F
 -0.181818  0.090909 -0.090909    0.00075131   9 t-inv F
  0.000000 -0.181818  0.272727    0.00075131   9 t-inv F
 -0.090909 -0.090909 -0.181818    0.00075131   9 t-inv F
  0.181818  0.272727 -0.090909    0.00075131   9 t-inv F
  0.090909 -0.181818  0.181818    0.00075131   9 t-inv F
 -0.181818  0.000000  0.090909    0.00075131   9 t-inv F
  0.000000  0.090909 -0.272727    0.00075131   9 t-inv F
 -0.090909 -0.272727  0.181818    0.00075131   9 t-inv F
  0.272727  0.181818 -0.000000    0.00075131   9 t-inv F
 -0.272727 -0.272727 -0.090909    0.00075131  10 t-inv F
 -0.090909  0.000000  0.272727    0.00075131  10 t-inv F
  0.272727 -0.090909  0.090909    0.00075131  10 t-inv F
 -0.000000  0.272727 -0.363636    0.00075131  10 t-inv F
  0.090909  0.090909  0.272727    0.00075131  10 t-inv F
 -0.272727 -0.363636  0.090909    0.00075131  10 t-inv F
 -0.090909  0.272727 -0.272727    0.00075131  10 t-inv F
  0.272727 -0.000000 -0.090909    0.00075131  10 t-inv F
 -0.000000 -0.090909  0.363636    0.00075131  10 t-inv F
  0.090909  0.363636 -0.272727    0.00075131  10 t-inv F
 -0.363636 -0.272727  0.000000    0.00075131  10 t-inv F
 -0.363636 -0.090909  0.000000    0.00075131  10 t-inv F
  0.272727  0.272727  0.090909    0.00075131  10 t-inv F
  0.090909 -0.000000 -0.272727    0.00075131  10 t-inv F
 -0.272727  0.090909 -0.090909    0.00075131  10 t-inv F
  0.000000 -0.272727  0.363636    0.00075131  10 t-inv F
 -0.090909 -0.090909 -0.272727    0.00075131  10 t-inv F
  0.272727  0.363636 -0.090909    0.00075131  10 t-inv F
  0.090909 -0.272727  0.272727    0.00075131  10 t-inv F
 -0.272727  0.000000  0.090909    0.00075131  10 t-inv F
  0.000000  0.090909 -0.363636    0.00075131  10 t-inv F
 -0.090909 -0.363636  0.272727    0.00075131  10 t-inv F
  0.363636  0.272727 -0.000000    0.00075131  10 t-inv F
 -0.363636 -0.363636 -0.090909    0.00075131  11 t-inv F
 -0.090909 -0.000000  0.363636    0.00075131  11 t-inv F
  0.363636 -0.090909  0.090909    0.00075131  11 t-inv F
  0.000000  0.363636 -0.454545    0.00075131  11 t-inv F
  0.090909  0.090909  0.363636    0.00075131  11 t-inv F
 -0.363636 -0.454545  0.090909    0.00075131  11 t-inv F
 -0.090909  0.363636 -0.363636    0.00075131  11 t-inv F
  0.363636  0.000000 -0.090909    0.00075131  11 t-inv F
  0.000000 -0.090909  0.454545    0.00075131  11 t-inv F
  0.090909  0.454545 -0.363636    0.00075131  11 t-inv F
 -0.454545 -0.363636 -0.000000    0.00075131  11 t-inv F
 -0.454545 -0.090909 -0.000000    0.00075131  11 t-inv F
  0.363636  0.363636  0.090909    0.00075131  11 t-inv F
  0.090909  0.000000 -0.363636    0.00075131  11 t-inv F
 -0.363636  0.090909 -0.090909    0.00075131  11 t-inv F
 -0.000000 -0.363636  0.454545    0.00075131  11 t-inv F
 -0.090909 -0.090909 -0.363636    0.00075131  11 t-inv F
  0.363636  0.454545 -0.090909    0.00075131  11 t-inv F
  0.090909 -0.363636  0.363636    0.00075131  11 t-inv F
 -0.363636 -0.000000  0.090909    0.00075131  11 t-inv F
 -0.000000  0.090909 -0.454545    0.00075131  11 t-inv F
 -0.090909 -0.454545  0.363636    0.00075131  11 t-inv F
  0.454545  0.363636  0.000000    0.00075131  11 t-inv F
  0.545455  0.545455 -0.090909    0.00075131  12 t-inv F
 -0.090909  0.000000 -0.545455    0.00075131  12 t-inv F
 -0.545455 -0.090909  0.090909    0.00075131  12 t-inv F
  0.000000 -0.545455  0.454545    0.00075131  12 t-inv F
  0.090909  0.090909 -0.545455    0.00075131  12 t-inv F
  0.545455  0.454545  0.090909    0.00075131  12 t-inv F
 -0.090909 -0.545455  0.545455    0.00075131  12 t-inv F
 -0.545455  0.000000 -0.090909    0.00075131  12 t-inv F
  0.000000 -0.090909 -0.454545    0.00075131  12 t-inv F
  0.090909 -0.454545  0.545455    0.00075131  12 t-inv F
  0.454545  0.545455  0.000000    0.00075131  12 t-inv F
  0.454545 -0.090909  0.000000    0.00075131  12 t-inv F
 -0.545455 -0.545455  0.090909    0.00075131  12 t-inv F
  0.090909  0.000000  0.545455    0.00075131  12 t-inv F
  0.545455  0.090909 -0.090909    0.00075131  12 t-inv F
  0.000000  0.545455 -0.454545    0.00075131  12 t-inv F
 -0.090909 -0.090909  0.545455    0.00075131  12 t-inv F
 -0.545455 -0.454545 -0.090909    0.00075131  12 t-inv F
  0.090909  0.545455 -0.545455    0.00075131  12 t-inv F
  0.545455  0.000000  0.090909    0.00075131  12 t-inv F
  0.000000  0.090909  0.454545    0.00075131  12 t-inv F
 -0.090909  0.454545 -0.545455    0.00075131  12 t-inv F
 -0.454545 -0.545455  0.000000    0.00075131  12 t-inv F
  0.454545  0.454545 -0.090909    0.00075131  13 t-inv F
 -0.090909  0.000000 -0.454545    0.00075131  13 t-inv F
 -0.454545 -0.090909  0.090909    0.00075131  13 t-inv F
  0.000000 -0.454545  0.363636    0.00075131  13 t-inv F
  0.090909  0.090909 -0.454545    0.00075131  13 t-inv F
  0.454545  0.363636  0.090909    0.00075131  13 t-inv F
 -0.090909 -0.454545  0.454545    0.00075131  13 t-inv F
 -0.454545  0.000000 -0.090909    0.00075131  13 t-inv F
  0.000000 -0.090909 -0.363636    0.00075131  13 t-inv F
  0.090909 -0.363636  0.454545    0.00075131  13 t-inv F
  0.363636  0.454545  0.000000    0.00075131  13 t-inv F
  0.363636 -0.090909  0.000000    0.00075131  13 t-inv F
 -0.454545 -0.454545  0.090909    0.00075131  13 t-inv F
  0.090909  0.000000  0.454545    0.00075131  13 t-inv F
  0.454545  0.090909 -0.090909    0.00075131  13 t-inv F
  0.000000  0.454545 -0.363636    0.00075131  13 t-inv F
 -0.090909 -0.090909  0.454545    0.00075131  13 t-inv F
 -0.454545 -0.363636 -0.090909    0.00075131  13 t-inv F
  0.090909  0.454545 -0.454545    0.00075131  13 t-inv F
  0.454545  0.000000  0.090909    0.00075131  13 t-inv F
  0.000000  0.090909  0.363636    0.00075131  13 t-inv F
 -0.090909  0.363636 -0.454545    0.00075131  13 t-inv F
 -0.363636 -0.454545  0.000000    0.00075131  13 t-inv F
  0.363636  0.363636 -0.090909    0.00075131  14 t-inv F
 -0.090909  0.000000 -0.363636    0.00075131  14 t-inv F
 -0.363636 -0.090909  0.090909    0.00075131  14 t-inv F
  0.000000 -0.363636  0.272727    0.00075131  14 t-inv F
  0.090909  0.090909 -0.363636    0.00075131  14 t-inv F
  0.363636  0.272727  0.090909    0.00075131  14 t-inv F
 -0.090909 -0.363636  0.363636    0.00075131  14 t-inv F
 -0.363636  0.000000 -0.090909    0.00075131  14 t-inv F
  0.000000 -0.090909 -0.272727    0.00075131  14 t-inv F
  0.090909 -0.272727  0.363636    0.00075131  14 t-inv F
  0.272727  0.363636  0.000000    0.00075131  14 t-inv F
  0.272727 -0.090909  0.000000    0.00075131  14 t-inv F
 -0.363636 -0.363636  0.090909    0.00075131  14 t-inv F
  0.090909  0.000000  0.363636    0.00075131  14 t-inv F
  0.363636  0.090909 -0.090909    0.00075131  14 t-inv F
  0.000000  0.363636 -0.272727    0.00075131  14 t-inv F
 -0.090909 -0.090909  0.363636    0.00075131  14 t-inv F
 -0.363636 -0.272727 -0.090909    0.00075131  14 t-inv F
  0.090909  0.363636 -0.363636    0.00075131  14 t-inv F
  0.363636  0.000000  0.090909    0.00075131  14 t-inv F
  0.000000  0.090909  0.272727    0.00075131  14 t-inv F
 -0.090909  0.272727 -0.363636    0.00075131  14 t-inv F
 -0.272727 -0.363636  0.000000    0.00075131  14 t-inv F
  0.272727  0.272727 -0.090909    0.00075131  15 t-inv F
 -0.090909  0.000000 -0.272727    0.00075131  15 t-inv F
 -0.272727 -0.090909  0.090909    0.00075131  15 t-inv F
 -0.000000 -0.272727  0.181818    0.00075131  15 t-inv F
  0.090909  0.090909 -0.272727    0.00075131  15 t-inv F
  0.272727  0.181818  0.090909    0.00075131  15 t-inv F
 -0.090909 -0.272727  0.272727    0.00075131  15 t-inv F
 -0.272727 -0.000000 -0.090909    0.00075131  15 t-inv F
 -0.000000 -0.090909 -0.181818    0.00075131  15 t-inv F
  0.090909 -0.181818  0.272727    0.00075131  15 t-inv F
  0.181818  0.272727  0.000000    0.00075131  15 t-inv F
  0.181818 -0.090909  0.000000    0.00075131  15 t-inv F
 -0.272727 -0.272727  0.090909    0.00075131  15 t-inv F
  0.090909 -0.000000  0.272727    0.00075131  15 t-inv F
  0.272727  0.090909 -0.090909    0.00075131  15 t-inv F
  0.000000  0.272727 -0.181818    0.00075131  15 t-inv F
 -0.090909 -0.090909  0.272727    0.00075131  15 t-inv F
 -0.272727 -0.181818 -0.090909    0.00075131  15 t-inv F
  0.090909  0.272727 -0.272727    0.00075131  15 t-inv F
  0.272727  0.000000  0.090909    0.00075131  15 t-inv F
  0.000000  0.090909  0.181818    0.00075131  15 t-inv F
 -0.090909  0.181818 -0.272727    0.00075131  15 t-inv F
 -0.181818 -0.272727 -0.000000    0.00075131  15 t-inv F
  0.181818  0.181818 -0.090909    0.00075131  16 t-inv F
 -0.090909  0.000000 -0.181818    0.00075131  16 t-inv F
 -0.181818 -0.090909  0.090909    0.00075131  16 t-inv F
 -0.000000 -0.181818  0.090909    0.00075131  16 t-inv F
  0.090909  0.090909 -0.181818    0.00075131  16 t-inv F
  0.181818  0.090909  0.090909    0.00075131  16 t-inv F
 -0.090909 -0.181818  0.181818    0.00075131  16 t-inv F
 -0.181818 -0.000000 -0.090909    0.00075131  16 t-inv F
 -0.000000 -0.090909 -0.090909    0.00075131  16 t-inv F
  0.090909 -0.090909  0.181818    0.00075131  16 t-inv F
  0.090909  0.181818  0.000000    0.00075131  16 t-inv F
  0.090909 -0.090909  0.000000    0.00075131  16 t-inv F
 -0.181818 -0.181818  0.090909    0.00075131  16 t-inv F
  0.090909 -0.000000  0.181818    0.00075131  16 t-inv F
  0.181818  0.090909 -0.090909    0.00075131  16 t-inv F
  0.000000  0.181818 -0.090909    0.00075131  16 t-inv F
 -0.090909 -0.090909  0.181818    0.00075131  16 t-inv F
 -0.181818 -0.090909 -0.090909    0.00075131  16 t-inv F
  0.090909  0.181818 -0.181818    0.00075131  16 t-inv F
  0.181818  0.000000  0.090909    0.00075131  16 t-inv F
  0.000000  0.090909  0.090909    0.00075131  16 t-inv F
 -0.090909  0.090909 -0.181818    0.00075131  16 t-inv F
 -0.090909 -0.181818 -0.000000    0.00075131  16 t-inv F
  0.181818  0.181818 -0.181818    0.00075131  17 t-inv F
 -0.181818  0.000000 -0.181818    0.00075131  17 t-inv F
 -0.181818 -0.181818  0.181818    0.00075131  17 t-inv F
 -0.000000 -0.181818  0.000000    0.00075131  17 t-inv F
  0.181818  0.000000  0.181818    0.00075131  17 t-inv F
 -0.181818 -0.181818 -0.181818    0.00075131  18 t-inv F
 -0.181818  0.000000  0.181818    0.00075131  18 t-inv F
  0.181818 -0.181818  0.181818    0.00075131  18 t-inv F
 -0.000000  0.181818 -0.363636    0.00075131  18 t-inv F
  0.181818  0.181818  0.181818    0.00075131  18 t-inv F
 -0.181818 -0.363636  0.181818    0.00075131  18 t-inv F
 -0.181818  0.181818 -0.181818    0.00075131  18 t-inv F
  0.181818 -0.000000 -0.181818    0.00075131  18 t-inv F
 -0.000000 -0.181818  0.363636    0.00075131  18 t-inv F
  0.181818  0.363636 -0.181818    0.00075131  18 t-inv F
 -0.363636 -0.181818  0.000000    0.00075131  18 t-inv F
 -0.272727 -0.272727 -0.181818    0.00075131  19 t-inv F
 -0.181818 -0.000000  0.272727    0.00075131  19 t-inv F
  0.272727 -0.181818  0.181818    0.00075131  19 t-inv F
  0.000000  0.272727 -0.454545    0.00075131  19 t-inv F
  0.181818  0.181818  0.272727    0.00075131  19 t-inv F
 -0.272727 -0.454545  0.181818    0.00075131  19 t-inv F
 -0.181818  0.272727 -0.272727    0.00075131  19 t-inv F
  0.272727  0.000000 -0.181818    0.00075131  19 t-inv F
  0.000000 -0.181818  0.454545    0.00075131  19 t-inv F
  0.181818  0.454545 -0.272727    0.00075131  19 t-inv F
 -0.454545 -0.272727 -0.000000    0.00075131  19 t-inv F
 -0.454545 -0.181818 -0.000000    0.00075131  19 t-inv F
  0.272727  0.272727  0.181818    0.00075131  19 t-inv F
  0.181818  0.000000 -0.272727    0.00075131  19 t-inv F
 -0.272727  0.181818 -0.181818    0.00075131  19 t-inv F
 -0.000000 -0.272727  0.454545    0.00075131  19 t-inv F
 -0.181818 -0.181818 -0.272727    0.00075131  19 t-inv F
  0.272727  0.454545 -0.181818    0.00075131  19 t-inv F
  0.181818 -0.272727  0.272727    0.00075131  19 t-inv F
 -0.272727 -0.000000  0.181818    0.00075131  19 t-inv F
 -0.000000  0.181818 -0.454545    0.00075131  19 t-inv F
 -0.181818 -0.454545  0.272727    0.00075131  19 t-inv F
  0.454545  0.272727  0.000000    0.00075131  19 t-inv F
  0.636364  0.636364 -0.181818    0.00075131  20 t-inv F
 -0.181818  0.000000 -0.636364    0.00075131  20 t-inv F
 -0.636364 -0.181818  0.181818    0.00075131  20 t-inv F
 -0.000000 -0.636364  0.454545    0.00075131  20 t-inv F
  0.181818  0.181818 -0.636364    0.00075131  20 t-inv F
  0.636364  0.454545  0.181818    0.00075131  20 t-inv F
 -0.181818 -0.636364  0.636364    0.00075131  20 t-inv F
 -0.636364 -0.000000 -0.181818    0.00075131  20 t-inv F
 -0.000000 -0.181818 -0.454545    0.00075131  20 t-inv F
  0.181818 -0.454545  0.636364    0.00075131  20 t-inv F
  0.454545  0.636364  0.000000    0.00075131  20 t-inv F
  0.454545 -0.181818  0.000000    0.00075131  20 t-inv F
 -0.636364 -0.636364  0.181818    0.00075131  20 t-inv F
  0.181818 -0.000000  0.636364    0.00075131  20 t-inv F
  0.636364  0.181818 -0.181818    0.00075131  20 t-inv F
  0.000000  0.636364 -0.454545    0.00075131  20 t-inv F
 -0.181818 -0.181818  0.636364    0.00075131  20 t-inv F
 -0.636364 -0.454545 -0.181818    0.00075131  20 t-inv F
  0.181818  0.636364 -0.636364    0.00075131  20 t-inv F
  0.636364  0.000000  0.181818    0.00075131  20 t-inv F
  0.000000  0.181818  0.454545    0.00075131  20 t-inv F
 -0.181818  0.454545 -0.636364    0.00075131  20 t-inv F
 -0.454545 -0.636364 -0.000000    0.00075131  20 t-inv F
  0.545455  0.545455 -0.181818    0.00075131  21 t-inv F
 -0.181818  0.000000 -0.545455    0.00075131  21 t-inv F
 -0.545455 -0.181818  0.181818    0.00075131  21 t-inv F
 -0.000000 -0.545455  0.363636    0.00075131  21 t-inv F
  0.181818  0.181818 -0.545455    0.00075131  21 t-inv F
  0.545455  0.363636  0.181818    0.00075131  21 t-inv F
 -0.181818 -0.545455  0.545455    0.00075131  21 t-inv F
 -0.545455 -0.000000 -0.181818    0.00075131  21 t-inv F
 -0.000000 -0.181818 -0.363636    0.00075131  21 t-inv F
  0.181818 -0.363636  0.545455    0.00075131  21 t-inv F
  0.363636  0.545455  0.000000    0.00075131  21 t-inv F
  0.363636 -0.181818  0.000000    0.00075131  21 t-inv F
 -0.545455 -0.545455  0.181818    0.00075131  21 t-inv F
  0.181818 -0.000000  0.545455    0.00075131  21 t-inv F
  0.545455  0.181818 -0.181818    0.00075131  21 t-inv F
  0.000000  0.545455 -0.363636    0.00075131  21 t-inv F
 -0.181818 -0.181818  0.545455    0.00075131  21 t-inv F
 -0.545455 -0.363636 -0.181818    0.00075131  21 t-inv F
  0.181818  0.545455 -0.545455    0.00075131  21 t-inv F
  0.545455  0.000000  0.181818    0.00075131  21 t-inv F
  0.000000  0.181818  0.363636    0.00075131  21 t-inv F
 -0.181818  0.363636 -0.545455    0.00075131  21 t-inv F
 -0.363636 -0.545455 -0.000000    0.00075131  21 t-inv F
  0.454545  0.454545 -0.181818    0.00075131  22 t-inv F
 -0.181818  0.000000 -0.454545    0.00075131  22 t-inv F
 -0.454545 -0.181818  0.181818    0.00075131  22 t-inv F
 -0.000000 -0.454545  0.272727    0.00075131  22 t-inv F
  0.181818  0.181818 -0.454545    0.00075131  22 t-inv F
  0.454545  0.272727  0.181818    0.00075131  22 t-inv F
 -0.181818 -0.454545  0.454545    0.00075131  22 t-inv F
 -0.454545 -0.000000 -0.181818    0.00075131  22 t-inv F
 -0.000000 -0.181818 -0.272727    0.00075131  22 t-inv F
  0.181818 -0.272727  0.454545    0.00075131  22 t-inv F
  0.272727  0.454545  0.000000    0.00075131  22 t-inv F
  0.272727 -0.181818  0.000000    0.00075131  22 t-inv F
 -0.454545 -0.454545  0.181818    0.00075131  22 t-inv F
  0.181818 -0.000000  0.454545    0.00075131  22 t-inv F
  0.454545  0.181818 -0.181818    0.00075131  22 t-inv F
  0.000000  0.454545 -0.272727    0.00075131  22 t-inv F
 -0.181818 -0.181818  0.454545    0.00075131  22 t-inv F
 -0.454545 -0.272727 -0.181818    0.00075131  22 t-inv F
  0.181818  0.454545 -0.454545    0.00075131  22 t-inv F
  0.454545  0.000000  0.181818    0.00075131  22 t-inv F
  0.000000  0.181818  0.272727    0.00075131  22 t-inv F
 -0.181818  0.272727 -0.454545    0.00075131  22 t-inv F
 -0.272727 -0.454545 -0.000000    0.00075131  22 t-inv F
  0.363636  0.363636 -0.181818    0.00075131  23 t-inv F
 -0.181818  0.000000 -0.363636    0.00075131  23 t-inv F
 -0.363636 -0.181818  0.181818    0.00075131  23 t-inv F
 -0.000000 -0.363636  0.181818    0.00075131  23 t-inv F
  0.181818  0.181818 -0.363636    0.00075131  23 t-inv F
  0.363636  0.181818  0.181818    0.00075131  23 t-inv F
 -0.181818 -0.363636  0.363636    0.00075131  23 t-inv F
 -0.363636 -0.000000 -0.181818    0.00075131  23 t-inv F
 -0.000000 -0.181818 -0.181818    0.00075131  23 t-inv F
  0.181818 -0.181818  0.363636    0.00075131  23 t-inv F
  0.181818  0.363636  0.000000    0.00075131  23 t-inv F
  0.181818 -0.181818  0.000000    0.00075131  23 t-inv F
 -0.363636 -0.363636  0.181818    0.00075131  23 t-inv F
  0.181818 -0.000000  0.363636    0.00075131  23 t-inv F
  0.363636  0.181818 -0.181818    0.00075131  23 t-inv F
  0.000000  0.363636 -0.181818    0.00075131  23 t-inv F
 -0.181818 -0.181818  0.363636    0.00075131  23 t-inv F
 -0.363636 -0.181818 -0.181818    0.00075131  23 t-inv F
  0.181818  0.363636 -0.363636    0.00075131  23 t-inv F
  0.363636  0.000000  0.181818    0.00075131  23 t-inv F
  0.000000  0.181818  0.181818    0.00075131  23 t-inv F
 -0.181818  0.181818 -0.363636    0.00075131  23 t-inv F
 -0.181818 -0.363636 -0.000000    0.00075131  23 t-inv F
  0.272727  0.272727 -0.181818    0.00075131  24 t-inv F
 -0.181818  0.000000 -0.272727    0.00075131  24 t-inv F
 -0.272727 -0.181818  0.181818    0.00075131  24 t-inv F
  0.000000 -0.272727  0.090909    0.00075131  24 t-inv F
  0.181818  0.181818 -0.272727    0.00075131  24 t-inv F
  0.272727  0.090909  0.181818    0.00075131  24 t-inv F
 -0.181818 -0.272727  0.272727    0.00075131  24 t-inv F
 -0.272727  0.000000 -0.181818    0.00075131  24 t-inv F
  0.000000 -0.181818 -0.090909    0.00075131  24 t-inv F
  0.181818 -0.090909  0.272727    0.00075131  24 t-inv F
  0.090909  0.272727  0.000000    0.00075131  24 t-inv F
  0.090909 -0.181818  0.000000    0.00075131  24 t-inv F
 -0.272727 -0.272727  0.181818    0.00075131  24 t-inv F
  0.181818  0.000000  0.272727    0.00075131  24 t-inv F
  0.272727  0.181818 -0.181818    0.00075131  24 t-inv F
  0.000000  0.272727 -0.090909    0.00075131  24 t-inv F
 -0.181818 -0.181818  0.272727    0.00075131  24 t-inv F
 -0.272727 -0.090909 -0.181818    0.00075131  24 t-inv F
  0.181818  0.272727 -0.272727    0.00075131  24 t-inv F
  0.272727  0.000000  0.181818    0.00075131  24 t-inv F
  0.000000  0.181818  0.090909    0.00075131  24 t-inv F
 -0.181818  0.090909 -0.272727    0.00075131  24 t-inv F
 -0.090909 -0.272727  0.000000    0.00075131  24 t-inv F
  0.272727  0.272727 -0.272727    0.00075131  25 t-inv F
 -0.272727  0.000000 -0.272727    0.00075131  25 t-inv F
 -0.272727 -0.272727  0.272727    0.00075131  25 t-inv F
 -0.000000 -0.272727  0.000000    0.00075131  25 t-inv F
  0.272727  0.000000  0.272727    0.00075131  25 t-inv F
  0.727273  0.727273 -0.272727    0.00075131  26 t-inv F
 -0.272727  0.000000 -0.727273    0.00075131  26 t-inv F
 -0.727273 -0.272727  0.272727    0.00075131  26 t-inv F
 -0.000000 -0.727273  0.454545    0.00075131  26 t-inv F
  0.272727  0.272727 -0.727273    0.00075131  26 t-inv F
  0.727273  0.454545  0.272727    0.00075131  26 t-inv F
 -0.272727 -0.727273  0.727273    0.00075131  26 t-inv F
 -0.727273 -0.000000 -0.272727    0.00075131  26 t-inv F
 -0.000000 -0.272727 -0.454545    0.00075131  26 t-inv F
  0.272727 -0.454545  0.727273    0.00075131  26 t-inv F
  0.454545  0.727273  0.000000    0.00075131  26 t-inv F
  0.636364  0.636364 -0.272727    0.00075131  27 t-inv F
 -0.272727  0.000000 -0.636364    0.00075131  27 t-inv F
 -0.636364 -0.272727  0.272727    0.00075131  27 t-inv F
 -0.000000 -0.636364  0.363636    0.00075131  27 t-inv F
  0.272727  0.272727 -0.636364    0.00075131  27 t-inv F
  0.636364  0.363636  0.272727    0.00075131  27 t-inv F
 -0.272727 -0.636364  0.636364    0.00075131  27 t-inv F
 -0.636364 -0.000000 -0.272727    0.00075131  27 t-inv F
 -0.000000 -0.272727 -0.363636    0.00075131  27 t-inv F
  0.272727 -0.363636  0.636364    0.00075131  27 t-inv F
  0.363636  0.636364  0.000000    0.00075131  27 t-inv F
  0.363636 -0.272727  0.000000    0.00075131  27 t-inv F
 -0.636364 -0.636364  0.272727    0.00075131  27 t-inv F
  0.272727 -0.000000  0.636364    0.00075131  27 t-inv F
  0.636364  0.272727 -0.272727    0.00075131  27 t-inv F
  0.000000  0.636364 -0.363636    0.00075131  27 t-inv F
 -0.272727 -0.272727  0.636364    0.00075131  27 t-inv F
 -0.636364 -0.363636 -0.272727    0.00075131  27 t-inv F
  0.272727  0.636364 -0.636364    0.00075131  27 t-inv F
  0.636364  0.000000  0.272727    0.00075131  27 t-inv F
  0.000000  0.272727  0.363636    0.00075131  27 t-inv F
 -0.272727  0.363636 -0.636364    0.00075131  27 t-inv F
 -0.363636 -0.636364 -0.000000    0.00075131  27 t-inv F
  0.545455  0.545455 -0.272727    0.00075131  28 t-inv F
 -0.272727  0.000000 -0.545455    0.00075131  28 t-inv F
 -0.545455 -0.272727  0.272727    0.00075131  28 t-inv F
 -0.000000 -0.545455  0.272727    0.00075131  28 t-inv F
  0.272727  0.272727 -0.545455    0.00075131  28 t-inv F
  0.545455  0.272727  0.272727    0.00075131  28 t-inv F
 -0.272727 -0.545455  0.545455    0.00075131  28 t-inv F
 -0.545455 -0.000000 -0.272727    0.00075131  28 t-inv F
 -0.000000 -0.272727 -0.272727    0.00075131  28 t-inv F
  0.272727 -0.272727  0.545455    0.00075131  28 t-inv F
  0.272727  0.545455  0.000000    0.00075131  28 t-inv F
  0.272727 -0.272727  0.000000    0.00075131  28 t-inv F
 -0.545455 -0.545455  0.272727    0.00075131  28 t-inv F
  0.272727 -0.000000  0.545455    0.00075131  28 t-inv F
  0.545455  0.272727 -0.272727    0.00075131  28 t-inv F
  0.000000  0.545455 -0.272727    0.00075131  28 t-inv F
 -0.272727 -0.272727  0.545455    0.00075131  28 t-inv F
 -0.545455 -0.272727 -0.272727    0.00075131  28 t-inv F
  0.272727  0.545455 -0.545455    0.00075131  28 t-inv F
  0.545455  0.000000  0.272727    0.00075131  28 t-inv F
  0.000000  0.272727  0.272727    0.00075131  28 t-inv F
 -0.272727  0.272727 -0.545455    0.00075131  28 t-inv F
 -0.272727 -0.545455 -0.000000    0.00075131  28 t-inv F
  0.454545  0.454545 -0.272727    0.00075131  29 t-inv F
 -0.272727  0.000000 -0.454545    0.00075131  29 t-inv F
 -0.454545 -0.272727  0.272727    0.00075131  29 t-inv F
 -0.000000 -0.454545  0.181818    0.00075131  29 t-inv F
  0.272727  0.272727 -0.454545    0.00075131  29 t-inv F
  0.454545  0.181818  0.272727    0.00075131  29 t-inv F
 -0.272727 -0.454545  0.454545    0.00075131  29 t-inv F
 -0.454545 -0.000000 -0.272727    0.00075131  29 t-inv F
 -0.000000 -0.272727 -0.181818    0.00075131  29 t-inv F
  0.272727 -0.181818  0.454545    0.00075131  29 t-inv F
  0.181818  0.454545  0.000000    0.00075131  29 t-inv F
  0.181818 -0.272727  0.000000    0.00075131  29 t-inv F
 -0.454545 -0.454545  0.272727    0.00075131  29 t-inv F
  0.272727 -0.000000  0.454545    0.00075131  29 t-inv F
  0.454545  0.272727 -0.272727    0.00075131  29 t-inv F
  0.000000  0.454545 -0.181818    0.00075131  29 t-inv F
 -0.272727 -0.272727  0.454545    0.00075131  29 t-inv F
 -0.454545 -0.181818 -0.272727    0.00075131  29 t-inv F
  0.272727  0.454545 -0.454545    0.00075131  29 t-inv F
  0.454545  0.000000  0.272727    0.00075131  29 t-inv F
  0.000000  0.272727  0.181818    0.00075131  29 t-inv F
 -0.272727  0.181818 -0.454545    0.00075131  29 t-inv F
 -0.181818 -0.454545 -0.000000    0.00075131  29 t-inv F
  0.363636  0.363636 -0.272727    0.00075131  30 t-inv F
 -0.272727  0.000000 -0.363636    0.00075131  30 t-inv F
 -0.363636 -0.272727  0.272727    0.00075131  30 t-inv F
 -0.000000 -0.363636  0.090909    0.00075131  30 t-inv F
  0.272727  0.272727 -0.363636    0.00075131  30 t-inv F
  0.363636  0.090909  0.272727    0.00075131  30 t-inv F
 -0.272727 -0.363636  0.363636    0.00075131  30 t-inv F
 -0.363636 -0.000000 -0.272727    0.00075131  30 t-inv F
 -0.000000 -0.272727 -0.090909    0.00075131  30 t-inv F
  0.272727 -0.090909  0.363636    0.00075131  30 t-inv F
  0.090909  0.363636  0.000000    0.00075131  30 t-inv F
  0.090909 -0.272727  0.000000    0.00075131  30 t-inv F
 -0.363636 -0.363636  0.272727    0.00075131  30 t-inv F
  0.272727 -0.000000  0.363636    0.00075131  30 t-inv F
  0.363636  0.272727 -0.272727    0.00075131  30 t-inv F
  0.000000  0.363636 -0.090909    0.00075131  30 t-inv F
 -0.272727 -0.272727  0.363636    0.00075131  30 t-inv F
 -0.363636 -0.090909 -0.272727    0.00075131  30 t-inv F
  0.272727  0.363636 -0.363636    0.00075131  30 t-inv F
  0.363636  0.000000  0.272727    0.00075131  30 t-inv F
  0.000000  0.272727  0.090909    0.00075131  30 t-inv F
 -0.272727  0.090909 -0.363636    0.00075131  30 t-inv F
 -0.090909 -0.363636 -0.000000    0.00075131  30 t-inv F
  0.363636  0.363636 -0.363636    0.00075131  31 t-inv F
 -0.363636  0.000000 -0.363636    0.00075131  31 t-inv F
 -0.363636 -0.363636  0.363636    0.00075131  31 t-inv F
 -0.000000 -0.363636  0.000000    0.00075131  31 t-inv F
  0.363636  0.000000  0.363636    0.00075131  31 t-inv F
  0.636364  0.636364 -0.363636    0.00075131  32 t-inv F
 -0.363636  0.000000 -0.636364    0.00075131  32 t-inv F
 -0.636364 -0.363636  0.363636    0.00075131  32 t-inv F
  0.000000 -0.636364  0.272727    0.00075131  32 t-inv F
  0.363636  0.363636 -0.636364    0.00075131  32 t-inv F
  0.636364  0.272727  0.363636    0.00075131  32 t-inv F
 -0.363636 -0.636364  0.636364    0.00075131  32 t-inv F
 -0.636364  0.000000 -0.363636    0.00075131  32 t-inv F
  0.000000 -0.363636 -0.272727    0.00075131  32 t-inv F
  0.363636 -0.272727  0.636364    0.00075131  32 t-inv F
  0.272727  0.636364  0.000000    0.00075131  32 t-inv F
  0.545455  0.545455 -0.363636    0.00075131  33 t-inv F
 -0.363636  0.000000 -0.545455    0.00075131  33 t-inv F
 -0.545455 -0.363636  0.363636    0.00075131  33 t-inv F
  0.000000 -0.545455  0.181818    0.00075131  33 t-inv F
  0.363636  0.363636 -0.545455    0.00075131  33 t-inv F
  0.545455  0.181818  0.363636    0.00075131  33 t-inv F
 -0.363636 -0.545455  0.545455    0.00075131  33 t-inv F
 -0.545455  0.000000 -0.363636    0.00075131  33 t-inv F
  0.000000 -0.363636 -0.181818    0.00075131  33 t-inv F
  0.363636 -0.181818  0.545455    0.00075131  33 t-inv F
  0.181818  0.545455  0.000000    0.00075131  33 t-inv F
  0.181818 -0.363636  0.000000    0.00075131  33 t-inv F
 -0.545455 -0.545455  0.363636    0.00075131  33 t-inv F
  0.363636  0.000000  0.545455    0.00075131  33 t-inv F
  0.545455  0.363636 -0.363636    0.00075131  33 t-inv F
  0.000000  0.545455 -0.181818    0.00075131  33 t-inv F
 -0.363636 -0.363636  0.545455    0.00075131  33 t-inv F
 -0.545455 -0.181818 -0.363636    0.00075131  33 t-inv F
  0.363636  0.545455 -0.545455    0.00075131  33 t-inv F
  0.545455  0.000000  0.363636    0.00075131  33 t-inv F
  0.000000  0.363636  0.181818    0.00075131  33 t-inv F
 -0.363636  0.181818 -0.545455    0.00075131  33 t-inv F
 -0.181818 -0.545455  0.000000    0.00075131  33 t-inv F
  0.454545  0.454545 -0.363636    0.00075131  34 t-inv F
 -0.363636  0.000000 -0.454545    0.00075131  34 t-inv F
 -0.454545 -0.363636  0.363636    0.00075131  34 t-inv F
 -0.000000 -0.454545  0.090909    0.00075131  34 t-inv F
  0.363636  0.363636 -0.454545    0.00075131  34 t-inv F
  0.454545  0.090909  0.363636    0.00075131  34 t-inv F
 -0.363636 -0.454545  0.454545    0.00075131  34 t-inv F
 -0.454545 -0.000000 -0.363636    0.00075131  34 t-inv F
 -0.000000 -0.363636 -0.090909    0.00075131  34 t-inv F
  0.363636 -0.090909  0.454545    0.00075131  34 t-inv F
  0.090909  0.454545  0.000000    0.00075131  34 t-inv F
  0.090909 -0.363636  0.000000    0.00075131  34 t-inv F
 -0.454545 -0.454545  0.363636    0.00075131  34 t-inv F
  0.363636 -0.000000  0.454545    0.00075131  34 t-inv F
  0.454545  0.363636 -0.363636    0.00075131  34 t-inv F
  0.000000  0.454545 -0.090909    0.00075131  34 t-inv F
 -0.363636 -0.363636  0.454545    0.00075131  34 t-inv F
 -0.454545 -0.090909 -0.363636    0.00075131  34 t-inv F
  0.363636  0.454545 -0.454545    0.00075131  34 t-inv F
  0.454545  0.000000  0.363636    0.00075131  34 t-inv F
  0.000000  0.363636  0.090909    0.00075131  34 t-inv F
 -0.363636  0.090909 -0.454545    0.00075131  34 t-inv F
 -0.090909 -0.454545 -0.000000    0.00075131  34 t-inv F
  0.454545  0.454545 -0.454545    0.00075131  35 t-inv F
 -0.454545  0.000000 -0.454545    0.00075131  35 t-inv F
 -0.454545 -0.454545  0.454545    0.00075131  35 t-inv F
 -0.000000 -0.454545  0.000000    0.00075131  35 t-inv F
  0.454545  0.000000  0.454545    0.00075131  35 t-inv F
  0.545455  0.545455 -0.454545    0.00075131  36 t-inv F
 -0.454545  0.000000 -0.545455    0.00075131  36 t-inv F
 -0.545455 -0.454545  0.454545    0.00075131  36 t-inv F
 -0.000000 -0.545455  0.090909    0.00075131  36 t-inv F
  0.454545  0.454545 -0.545455    0.00075131  36 t-inv F
  0.545455  0.090909  0.454545    0.00075131  36 t-inv F
 -0.454545 -0.545455  0.545455    0.00075131  36 t-inv F
 -0.545455 -0.000000 -0.454545    0.00075131  36 t-inv F
 -0.000000 -0.454545 -0.090909    0.00075131  36 t-inv F
  0.454545 -0.090909  0.545455    0.00075131  36 t-inv F
  0.090909  0.545455  0.000000    0.00075131  36 t-inv F
 -0.090909 -0.181818 -0.090909    0.00075131  37 t-inv F
 -0.181818 -0.090909  0.181818    0.00075131  37 t-inv F
 -0.090909  0.090909  0.090909    0.00075131  37 t-inv F
  0.181818 -0.090909  0.181818    0.00075131  37 t-inv F
  0.090909  0.181818 -0.272727    0.00075131  37 t-inv F
 -0.090909  0.090909 -0.272727    0.00075131  37 t-inv F
  0.090909  0.181818  0.090909    0.00075131  37 t-inv F
 -0.181818 -0.272727  0.181818    0.00075131  37 t-inv F
 -0.090909 -0.272727  0.090909    0.00075131  37 t-inv F
 -0.181818  0.090909 -0.181818    0.00075131  37 t-inv F
  0.272727  0.181818 -0.090909    0.00075131  37 t-inv F
 -0.090909  0.181818 -0.090909    0.00075131  37 t-inv F
  0.181818  0.090909 -0.181818    0.00075131  37 t-inv F
  0.090909 -0.090909  0.272727    0.00075131  37 t-inv F
 -0.090909 -0.181818  0.272727    0.00075131  37 t-inv F
  0.090909  0.272727 -0.090909    0.00075131  37 t-inv F
 -0.181818 -0.090909 -0.181818    0.00075131  37 t-inv F
  0.181818  0.272727 -0.181818    0.00075131  37 t-inv F
 -0.272727 -0.090909 -0.090909    0.00075131  37 t-inv F
  0.090909 -0.181818  0.090909    0.00075131  37 t-inv F
  0.181818  0.090909  0.181818    0.00075131  37 t-inv F
  0.090909 -0.090909 -0.090909    0.00075131  37 t-inv F
 -0.272727 -0.181818  0.090909    0.00075131  37 t-inv F
 -0.181818 -0.272727 -0.090909    0.00075131  38 t-inv F
 -0.181818 -0.090909  0.272727    0.00075131  38 t-inv F
 -0.090909  0.090909  0.181818    0.00075131  38 t-inv F
  0.272727 -0.090909  0.181818    0.00075131  38 t-inv F
  0.090909  0.272727 -0.363636    0.00075131  38 t-inv F
 -0.090909  0.181818 -0.363636    0.00075131  38 t-inv F
  0.090909  0.181818  0.181818    0.00075131  38 t-inv F
 -0.272727 -0.363636  0.181818    0.00075131  38 t-inv F
 -0.181818 -0.363636  0.090909    0.00075131  38 t-inv F
 -0.181818  0.181818 -0.272727    0.00075131  38 t-inv F
  0.363636  0.181818 -0.090909    0.00075131  38 t-inv F
 -0.090909  0.272727 -0.181818    0.00075131  38 t-inv F
  0.272727  0.090909 -0.181818    0.00075131  38 t-inv F
  0.090909 -0.090909  0.363636    0.00075131  38 t-inv F
 -0.090909 -0.181818  0.363636    0.00075131  38 t-inv F
  0.090909  0.363636 -0.181818    0.00075131  38 t-inv F
 -0.272727 -0.181818 -0.181818    0.00075131  38 t-inv F
  0.181818  0.363636 -0.272727    0.00075131  38 t-inv F
 -0.363636 -0.181818 -0.090909    0.00075131  38 t-inv F
  0.181818 -0.181818  0.090909    0.00075131  38 t-inv F
  0.181818  0.090909  0.272727    0.00075131  38 t-inv F
  0.181818 -0.090909 -0.090909    0.00075131  38 t-inv F
 -0.363636 -0.272727  0.090909    0.00075131  38 t-inv F
 -0.363636 -0.090909 -0.090909    0.00075131  38 t-inv F
  0.181818  0.272727  0.090909    0.00075131  38 t-inv F
  0.181818  0.090909 -0.272727    0.00075131  38 t-inv F
  0.090909 -0.090909 -0.181818    0.00075131  38 t-inv F
 -0.272727  0.090909 -0.181818    0.00075131  38 t-inv F
 -0.090909 -0.272727  0.363636    0.00075131  38 t-inv F
  0.090909 -0.181818  0.363636    0.00075131  38 t-inv F
 -0.090909 -0.181818 -0.181818    0.00075131  38 t-inv F
  0.272727  0.363636 -0.181818    0.00075131  38 t-inv F
  0.181818  0.363636 -0.090909    0.00075131  38 t-inv F
  0.181818 -0.181818  0.272727    0.00075131  38 t-inv F
 -0.363636 -0.181818  0.090909    0.00075131  38 t-inv F
  0.090909 -0.272727  0.181818    0.00075131  38 t-inv F
 -0.272727 -0.090909  0.181818    0.00075131  38 t-inv F
 -0.090909  0.090909 -0.363636    0.00075131  38 t-inv F
  0.090909  0.181818 -0.363636    0.00075131  38 t-inv F
 -0.090909 -0.363636  0.181818    0.00075131  38 t-inv F
  0.272727  0.181818  0.181818    0.00075131  38 t-inv F
 -0.181818 -0.363636  0.272727    0.00075131  38 t-inv F
  0.363636  0.181818  0.090909    0.00075131  38 t-inv F
 -0.181818  0.181818 -0.090909    0.00075131  38 t-inv F
 -0.181818 -0.090909 -0.272727    0.00075131  38 t-inv F
 -0.181818  0.090909  0.090909    0.00075131  38 t-inv F
  0.363636  0.272727 -0.090909    0.00075131  38 t-inv F
 -0.272727 -0.363636 -0.090909    0.00075131  39 t-inv F
 -0.181818 -0.090909  0.363636    0.00075131  39 t-inv F
 -0.090909  0.090909  0.272727    0.00075131  39 t-inv F
  0.363636 -0.090909  0.181818    0.00075131  39 t-inv F
  0.090909  0.363636 -0.454545    0.00075131  39 t-inv F
 -0.090909  0.272727 -0.454545    0.00075131  39 t-inv F
  0.090909  0.181818  0.272727    0.00075131  39 t-inv F
 -0.363636 -0.454545  0.181818    0.00075131  39 t-inv F
 -0.272727 -0.454545  0.090909    0.00075131  39 t-inv F
 -0.181818  0.272727 -0.363636    0.00075131  39 t-inv F
  0.454545  0.181818 -0.090909    0.00075131  39 t-inv F
 -0.090909  0.363636 -0.272727    0.00075131  39 t-inv F
  0.363636  0.090909 -0.181818    0.00075131  39 t-inv F
  0.090909 -0.090909  0.454545    0.00075131  39 t-inv F
 -0.090909 -0.181818  0.454545    0.00075131  39 t-inv F
  0.090909  0.454545 -0.272727    0.00075131  39 t-inv F
 -0.363636 -0.272727 -0.181818    0.00075131  39 t-inv F
  0.181818  0.454545 -0.363636    0.00075131  39 t-inv F
 -0.454545 -0.272727 -0.090909    0.00075131  39 t-inv F
  0.272727 -0.181818  0.090909    0.00075131  39 t-inv F
  0.181818  0.090909  0.363636    0.00075131  39 t-inv F
  0.272727 -0.090909 -0.090909    0.00075131  39 t-inv F
 -0.454545 -0.363636  0.090909    0.00075131  39 t-inv F
 -0.454545 -0.090909 -0.090909    0.00075131  39 t-inv F
  0.272727  0.363636  0.090909    0.00075131  39 t-inv F
  0.181818  0.090909 -0.363636    0.00075131  39 t-inv F
  0.090909 -0.090909 -0.272727    0.00075131  39 t-inv F
 -0.363636  0.090909 -0.181818    0.00075131  39 t-inv F
 -0.090909 -0.363636  0.454545    0.00075131  39 t-inv F
  0.090909 -0.272727  0.454545    0.00075131  39 t-inv F
 -0.090909 -0.181818 -0.272727    0.00075131  39 t-inv F
  0.363636  0.454545 -0.181818    0.00075131  39 t-inv F
  0.272727  0.454545 -0.090909    0.00075131  39 t-inv F
  0.181818 -0.272727  0.363636    0.00075131  39 t-inv F
 -0.454545 -0.181818  0.090909    0.00075131  39 t-inv F
  0.090909 -0.363636  0.272727    0.00075131  39 t-inv F
 -0.363636 -0.090909  0.181818    0.00075131  39 t-inv F
 -0.090909  0.090909 -0.454545    0.00075131  39 t-inv F
  0.090909  0.181818 -0.454545    0.00075131  39 t-inv F
 -0.090909 -0.454545  0.272727    0.00075131  39 t-inv F
  0.363636  0.272727  0.181818    0.00075131  39 t-inv F
 -0.181818 -0.454545  0.363636    0.00075131  39 t-inv F
  0.454545  0.272727  0.090909    0.00075131  39 t-inv F
 -0.272727  0.181818 -0.090909    0.00075131  39 t-inv F
 -0.181818 -0.090909 -0.363636    0.00075131  39 t-inv F
 -0.272727  0.090909  0.090909    0.00075131  39 t-inv F
  0.454545  0.363636 -0.090909    0.00075131  39 t-inv F
  0.636364  0.545455 -0.090909    0.00075131  40 t-inv F
 -0.181818 -0.090909 -0.545455    0.00075131  40 t-inv F
 -0.090909  0.090909 -0.636364    0.00075131  40 t-inv F
 -0.545455 -0.090909  0.181818    0.00075131  40 t-inv F
  0.090909 -0.545455  0.454545    0.00075131  40 t-inv F
 -0.090909 -0.636364  0.454545    0.00075131  40 t-inv F
  0.090909  0.181818 -0.636364    0.00075131  40 t-inv F
  0.545455  0.454545  0.181818    0.00075131  40 t-inv F
  0.636364  0.454545  0.090909    0.00075131  40 t-inv F
 -0.181818 -0.636364  0.545455    0.00075131  40 t-inv F
 -0.454545  0.181818 -0.090909    0.00075131  40 t-inv F
 -0.090909 -0.545455  0.636364    0.00075131  40 t-inv F
 -0.545455  0.090909 -0.181818    0.00075131  40 t-inv F
  0.090909 -0.090909 -0.454545    0.00075131  40 t-inv F
 -0.090909 -0.181818 -0.454545    0.00075131  40 t-inv F
  0.090909 -0.454545  0.636364    0.00075131  40 t-inv F
  0.545455  0.636364 -0.181818    0.00075131  40 t-inv F
  0.181818 -0.454545  0.545455    0.00075131  40 t-inv F
  0.454545  0.636364 -0.090909    0.00075131  40 t-inv F
 -0.636364 -0.181818  0.090909    0.00075131  40 t-inv F
  0.181818  0.090909 -0.545455    0.00075131  40 t-inv F
 -0.636364 -0.090909 -0.090909    0.00075131  40 t-inv F
  0.454545  0.545455  0.090909    0.00075131  40 t-inv F
  0.454545 -0.090909 -0.090909    0.00075131  40 t-inv F
 -0.636364 -0.545455  0.090909    0.00075131  40 t-inv F
  0.181818  0.090909  0.545455    0.00075131  40 t-inv F
  0.090909 -0.090909  0.636364    0.00075131  40 t-inv F
  0.545455  0.090909 -0.181818    0.00075131  40 t-inv F
 -0.090909  0.545455 -0.454545    0.00075131  40 t-inv F
  0.090909  0.636364 -0.454545    0.00075131  40 t-inv F
 -0.090909 -0.181818  0.636364    0.00075131  40 t-inv F
 -0.545455 -0.454545 -0.181818    0.00075131  40 t-inv F
 -0.636364 -0.454545 -0.090909    0.00075131  40 t-inv F
  0.181818  0.636364 -0.545455    0.00075131  40 t-inv F
  0.454545 -0.181818  0.090909    0.00075131  40 t-inv F
  0.090909  0.545455 -0.636364    0.00075131  40 t-inv F
  0.545455 -0.090909  0.181818    0.00075131  40 t-inv F
 -0.090909  0.090909  0.454545    0.00075131  40 t-inv F
  0.090909  0.181818  0.454545    0.00075131  40 t-inv F
 -0.090909  0.454545 -0.636364    0.00075131  40 t-inv F
 -0.545455 -0.636364  0.181818    0.00075131  40 t-inv F
 -0.181818  0.454545 -0.545455    0.00075131  40 t-inv F
 -0.454545 -0.636364  0.090909    0.00075131  40 t-inv F
  0.636364  0.181818 -0.090909    0.00075131  40 t-inv F
 -0.181818 -0.090909  0.545455    0.00075131  40 t-inv F
  0.636364  0.090909  0.090909    0.00075131  40 t-inv F
 -0.454545 -0.545455 -0.090909    0.00075131  40 t-inv F
 -0.181818 -0.272727 -0.181818    0.00075131  41 t-inv F
 -0.272727 -0.090909  0.272727    0.00075131  41 t-inv F
 -0.181818  0.090909  0.181818    0.00075131  41 t-inv F
  0.272727 -0.181818  0.272727    0.00075131  41 t-inv F
  0.090909  0.272727 -0.454545    0.00075131  41 t-inv F
 -0.090909  0.181818 -0.454545    0.00075131  41 t-inv F
  0.181818  0.272727  0.181818    0.00075131  41 t-inv F
 -0.272727 -0.454545  0.272727    0.00075131  41 t-inv F
 -0.181818 -0.454545  0.181818    0.00075131  41 t-inv F
 -0.272727  0.181818 -0.272727    0.00075131  41 t-inv F
  0.454545  0.272727 -0.090909    0.00075131  41 t-inv F
 -0.181818  0.272727 -0.181818    0.00075131  41 t-inv F
  0.272727  0.090909 -0.272727    0.00075131  41 t-inv F
  0.090909 -0.181818  0.454545    0.00075131  41 t-inv F
 -0.090909 -0.272727  0.454545    0.00075131  41 t-inv F
  0.181818  0.454545 -0.181818    0.00075131  41 t-inv F
 -0.272727 -0.181818 -0.272727    0.00075131  41 t-inv F
  0.272727  0.454545 -0.272727    0.00075131  41 t-inv F
 -0.454545 -0.181818 -0.090909    0.00075131  41 t-inv F
  0.181818 -0.272727  0.181818    0.00075131  41 t-inv F
  0.272727  0.181818  0.272727    0.00075131  41 t-inv F
  0.181818 -0.090909 -0.181818    0.00075131  41 t-inv F
 -0.454545 -0.272727  0.090909    0.00075131  41 t-inv F
  0.727273  0.636364 -0.181818    0.00075131  42 t-inv F
 -0.272727 -0.090909 -0.636364    0.00075131  42 t-inv F
 -0.181818  0.090909 -0.727273    0.00075131  42 t-inv F
 -0.636364 -0.181818  0.272727    0.00075131  42 t-inv F
  0.090909 -0.636364  0.454545    0.00075131  42 t-inv F
 -0.090909 -0.727273  0.454545    0.00075131  42 t-inv F
  0.181818  0.272727 -0.727273    0.00075131  42 t-inv F
  0.636364  0.454545  0.272727    0.00075131  42 t-inv F
  0.727273  0.454545  0.181818    0.00075131  42 t-inv F
 -0.272727 -0.727273  0.636364    0.00075131  42 t-inv F
 -0.454545  0.272727 -0.090909    0.00075131  42 t-inv F
 -0.181818 -0.636364  0.727273    0.00075131  42 t-inv F
 -0.636364  0.090909 -0.272727    0.00075131  42 t-inv F
  0.090909 -0.181818 -0.454545    0.00075131  42 t-inv F
 -0.090909 -0.272727 -0.454545    0.00075131  42 t-inv F
  0.181818 -0.454545  0.727273    0.00075131  42 t-inv F
  0.636364  0.727273 -0.272727    0.00075131  42 t-inv F
  0.272727 -0.454545  0.636364    0.00075131  42 t-inv F
  0.454545  0.727273 -0.090909    0.00075131  42 t-inv F
 -0.727273 -0.272727  0.181818    0.00075131  42 t-inv F
  0.272727  0.181818 -0.636364    0.00075131  42 t-inv F
 -0.727273 -0.090909 -0.181818    0.00075131  42 t-inv F
  0.454545  0.636364  0.090909    0.00075131  42 t-inv F
  0.454545 -0.181818 -0.090909    0.00075131  42 t-inv F
 -0.727273 -0.636364  0.181818    0.00075131  42 t-inv F
  0.272727  0.090909  0.636364    0.00075131  42 t-inv F
  0.181818 -0.090909  0.727273    0.00075131  42 t-inv F
  0.636364  0.181818 -0.272727    0.00075131  42 t-inv F
 -0.090909  0.636364 -0.454545    0.00075131  42 t-inv F
  0.090909  0.727273 -0.454545    0.00075131  42 t-inv F
 -0.181818 -0.272727  0.727273    0.00075131  42 t-inv F
 -0.636364 -0.454545 -0.272727    0.00075131  42 t-inv F
 -0.727273 -0.454545 -0.181818    0.00075131  42 t-inv F
  0.272727  0.727273 -0.636364    0.00075131  42 t-inv F
  0.454545 -0.272727  0.090909    0.00075131  42 t-inv F
  0.181818  0.636364 -0.727273    0.00075131  42 t-inv F
  0.636364 -0.090909  0.272727    0.00075131  42 t-inv F
 -0.090909  0.181818  0.454545    0.00075131  42 t-inv F
  0.090909  0.272727  0.454545    0.00075131  42 t-inv F
 -0.181818  0.454545 -0.727273    0.00075131  42 t-inv F
 -0.636364 -0.727273  0.272727    0.00075131  42 t-inv F
 -0.272727  0.454545 -0.636364    0.00075131  42 t-inv F
 -0.454545 -0.727273  0.090909    0.00075131  42 t-inv F
  0.727273  0.272727 -0.181818    0.00075131  42 t-inv F
 -0.272727 -0.181818  0.636364    0.00075131  42 t-inv F
  0.727273  0.090909  0.181818    0.00075131  42 t-inv F
 -0.454545 -0.636364 -0.090909    0.00075131  42 t-inv F
  0.636364  0.545455 -0.181818    0.00075131  43 t-inv F
 -0.272727 -0.090909 -0.545455    0.00075131  43 t-inv F
 -0.181818  0.090909 -0.636364    0.00075131  43 t-inv F
 -0.545455 -0.181818  0.272727    0.00075131  43 t-inv F
  0.090909 -0.545455  0.363636    0.00075131  43 t-inv F
 -0.090909 -0.636364  0.363636    0.00075131  43 t-inv F
  0.181818  0.272727 -0.636364    0.00075131  43 t-inv F
  0.545455  0.363636  0.272727    0.00075131  43 t-inv F
  0.636364  0.363636  0.181818    0.00075131  43 t-inv F
 -0.272727 -0.636364  0.545455    0.00075131  43 t-inv F
 -0.363636  0.272727 -0.090909    0.00075131  43 t-inv F
 -0.181818 -0.545455  0.636364    0.00075131  43 t-inv F
 -0.545455  0.090909 -0.272727    0.00075131  43 t-inv F
  0.090909 -0.181818 -0.363636    0.00075131  43 t-inv F
 -0.090909 -0.272727 -0.363636    0.00075131  43 t-inv F
  0.181818 -0.363636  0.636364    0.00075131  43 t-inv F
  0.545455  0.636364 -0.272727    0.00075131  43 t-inv F
  0.272727 -0.363636  0.545455    0.00075131  43 t-inv F
  0.363636  0.636364 -0.090909    0.00075131  43 t-inv F
 -0.636364 -0.272727  0.181818    0.00075131  43 t-inv F
  0.272727  0.181818 -0.545455    0.00075131  43 t-inv F
 -0.636364 -0.090909 -0.181818    0.00075131  43 t-inv F
  0.363636  0.545455  0.090909    0.00075131  43 t-inv F
  0.363636 -0.181818 -0.090909    0.00075131  43 t-inv F
 -0.636364 -0.545455  0.181818    0.00075131  43 t-inv F
  0.272727  0.090909  0.545455    0.00075131  43 t-inv F
  0.181818 -0.090909  0.636364    0.00075131  43 t-inv F
  0.545455  0.181818 -0.272727    0.00075131  43 t-inv F
 -0.090909  0.545455 -0.363636    0.00075131  43 t-inv F
  0.090909  0.636364 -0.363636    0.00075131  43 t-inv F
 -0.181818 -0.272727  0.636364    0.00075131  43 t-inv F
 -0.545455 -0.363636 -0.272727    0.00075131  43 t-inv F
 -0.636364 -0.363636 -0.181818    0.00075131  43 t-inv F
  0.272727  0.636364 -0.545455    0.00075131  43 t-inv F
  0.363636 -0.272727  0.090909    0.00075131  43 t-inv F
  0.181818  0.545455 -0.636364    0.00075131  43 t-inv F
  0.545455 -0.090909  0.272727    0.00075131  43 t-inv F
 -0.090909  0.181818  0.363636    0.00075131  43 t-inv F
  0.090909  0.272727  0.363636    0.00075131  43 t-inv F
 -0.181818  0.363636 -0.636364    0.00075131  43 t-inv F
 -0.545455 -0.636364  0.272727    0.00075131  43 t-inv F
 -0.272727  0.363636 -0.545455    0.00075131  43 t-inv F
 -0.363636 -0.636364  0.090909    0.00075131  43 t-inv F
  0.636364  0.272727 -0.181818    0.00075131  43 t-inv F
 -0.272727 -0.181818  0.545455    0.00075131  43 t-inv F
  0.636364  0.090909  0.181818    0.00075131  43 t-inv F
 -0.363636 -0.545455 -0.090909    0.00075131  43 t-inv F
  0.545455  0.454545 -0.181818    0.00075131  44 t-inv F
 -0.272727 -0.090909 -0.454545    0.00075131  44 t-inv F
 -0.181818  0.090909 -0.545455    0.00075131  44 t-inv F
 -0.454545 -0.181818  0.272727    0.00075131  44 t-inv F
  0.090909 -0.454545  0.272727    0.00075131  44 t-inv F
 -0.090909 -0.545455  0.272727    0.00075131  44 t-inv F
  0.181818  0.272727 -0.545455    0.00075131  44 t-inv F
  0.454545  0.272727  0.272727    0.00075131  44 t-inv F
  0.545455  0.272727  0.181818    0.00075131  44 t-inv F
 -0.272727 -0.545455  0.454545    0.00075131  44 t-inv F
 -0.272727  0.272727 -0.090909    0.00075131  44 t-inv F
 -0.181818 -0.454545  0.545455    0.00075131  44 t-inv F
 -0.454545  0.090909 -0.272727    0.00075131  44 t-inv F
  0.090909 -0.181818 -0.272727    0.00075131  44 t-inv F
 -0.090909 -0.272727 -0.272727    0.00075131  44 t-inv F
  0.181818 -0.272727  0.545455    0.00075131  44 t-inv F
  0.454545  0.545455 -0.272727    0.00075131  44 t-inv F
  0.272727 -0.272727  0.454545    0.00075131  44 t-inv F
  0.272727  0.545455 -0.090909    0.00075131  44 t-inv F
 -0.545455 -0.272727  0.181818    0.00075131  44 t-inv F
  0.272727  0.181818 -0.454545    0.00075131  44 t-inv F
 -0.545455 -0.090909 -0.181818    0.00075131  44 t-inv F
  0.272727  0.454545  0.090909    0.00075131  44 t-inv F
  0.272727 -0.181818 -0.090909    0.00075131  44 t-inv F
 -0.545455 -0.454545  0.181818    0.00075131  44 t-inv F
  0.272727  0.090909  0.454545    0.00075131  44 t-inv F
  0.181818 -0.090909  0.545455    0.00075131  44 t-inv F
  0.454545  0.181818 -0.272727    0.00075131  44 t-inv F
 -0.090909  0.454545 -0.272727    0.00075131  44 t-inv F
  0.090909  0.545455 -0.272727    0.00075131  44 t-inv F
 -0.181818 -0.272727  0.545455    0.00075131  44 t-inv F
 -0.454545 -0.272727 -0.272727    0.00075131  44 t-inv F
 -0.545455 -0.272727 -0.181818    0.00075131  44 t-inv F
  0.272727  0.545455 -0.454545    0.00075131  44 t-inv F
  0.272727 -0.272727  0.090909    0.00075131  44 t-inv F
  0.181818  0.454545 -0.545455    0.00075131  44 t-inv F
  0.454545 -0.090909  0.272727    0.00075131  44 t-inv F
 -0.090909  0.181818  0.272727    0.00075131  44 t-inv F
  0.090909  0.272727  0.272727    0.00075131  44 t-inv F
 -0.181818  0.272727 -0.545455    0.00075131  44 t-inv F
 -0.454545 -0.545455  0.272727    0.00075131  44 t-inv F
 -0.272727  0.272727 -0.454545    0.00075131  44 t-inv F
 -0.272727 -0.545455  0.090909    0.00075131  44 t-inv F
  0.545455  0.272727 -0.181818    0.00075131  44 t-inv F
 -0.272727 -0.181818  0.454545    0.00075131  44 t-inv F
  0.545455  0.090909  0.181818    0.00075131  44 t-inv F
 -0.272727 -0.454545 -0.090909    0.00075131  44 t-inv F
  0.454545  0.363636 -0.181818    0.00075131  45 t-inv F
 -0.272727 -0.090909 -0.363636    0.00075131  45 t-inv F
 -0.181818  0.090909 -0.454545    0.00075131  45 t-inv F
 -0.363636 -0.181818  0.272727    0.00075131  45 t-inv F
  0.090909 -0.363636  0.181818    0.00075131  45 t-inv F
 -0.090909 -0.454545  0.181818    0.00075131  45 t-inv F
  0.181818  0.272727 -0.454545    0.00075131  45 t-inv F
  0.363636  0.181818  0.272727    0.00075131  45 t-inv F
  0.454545  0.181818  0.181818    0.00075131  45 t-inv F
 -0.272727 -0.454545  0.363636    0.00075131  45 t-inv F
 -0.181818  0.272727 -0.090909    0.00075131  45 t-inv F
 -0.181818 -0.363636  0.454545    0.00075131  45 t-inv F
 -0.363636  0.090909 -0.272727    0.00075131  45 t-inv F
  0.090909 -0.181818 -0.181818    0.00075131  45 t-inv F
 -0.090909 -0.272727 -0.181818    0.00075131  45 t-inv F
  0.181818 -0.181818  0.454545    0.00075131  45 t-inv F
  0.363636  0.454545 -0.272727    0.00075131  45 t-inv F
  0.272727 -0.181818  0.363636    0.00075131  45 t-inv F
  0.181818  0.454545 -0.090909    0.00075131  45 t-inv F
 -0.454545 -0.272727  0.181818    0.00075131  45 t-inv F
  0.272727  0.181818 -0.363636    0.00075131  45 t-inv F
 -0.454545 -0.090909 -0.181818    0.00075131  45 t-inv F
  0.181818  0.363636  0.090909    0.00075131  45 t-inv F
  0.181818 -0.181818 -0.090909    0.00075131  45 t-inv F
 -0.454545 -0.363636  0.181818    0.00075131  45 t-inv F
  0.272727  0.090909  0.363636    0.00075131  45 t-inv F
  0.181818 -0.090909  0.454545    0.00075131  45 t-inv F
  0.363636  0.181818 -0.272727    0.00075131  45 t-inv F
 -0.090909  0.363636 -0.181818    0.00075131  45 t-inv F
  0.090909  0.454545 -0.181818    0.00075131  45 t-inv F
 -0.181818 -0.272727  0.454545    0.00075131  45 t-inv F
 -0.363636 -0.181818 -0.272727    0.00075131  45 t-inv F
 -0.454545 -0.181818 -0.181818    0.00075131  45 t-inv F
  0.272727  0.454545 -0.363636    0.00075131  45 t-inv F
  0.181818 -0.272727  0.090909    0.00075131  45 t-inv F
  0.181818  0.363636 -0.454545    0.00075131  45 t-inv F
  0.363636 -0.090909  0.272727    0.00075131  45 t-inv F
 -0.090909  0.181818  0.181818    0.00075131  45 t-inv F
  0.090909  0.272727  0.181818    0.00075131  45 t-inv F
 -0.181818  0.181818 -0.454545    0.00075131  45 t-inv F
 -0.363636 -0.454545  0.272727    0.00075131  45 t-inv F
 -0.272727  0.181818 -0.363636    0.00075131  45 t-inv F
 -0.181818 -0.454545  0.090909    0.00075131  45 t-inv F
  0.454545  0.272727 -0.181818    0.00075131  45 t-inv F
 -0.272727 -0.181818  0.363636    0.00075131  45 t-inv F
  0.454545  0.090909  0.181818    0.00075131  45 t-inv F
 -0.181818 -0.363636 -0.090909    0.00075131  45 t-inv F
  0.363636  0.272727 -0.181818    0.00075131  46 t-inv F
 -0.272727 -0.090909 -0.272727    0.00075131  46 t-inv F
 -0.181818  0.090909 -0.363636    0.00075131  46 t-inv F
 -0.272727 -0.181818  0.272727    0.00075131  46 t-inv F
  0.090909 -0.272727  0.090909    0.00075131  46 t-inv F
 -0.090909 -0.363636  0.090909    0.00075131  46 t-inv F
  0.181818  0.272727 -0.363636    0.00075131  46 t-inv F
  0.272727  0.090909  0.272727    0.00075131  46 t-inv F
  0.363636  0.090909  0.181818    0.00075131  46 t-inv F
 -0.272727 -0.363636  0.272727    0.00075131  46 t-inv F
 -0.090909  0.272727 -0.090909    0.00075131  46 t-inv F
 -0.181818 -0.272727  0.363636    0.00075131  46 t-inv F
 -0.272727  0.090909 -0.272727    0.00075131  46 t-inv F
  0.090909 -0.181818 -0.090909    0.00075131  46 t-inv F
 -0.090909 -0.272727 -0.090909    0.00075131  46 t-inv F
  0.181818 -0.090909  0.363636    0.00075131  46 t-inv F
  0.272727  0.363636 -0.272727    0.00075131  46 t-inv F
  0.272727 -0.090909  0.272727    0.00075131  46 t-inv F
  0.090909  0.363636 -0.090909    0.00075131  46 t-inv F
 -0.363636 -0.272727  0.181818    0.00075131  46 t-inv F
  0.272727  0.181818 -0.272727    0.00075131  46 t-inv F
 -0.363636 -0.090909 -0.181818    0.00075131  46 t-inv F
  0.090909  0.272727  0.090909    0.00075131  46 t-inv F
  0.727273  0.636364 -0.272727    0.00075131  47 t-inv F
 -0.363636 -0.090909 -0.636364    0.00075131  47 t-inv F
 -0.272727  0.090909 -0.727273    0.00075131  47 t-inv F
 -0.636364 -0.272727  0.363636    0.00075131  47 t-inv F
  0.090909 -0.636364  0.363636    0.00075131  47 t-inv F
 -0.090909 -0.727273  0.363636    0.00075131  47 t-inv F
  0.272727  0.363636 -0.727273    0.00075131  47 t-inv F
  0.636364  0.363636  0.363636    0.00075131  47 t-inv F
  0.727273  0.363636  0.272727    0.00075131  47 t-inv F
 -0.363636 -0.727273  0.636364    0.00075131  47 t-inv F
 -0.363636  0.363636 -0.090909    0.00075131  47 t-inv F
 -0.272727 -0.636364  0.727273    0.00075131  47 t-inv F
 -0.636364  0.090909 -0.363636    0.00075131  47 t-inv F
[...]
     12       0.0000      0.00000
     13       0.0000      0.00000
     14       0.0000      0.00000
     15       0.0000      0.00000
     16       0.0001      0.00000

 k-point 357 :       0.0909   -0.2727    0.4545
  band No.  band energies     occupation 
      1       0.0311      0.00000
      2      -0.2967      0.00000
      3       1.4146      0.00000
      4      -1.2582      0.00000
      5       0.1693      0.00000
      6      -2.2987      0.00000
      7       2.3596      0.00000
      8       1.8829      0.00000
      9      -2.1682      0.00000
     10      -0.3833      0.00000
     11       0.0083      0.00000
     12      -0.0481      0.00000
     13      -1.2833      0.00000
     14       1.8337      0.00000
     15      -0.1164      0.00000
     16       0.7872      0.00000

 k-point 358 :       0.1818   -0.2727    0.4545
  band No.  band energies     occupation 
      1       0.0994      0.00000
      2      -0.5532      0.00000
      3       2.3772      0.00000
      4      -1.8105      0.00000
      5      -1.7566      0.00000
      6       0.0856      0.00000
      7       2.2560      0.00000
      8       1.2504      0.00000
      9      -1.5539      0.00000
     10      -0.9096      0.00000
     11       0.0186      0.00000
     12      -1.9034      0.00000
     13       0.4157      0.00000
     14       1.7239      0.00000
     15       2.2237      0.00000
     16      -0.2462      0.00000

 k-point 359 :       0.2727   -0.2727    0.4545
  band No.  band energies     occupation 
      1       0.2279      0.00000
      2      -0.7577      0.00000
      3       0.9502      0.00000
      4      -0.2008      0.00000
      5      -2.0903      0.00000
      6       2.4929      0.00000
      7       0.8390      0.00000
      8       0.2124      0.00000
      9      -1.5980      0.00000
     10      -0.1417      0.00000
     11      -1.0211      0.00000
     12       0.9640      0.00000
     13      -1.8423      0.00000
     14       1.4609      0.00000
     15       0.1597      0.00000
     16      -0.6839      0.00000

 k-point 360 :       0.3636    0.7273   -0.5455
  band No.  band energies     occupation 
      1       0.5067      0.00000
      2      -0.9815      0.00000
      3      -0.0210      0.00000
      4       0.5887      0.00000
      5      -1.7757      0.00000
      6       1.9687      0.00000
      7       0.9784      0.00000
      8      -1.2110      0.00000
      9      -0.0427      0.00000
     10      -0.3569      0.00000
     11      -0.0340      0.00000
     12       0.4316      0.00000
     13       1.1958      0.00000
     14      -1.9671      0.00000
     15      -0.7576      0.00000
     16       2.1166      0.00000

 k-point 361 :      -0.5455   -0.2727    0.4545
  band No.  band energies     occupation 
      1       1.6082      0.00000
      2      -2.0244      0.00000
      3      -0.8659      0.00000
      4       1.3127      0.00000
      5       1.8332      0.00000
      6      -1.9744      0.00000
      7      -0.0449      0.00000
      8       0.1011      0.00000
      9      -0.1953      0.00000
     10       0.1532      0.00000
     11      -0.2921      0.00000
     12       0.2322      0.00000
     13       2.4501      0.00000
     14      -1.5495      0.00000
     15      -0.4856      0.00000
     16      -1.9084      0.00000

 k-point 362 :      -0.4545   -0.2727    0.4545
  band No.  band energies     occupation 
      1       1.0167      0.00000
      2      -1.5168      0.00000
      3      -0.4145      0.00000
      4       0.9982      0.00000
      5      -0.5817      0.00000
      6       0.5098      0.00000
      7       1.3966      0.00000
      8      -1.2876      0.00000
      9      -0.4123      0.00000
     10       0.1430      0.00000
     11      -0.3113      0.00000
     12       0.2483      0.00000
     13       2.0593      0.00000
     14      -2.7028      0.00000
     15      -0.0206      0.00000
     16      -0.7415      0.00000

 k-point 363 :      -0.3636   -0.2727    0.4545
  band No.  band energies     occupation 
      1       0.3297      0.00000
      2      -0.9776      0.00000
      3       1.4123      0.00000
      4      -0.5382      0.00000
      5      -1.9053      0.00000
      6       1.6015      0.00000
      7       1.7014      0.00000
      8       0.4673      0.00000
      9      -2.2068      0.00000
     10      -0.3906      0.00000
     11      -0.2445      0.00000
     12      -0.6130      0.00000
     13      -1.0756      0.00000
     14       0.7698      0.00000
     15       2.4508      0.00000
     16      -0.5995      0.00000

 k-point 364 :      -0.2727   -0.2727    0.4545
  band No.  band energies     occupation 
      1       0.1229      0.00000
      2      -0.7961      0.00000
      3       2.3637      0.00000
      4      -1.4755      0.00000
      5      -1.7929      0.00000
      6       1.4757      0.00000
      7       0.1959      0.00000
      8       1.8328      0.00000
      9      -1.8971      0.00000
     10      -1.1935      0.00000
     11      -1.6094      0.00000
     12       0.0061      0.00000
     13       0.8324      0.00000
     14       0.8764      0.00000
     15       2.2098      0.00000
     16       1.2020      0.00000

 k-point 365 :      -0.1818   -0.2727    0.4545
  band No.  band energies     occupation 
      1       0.0348      0.00000
      2      -0.4696      0.00000
      3       1.7629      0.00000
      4      -1.3203      0.00000
      5      -1.1965      0.00000
      6       1.1702      0.00000
      7      -0.2607      0.00000
      8       1.9457      0.00000
      9      -1.7683      0.00000
     10      -0.5208      0.00000
     11      -0.0303      0.00000
     12      -0.6271      0.00000
     13      -0.6971      0.00000
     14       2.0375      0.00000
     15      -0.0385      0.00000
     16      -0.3250      0.00000

 k-point 366 :      -0.0909   -0.2727    0.4545
  band No.  band energies     occupation 
      1       0.0001      0.00000
      2       0.0001      0.00000
      3       0.0001      0.00000
      4       0.0001      0.00000
      5       0.0001      0.00000
      6       0.0000      0.00000
      7       0.0000      0.00000
      8       0.0000      0.00000
      9       0.0000      0.00000
     10       0.0000      0.00000
     11       0.0001      0.00000
     12       0.0000      0.00000
     13       0.0000      0.00000
     14       0.0000      0.00000
     15       0.0000      0.00000
     16      -0.0119      0.00000


------------------------ aborting loop because EDIFF is reached ----------------------------------------


 FEWALD executed in parallel
    FORLOC:  cpu time    0.0020: real time    0.0019
    FORNL :  cpu time    2.7516: real time    2.7522
    STRESS:  cpu time    8.2158: real time    8.2184
    FORCOR:  cpu time    0.0230: real time    0.0228
    OFIELD:  cpu time    0.0000: real time    0.0001
 FEWALD executed in parallel
    FORLOC:  cpu time    0.0010: real time    0.0007
    FORNL :  cpu time    2.7506: real time    2.7520
    STRESS:  cpu time    8.2158: real time    8.2184
    FORCOR:  cpu time    0.0230: real time    0.0229
    OFIELD:  cpu time    0.0000: real time    0.0001
 FEWALD executed in parallel
    FORLOC:  cpu time    0.0010: real time    0.0006
    FORNL :  cpu time    2.7516: real time    2.7521
    STRESS:  cpu time    8.2178: real time    8.2183
    FORCOR:  cpu time    0.0230: real time    0.0229
    OFIELD:  cpu time    0.0000: real time    0.0001
 FEWALD executed in parallel
    FORLOC:  cpu time    0.0000: real time    0.0006
    FORNL :  cpu time    2.7526: real time    2.7522
    STRESS:  cpu time    8.2178: real time    8.2186
    FORCOR:  cpu time    0.0230: real time    0.0228
    OFIELD:  cpu time    0.0000: real time    0.0001

 INTERNAL STRAIN TENSOR  FOR ION    1  DIRECTION 1   (eV/Angst):
 -----------------------------------------------------------------------------
    -0.00253 -7.23250 -5.11414
    -7.19600  0.00133 -0.00044
    -5.08834 -0.00044  0.00164


 POSITION                   FORCE-CONSTANT FOR ION    1 DIRECTION 1 (eV/Angst/Angst)
 -----------------------------------------------------------------------------------
      0.00000      0.00000      0.00000       -13.752511     -0.000105     -0.000074
      3.86746      0.00000      2.36832        13.752511      0.000105      0.000074
 -----------------------------------------------------------------------------------
    total drift:                                0.000000      0.000000      0.000000


 BORN EFFECTIVE CHARGE FOR ION    1 DIRECTION 1 :  -0.015  -0.000  -0.000
                   rigid augmentation           :   0.229   0.000   0.000
                   ionic contribution           :   4.000   0.000   0.000
                   Berry contribution           :  -4.244  -0.000  -0.000


--------------------------------------------------------------------------------------------------------


  LATTYP: Found a face centered cubic cell.
 ALAT       =     5.4694110002
  
  Lattice vectors:
  
 A1 = (   1.9337280000,   3.3493170000,   0.0000000000)
 A2 = (   0.0000000000,   2.2328760000,  -3.1577660000)
 A3 = (  -1.9337290000,   3.3493170000,   0.0000000000)


Analysis of symmetry for initial positions (statically):
=====================================================================
 Subroutine PRICEL returns:
 Original cell was already a primitive cell.
 

 Routine SETGRP: Setting up the symmetry group for a 
 face centered cubic supercell.


 Subroutine GETGRP returns: Found 48 space group operations
 (whereof 24 operations were pure point group operations)
 out of a pool of 48 trial point group operations.


The static configuration has the point symmetry T_d .
 The point group associated with its full space group is O_h .


Analysis of symmetry for dynamics (positions and initial velocities):
=====================================================================
 Subroutine PRICEL returns:
 Original cell was already a primitive cell.
 

 Routine SETGRP: Setting up the symmetry group for a 
 face centered cubic supercell.


 Subroutine GETGRP returns: Found 48 space group operations
 (whereof 24 operations were pure point group operations)
 out of a pool of 48 trial point group operations.


The dynamic configuration has the point symmetry T_d .
 The point group associated with its full space group is O_h .


Analysis of structural, dynamic, and magnetic symmetry:
=====================================================================
 Subroutine PRICEL returns:
 Original cell was already a primitive cell.
 

 Routine SETGRP: Setting up the symmetry group for a 
 face centered cubic supercell.


 Subroutine GETGRP returns: Found 48 space group operations
 (whereof 24 operations were pure point group operations)
 out of a pool of 48 trial point group operations.


The magnetic configuration has the point symmetry T_d .
 The point group associated with its full space group is O_h .


 Subroutine INISYM returns: Found 48 space group operations
 (whereof 24 operations are pure point group operations),
 and found     1 'primitive' translations



--------------------------------------------------------------------------------------------------------




 MACROSCOPIC STATIC DIELECTRIC TENSOR (including local field effects in DFT)
 ------------------------------------------------------
          13.232451    -0.000002    -0.000001
          -0.000002    13.232459     0.000008
          -0.000001     0.000008    13.232456
 ------------------------------------------------------


 PIEZOELECTRIC TENSOR  for field in x, y, z        (e  Angst)
          XX          YY          ZZ          XY          YZ          ZX
  --------------------------------------------------------------------------------
  x     0.00311    -0.00112    -0.00229    -0.00000     0.00165    -0.00000
  y     0.00077    -0.00158     0.00118     0.00000     0.00188    -0.00000
  z    -0.00078    -0.00078     0.00033     0.00000     0.00000    -0.00000

 PIEZOELECTRIC TENSOR  for field in x, y, z        (C/m^2)
          XX          YY          ZZ          XY          YZ          ZX
  --------------------------------------------------------------------------------
  x    -0.00000     0.00000     0.00000     0.00000    -0.00000     0.00000
  y     0.00000    -0.00000    -0.00000     0.00000     0.00000     0.00000
  z     0.00000     0.00000    -0.00000     0.00000     0.00000    -0.00000
 
 BORN EFFECTIVE CHARGES (in e, cummulative output)
 -------------------------------------------------
 ion    1
    1    -0.01548     0.00042     0.00030
    2     0.00000    -0.01517     0.00006
    3     0.00000    -0.00000    -0.01589
 ion    2
    1    -0.01548    -0.00042    -0.00030
    2     0.00000    -0.01579    -0.00006
    3     0.00000    -0.00000    -0.01507

 INTERNAL STRAIN TENSOR FOR ION    1 for displacements in x,y,z  (eV/Angst):
          X           Y           Z          XY          YZ          ZX
  --------------------------------------------------------------------------------
  x     0.00000    -0.00000    -0.00000    -7.21511     0.00000    -5.10185
  y    -7.21511     7.21510     0.00001    -0.00000    -5.10185     0.00000
  z    -5.10185    -5.10185    10.20370     0.00000     0.00001    -0.00000

 INTERNAL STRAIN TENSOR FOR ION    2 for displacements in x,y,z  (eV/Angst):
          X           Y           Z          XY          YZ          ZX
  --------------------------------------------------------------------------------
  x    -0.00000     0.00000     0.00000     7.21511    -0.00000     5.10185
  y     7.21511    -7.21510    -0.00001     0.00000     5.10185    -0.00000
  z     5.10185     5.10185   -10.20370    -0.00000    -0.00001     0.00000


--------------------------------------------------------------------------------------------------------


 
 SECOND DERIVATIVES (NOT SYMMETRIZED)
 ------------------------------------
               1X          1Y          1Z          2X          2Y          2Z 
  1X   -13.752567    0.000002    0.000001   13.752567   -0.000002   -0.000001
  1Y     0.000002  -13.752575   -0.000009   -0.000002   13.752575    0.000009
  1Z     0.000001   -0.000009  -13.752572   -0.000001    0.000009   13.752572
  2X    13.752567   -0.000002   -0.000001  -13.752567    0.000002    0.000001
  2Y    -0.000002   13.752575    0.000009    0.000002  -13.752575   -0.000009
  2Z    -0.000001    0.000009   13.752572    0.000001   -0.000009  -13.752572
 
 
 Eigenvectors and eigenvalues of the dynamical matrix
 ----------------------------------------------------
 
 
   1 f  =   15.471080 THz    97.207663 2PiTHz  516.059665 cm-1    63.983267 meV
             X         Y         Z           dx          dy          dz
      0.000000  0.000000  0.000000     0.110489   -0.535631   -0.448209  
      3.867457  0.000001  2.368324    -0.110489    0.535631    0.448209  
 
   2 f  =   15.471071 THz    97.207605 2PiTHz  516.059361 cm-1    63.983229 meV
             X         Y         Z           dx          dy          dz
      0.000000  0.000000  0.000000    -0.694181   -0.034291   -0.130144  
      3.867457  0.000001  2.368324     0.694181    0.034291    0.130144  
 
   3 f  =   15.471070 THz    97.207599 2PiTHz  516.059325 cm-1    63.983225 meV
             X         Y         Z           dx          dy          dz
      0.000000  0.000000  0.000000    -0.076848   -0.460351    0.531198  
      3.867457  0.000001  2.368324     0.076848    0.460351   -0.531198  
 
   4 f  =    0.000000 THz     0.000000 2PiTHz    0.000002 cm-1     0.000000 meV
             X         Y         Z           dx          dy          dz
      0.000000  0.000000  0.000000     0.471262    0.525507   -0.041888  
      3.867457  0.000001  2.368324     0.471262    0.525507   -0.041888  
 
   5 f/i=    0.000000 THz     0.000000 2PiTHz    0.000002 cm-1     0.000000 meV
             X         Y         Z           dx          dy          dz
      0.000000  0.000000  0.000000    -0.527156    0.469306   -0.043103  
      3.867457  0.000001  2.368324    -0.527156    0.469306   -0.043103  
 
   6 f/i=    0.000000 THz     0.000002 2PiTHz    0.000009 cm-1     0.000001 meV
             X         Y         Z           dx          dy          dz
      0.000000  0.000000  0.000000     0.004233   -0.059955   -0.704548  
      3.867457  0.000001  2.368324     0.004233   -0.059955   -0.704548  
 


--------------------------------------------------------------------------------------------------------




 MACROSCOPIC STATIC DIELECTRIC TENSOR IONIC CONTRIBUTION
 ------------------------------------------------------
           0.000000     0.000000    -0.000000
           0.000000     0.000000    -0.000000
          -0.000000    -0.000000     0.000000
 ------------------------------------------------------


 ELASTIC MODULI IONIC CONTR (kBar)
 Direction    XX          YY          ZZ          XY          YZ          ZX
 --------------------------------------------------------------------------------
 XX        -222.4034     74.1344    148.2690      0.0001   -104.8419      0.0000
 YY          74.1344   -222.4033    148.2690      0.0000    104.8421     -0.0000
 ZZ         148.2690    148.2690   -296.5380     -0.0000     -0.0002      0.0000
 XY           0.0001      0.0000     -0.0000   -148.2691     -0.0000   -104.8420
 YZ        -104.8419    104.8421     -0.0002     -0.0000    -74.1345      0.0000
 ZX           0.0000     -0.0000      0.0000   -104.8420      0.0000    -74.1345
 --------------------------------------------------------------------------------


 PIEZOELECTRIC TENSOR IONIC CONTR  for field in x, y, z        (C/m^2)
          XX          YY          ZZ          XY          YZ          ZX
  --------------------------------------------------------------------------------
  x    -0.00013     0.00004     0.00009    -0.00000    -0.00006    -0.00000
  y    -0.00007     0.00006     0.00002    -0.00000    -0.00005     0.00000
  z     0.00006     0.00006    -0.00012    -0.00000    -0.00000     0.00000


--------------------------------------------------------------------------------------------------------


     LOOP+:  cpu time  566.1919: real time  566.7481
    4ORBIT:  cpu time    0.0000: real time    0.0000
 


 total charge     
 
# of ion     s       p       d       tot
----------------------------------------
  1        0.751   0.928   0.000   1.678
  2        0.751   0.928   0.000   1.678
------------------------------------------------
tot        1.502   1.855   0.000   3.357
 


 magnetization (x)
 
# of ion     s       p       d       tot
----------------------------------------
  1       -0.000  -0.000   0.000  -0.000
  2       -0.000  -0.000   0.000  -0.000
------------------------------------------------
tot       -0.000  -0.000   0.000  -0.000
 
 BZINTS: Fermi energy:  5.673849;  8.000000 electrons
         Band energy:   4.899348;  BLOECHL correction:  0.000000

 total amount of memory used by VASP on root node    37994. kBytes
========================================================================

   base      :      30000. kBytes
   nonlr-proj:        895. kBytes
   fftplans  :        702. kBytes
   grid      :       3862. kBytes
   one-center:         12. kBytes
   wavefun   :       2523. kBytes
 
  
  
 General timing and accounting informations for this job:
 ========================================================
  
                  Total CPU time used (sec):      569.225
                            User time (sec):      568.616
                          System time (sec):        0.610
                         Elapsed time (sec):      570.423
  
                   Maximum memory used (kb):      150796.
                   Average memory used (kb):           0.
  
                          Minor page faults:        71562
                          Major page faults:            0
                 Voluntary context switches:        17548
