PROCAR lm decomposed
# of k-points:   56         # of bands:  16         # of ions:   2

 k-point    1 :    0.00000000 0.00000000 0.00000000     weight = 0.00075131

band   1 # energy   -6.20006654 # occ.  1.00000000
 
ion      s     py     pz     px    dxy    dyz    dz2    dxz    dx2    tot
  1  0.212  0.000  0.000  0.000  0.000  0.000  0.000  0.000  0.000  0.212
  2  0.212  0.000  0.000  0.000  0.000  0.000  0.000  0.000  0.000  0.212
tot  0.424  0.000  0.000  0.000  0.000  0.000  0.000  0.000  0.000  0.424
 
band   2 # energy    5.61230989 # occ.  1.00000000
 
ion      s     py     pz     px    dxy    dyz    dz2    dxz    dx2    tot
  1  0.000  0.155  0.056  0.003  0.000  0.000  0.000  0.000  0.000  0.214
  2  0.000  0.155  0.056  0.003  0.000  0.000  0.000  0.000  0.000  0.214
tot  0.000  0.310  0.112  0.006  0.000  0.000  0.000  0.000  0.000  0.428
 
band   3 # energy    5.61231395 # occ.  1.00000000
 
ion      s     py     pz     px    dxy    dyz    dz2    dxz    dx2    tot
  1  0.000  0.058  0.154  0.002  0.000  0.000  0.000  0.000  0.000  0.214
  2  0.000  0.058  0.154  0.002  0.000  0.000  0.000  0.000  0.000  0.214
tot  0.000  0.116  0.308  0.003  0.000  0.000  0.000  0.000  0.000  0.428
 
band   4 # energy    5.61231445 # occ.  1.00000000
 
ion      s     py     pz     px    dxy    dyz    dz2    dxz    dx2    tot
  1  0.000  0.001  0.004  0.209  0.000  0.000  0.000  0.000  0.000  0.214
  2  0.000  0.001  0.004  0.209  0.000  0.000  0.000  0.000  0.000  0.214
tot  0.000  0.001  0.008  0.419  0.000  0.000  0.000  0.000  0.000  0.428
 
band   5 # energy    8.16911704 # occ.  0.00000000
 
ion      s     py     pz     px    dxy    dyz    dz2    dxz    dx2    tot
  1  0.000  0.009  0.025  0.117  0.000  0.000  0.000  0.000  0.000  0.151
  2  0.000  0.009  0.025  0.117  0.000  0.000  0.000  0.000  0.000  0.151
tot  0.000  0.018  0.049  0.235  0.000  0.000  0.000  0.000  0.000  0.301
 
band   6 # energy    8.16911884 # occ.  0.00000000
 
ion      s     py     pz     px    dxy    dyz    dz2    dxz    dx2    tot
  1  0.000  0.020  0.117  0.014  0.000  0.000  0.000  0.000  0.000  0.151
  2  0.000  0.020  0.117  0.014  0.000  0.000  0.000  0.000  0.000  0.151
tot  0.000  0.039  0.234  0.028  0.000  0.000  0.000  0.000  0.000  0.301
 
band   7 # energy    8.16912146 # occ.  0.00000000
 
ion      s     py     pz     px    dxy    dyz    dz2    dxz    dx2    tot
  1  0.000  0.122  0.009  0.019  0.000  0.000  0.000  0.000  0.000  0.151
  2  0.000  0.122  0.009  0.019  0.000  0.000  0.000  0.000  0.000  0.151
tot  0.000  0.244  0.018  0.039  0.000  0.000  0.000  0.000  0.000  0.301
 
band   8 # energy    8.74165490 # occ.  0.00000000
 
ion      s     py     pz     px    dxy    dyz    dz2    dxz    dx2    tot
  1  0.358  0.000  0.000  0.000  0.000  0.000  0.000  0.000  0.000  0.358
  2  0.358  0.000  0.000  0.000  0.000  0.000  0.000  0.000  0.000  0.358
tot  0.717  0.000  0.000  0.000  0.000  0.000  0.000  0.000  0.000  0.717
 
band   9 # energy   13.32135760 # occ.  0.00000000
 
ion      s     py     pz     px    dxy    dyz    dz2    dxz    dx2    tot
  1  0.000  0.000  0.000  0.000  0.000  0.000  0.000  0.000  0.000  0.000
  2  0.000  0.000  0.000  0.000  0.000  0.000  0.000  0.000  0.000  0.000
tot  0.000  0.000  0.000  0.000  0.000  0.000  0.000  0.000  0.000  0.000
 
band  10 # energy   13.32136834 # occ.  0.00000000
 
ion      s     py     pz     px    dxy    dyz    dz2    dxz    dx2    tot
  1  0.000  0.000  0.000  0.000  0.000  0.000  0.000  0.000  0.000  0.000
  2  0.000  0.000  0.000  0.000  0.000  0.000  0.000  0.000  0.000  0.000
tot  0.000  0.000  0.000  0.000  0.000  0.000  0.000  0.000  0.000  0.000
 
band  11 # energy   13.48850774 # occ.  0.00000000
 
ion      s     py     pz     px    dxy    dyz    dz2    dxz    dx2    tot
  1  0.100  0.000  0.000  0.000  0.000  0.000  0.000  0.000  0.000  0.100
  2  0.100  0.000  0.000  0.000  0.000  0.000  0.000  0.000  0.000  0.100
tot  0.201  0.000  0.000  0.000  0.000  0.000  0.000  0.000  0.000  0.201
 
band  12 # energy   16.79349472 # occ.  0.00000000
 
ion      s     py     pz     px    dxy    dyz    dz2    dxz    dx2    tot
  1  0.000  0.025  0.014  0.000  0.000  0.000  0.000  0.000  0.000  0.039
  2  0.000  0.025  0.014  0.000  0.000  0.000  0.000  0.000  0.000  0.039
tot  0.000  0.051  0.028  0.000  0.000  0.000  0.000  0.000  0.000  0.078
 
band  13 # energy   16.79351109 # occ.  0.00000000
 
ion      s     py     pz     px    dxy    dyz    dz2    dxz    dx2    tot
  1  0.000  0.000  0.000  0.039  0.000  0.000  0.000  0.000  0.000  0.039
  2  0.000  0.000  0.000  0.039  0.000  0.000  0.000  0.000  0.000  0.039
tot  0.000  0.000  0.000  0.078  0.000  0.000  0.000  0.000  0.000  0.078
 
band  14 # energy   16.79351164 # occ.  0.00000000
 
ion      s     py     pz     px    dxy    dyz    dz2    dxz    dx2    tot
  1  0.000  0.014  0.025  0.000  0.000  0.000  0.000  0.000  0.000  0.039
  2  0.000  0.014  0.025  0.000  0.000  0.000  0.000  0.000  0.000  0.039
tot  0.000  0.028  0.051  0.000  0.000  0.000  0.000  0.000  0.000  0.078
 
band  15 # energy   20.88405763 # occ.  0.00000000
 
ion      s     py     pz     px    dxy    dyz    dz2    dxz    dx2    tot
  1  0.037  0.000  0.000  0.000  0.000  0.000  0.000  0.000  0.000  0.037
  2  0.037  0.000  0.000  0.000  0.000  0.000  0.000  0.000  0.000  0.037
tot  0.075  0.000  0.000  0.000  0.000  0.000  0.000  0.000  0.000  0.075
 
band  16 # energy   28.46200219 # occ.  0.00000000
 
ion      s     py     pz     px    dxy    dyz    dz2    dxz    dx2    tot
  1  0.000  0.002  0.008  0.000  0.000  0.000  0.000  0.000  0.000  0.010
  2  0.000  0.002  0.008  0.000  0.000  0.000  0.000  0.000  0.000  0.010
tot  0.000  0.004  0.016  0.000  0.000  0.000  0.000  0.000  0.000  0.020
 

 k-point    2 :    0.09090909 0.00000000-0.00000000     weight = 0.00601052

band   1 # energy   -6.09376545 # occ.  1.00000000
 
ion      s     py     pz     px    dxy    dyz    dz2    dxz    dx2    tot
  1  0.211  0.000  0.000  0.001  0.000  0.000  0.000  0.000  0.000  0.213
  2  0.211  0.000  0.000  0.001  0.000  0.000  0.000  0.000  0.000  0.213
tot  0.423  0.001  0.000  0.002  0.000  0.000  0.000  0.000  0.000  0.425
 
band   2 # energy    4.62734026 # occ.  1.00000000
 
ion      s     py     pz     px    dxy    dyz    dz2    dxz    dx2    tot
  1  0.048  0.038  0.019  0.114  0.000  0.000  0.000  0.000  0.000  0.219
  2  0.048  0.038  0.019  0.114  0.000  0.000  0.000  0.000  0.000  0.219
tot  0.096  0.076  0.038  0.228  0.000  0.000  0.000  0.000  0.000  0.438
 
band   3 # energy    5.44849204 # occ.  1.00000000
 
ion      s     py     pz     px    dxy    dyz    dz2    dxz    dx2    tot
  1  0.000  0.106  0.036  0.070  0.000  0.000  0.000  0.000  0.000  0.212
  2  0.000  0.106  0.036  0.070  0.000  0.000  0.000  0.000  0.000  0.212
tot  0.000  0.211  0.072  0.140  0.000  0.000  0.000  0.000  0.000  0.424
 
band   4 # energy    5.44849533 # occ.  1.00000000
 
ion      s     py     pz     px    dxy    dyz    dz2    dxz    dx2    tot
  1  0.000  0.059  0.152  0.000  0.000  0.000  0.000  0.000  0.000  0.212
  2  0.000  0.059  0.152  0.000  0.000  0.000  0.000  0.000  0.000  0.212
tot  0.000  0.118  0.305  0.001  0.000  0.000  0.000  0.000  0.000  0.424
 
band   5 # energy    8.15825204 # occ.  0.00000000
 
ion      s     py     pz     px    dxy    dyz    dz2    dxz    dx2    tot
  1  0.084  0.024  0.012  0.071  0.000  0.000  0.000  0.000  0.000  0.189
  2  0.084  0.024  0.012  0.071  0.000  0.000  0.000  0.000  0.000  0.189
tot  0.167  0.047  0.024  0.141  0.000  0.000  0.000  0.000  0.000  0.379
 
band   6 # energy    8.41063577 # occ.  0.00000000
 
ion      s     py     pz     px    dxy    dyz    dz2    dxz    dx2    tot
  1  0.000  0.017  0.131  0.005  0.000  0.000  0.000  0.000  0.000  0.153
  2  0.000  0.017  0.131  0.005  0.000  0.000  0.000  0.000  0.000  0.153
tot  0.000  0.034  0.262  0.011  0.000  0.000  0.000  0.000  0.000  0.307
 
band   7 # energy    8.41063812 # occ.  0.00000000
 
ion      s     py     pz     px    dxy    dyz    dz2    dxz    dx2    tot
  1  0.000  0.102  0.005  0.046  0.000  0.000  0.000  0.000  0.000  0.153
  2  0.000  0.102  0.005  0.046  0.000  0.000  0.000  0.000  0.000  0.153
tot  0.000  0.205  0.010  0.092  0.000  0.000  0.000  0.000  0.000  0.307
 
band   8 # energy    9.56440950 # occ.  0.00000000
 
ion      s     py     pz     px    dxy    dyz    dz2    dxz    dx2    tot
  1  0.234  0.017  0.008  0.050  0.000  0.000  0.000  0.000  0.000  0.309
  2  0.234  0.017  0.008  0.050  0.000  0.000  0.000  0.000  0.000  0.309
tot  0.468  0.033  0.017  0.100  0.000  0.000  0.000  0.000  0.000  0.618
 
band   9 # energy   13.01860381 # occ.  0.00000000
 
ion      s     py     pz     px    dxy    dyz    dz2    dxz    dx2    tot
  1  0.000  0.001  0.000  0.000  0.000  0.000  0.000  0.000  0.000  0.001
  2  0.000  0.001  0.000  0.000  0.000  0.000  0.000  0.000  0.000  0.001
tot  0.000  0.001  0.001  0.001  0.000  0.000  0.000  0.000  0.000  0.002
 
band  10 # energy   13.01861318 # occ.  0.00000000
 
ion      s     py     pz     px    dxy    dyz    dz2    dxz    dx2    tot
  1  0.000  0.000  0.001  0.000  0.000  0.000  0.000  0.000  0.000  0.001
  2  0.000  0.000  0.001  0.000  0.000  0.000  0.000  0.000  0.000  0.001
tot  0.000  0.001  0.002  0.000  0.000  0.000  0.000  0.000  0.000  0.002
 
band  11 # energy   13.93383172 # occ.  0.00000000
 
ion      s     py     pz     px    dxy    dyz    dz2    dxz    dx2    tot
  1  0.088  0.004  0.002  0.012  0.000  0.000  0.000  0.000  0.000  0.106
  2  0.088  0.004  0.002  0.012  0.000  0.000  0.000  0.000  0.000  0.106
tot  0.175  0.008  0.004  0.025  0.000  0.000  0.000  0.000  0.000  0.213
 
band  12 # energy   16.42991529 # occ.  0.00000000
 
ion      s     py     pz     px    dxy    dyz    dz2    dxz    dx2    tot
  1  0.009  0.006  0.003  0.019  0.000  0.000  0.000  0.000  0.000  0.037
  2  0.009  0.006  0.003  0.019  0.000  0.000  0.000  0.000  0.000  0.037
tot  0.017  0.012  0.006  0.037  0.000  0.000  0.000  0.000  0.000  0.073
 
band  13 # energy   17.44639924 # occ.  0.00000000
 
ion      s     py     pz     px    dxy    dyz    dz2    dxz    dx2    tot
  1  0.000  0.016  0.009  0.012  0.000  0.000  0.000  0.000  0.000  0.036
  2  0.000  0.016  0.009  0.012  0.000  0.000  0.000  0.000  0.000  0.036
tot  0.000  0.031  0.017  0.024  0.000  0.000  0.000  0.000  0.000  0.073
 
band  14 # energy   17.44641091 # occ.  0.00000000
 
ion      s     py     pz     px    dxy    dyz    dz2    dxz    dx2    tot
  1  0.000  0.013  0.024  0.000  0.000  0.000  0.000  0.000  0.000  0.036
  2  0.000  0.013  0.024  0.000  0.000  0.000  0.000  0.000  0.000  0.036
tot  0.000  0.025  0.048  0.000  0.000  0.000  0.000  0.000  0.000  0.073
 
band  15 # energy   21.57970835 # occ.  0.00000000
 
ion      s     py     pz     px    dxy    dyz    dz2    dxz    dx2    tot
  1  0.029  0.002  0.001  0.006  0.000  0.000  0.000  0.000  0.000  0.039
  2  0.029  0.002  0.001  0.006  0.000  0.000  0.000  0.000  0.000  0.039
tot  0.059  0.004  0.002  0.013  0.000  0.000  0.000  0.000  0.000  0.078
 
band  16 # energy   27.30875222 # occ.  0.00000000
 
ion      s     py     pz     px    dxy    dyz    dz2    dxz    dx2    tot
  1  0.000  0.016  0.017  0.003  0.000  0.000  0.000  0.000  0.000  0.036
  2  0.000  0.018  0.016  0.002  0.000  0.000  0.000  0.000  0.000  0.036
tot  0.000  0.034  0.033  0.005  0.000  0.000  0.000  0.000  0.000  0.072
 

 k-point    3 :    0.18181818 0.00000000-0.00000000     weight = 0.00601052

band   1 # energy   -5.77906071 # occ.  1.00000000
 
ion      s     py     pz     px    dxy    dyz    dz2    dxz    dx2    tot
  1  0.210  0.001  0.000  0.003  0.000  0.000  0.000  0.000  0.000  0.214
  2  0.210  0.001  0.000  0.003  0.000  0.000  0.000  0.000  0.000  0.214
tot  0.420  0.002  0.001  0.006  0.000  0.000  0.000  0.000  0.000  0.429
 
band   2 # energy    2.96742586 # occ.  1.00000000
 
ion      s     py     pz     px    dxy    dyz    dz2    dxz    dx2    tot
  1  0.083  0.030  0.015  0.090  0.000  0.000  0.000  0.000  0.000  0.218
  2  0.083  0.030  0.015  0.090  0.000  0.000  0.000  0.000  0.000  0.218
tot  0.166  0.060  0.030  0.180  0.000  0.000  0.000  0.000  0.000  0.436
 
band   3 # energy    5.11370319 # occ.  1.00000000
 
ion      s     py     pz     px    dxy    dyz    dz2    dxz    dx2    tot
  1  0.000  0.103  0.037  0.070  0.000  0.000  0.000  0.000  0.000  0.210
  2  0.000  0.103  0.037  0.070  0.000  0.000  0.000  0.000  0.000  0.210
tot  0.000  0.207  0.075  0.140  0.000  0.000  0.000  0.000  0.000  0.421
 
band   4 # energy    5.11370716 # occ.  1.00000000
 
ion      s     py     pz     px    dxy    dyz    dz2    dxz    dx2    tot
  1  0.000  0.060  0.150  0.000  0.000  0.000  0.000  0.000  0.000  0.210
  2  0.000  0.060  0.150  0.000  0.000  0.000  0.000  0.000  0.000  0.210
tot  0.000  0.121  0.300  0.001  0.000  0.000  0.000  0.000  0.000  0.421
 
band   5 # energy    7.83638094 # occ.  0.00000000
 
ion      s     py     pz     px    dxy    dyz    dz2    dxz    dx2    tot
  1  0.136  0.015  0.007  0.045  0.000  0.000  0.000  0.000  0.000  0.203
  2  0.136  0.015  0.007  0.045  0.000  0.000  0.000  0.000  0.000  0.203
tot  0.272  0.030  0.015  0.090  0.000  0.000  0.000  0.000  0.000  0.406
 
band   6 # energy    8.87766759 # occ.  0.00000000
 
ion      s     py     pz     px    dxy    dyz    dz2    dxz    dx2    tot
  1  0.000  0.004  0.135  0.013  0.000  0.000  0.000  0.000  0.000  0.152
  2  0.000  0.004  0.135  0.013  0.000  0.000  0.000  0.000  0.000  0.152
tot  0.000  0.008  0.270  0.025  0.000  0.000  0.000  0.000  0.000  0.304
 
band   7 # energy    8.87766932 # occ.  0.00000000
 
ion      s     py     pz     px    dxy    dyz    dz2    dxz    dx2    tot
  1  0.000  0.114  0.000  0.038  0.000  0.000  0.000  0.000  0.000  0.152
  2  0.000  0.114  0.000  0.038  0.000  0.000  0.000  0.000  0.000  0.152
tot  0.000  0.228  0.000  0.076  0.000  0.000  0.000  0.000  0.000  0.304
 
band   8 # energy   11.16097083 # occ.  0.00000000
 
ion      s     py     pz     px    dxy    dyz    dz2    dxz    dx2    tot
  1  0.155  0.028  0.014  0.084  0.000  0.000  0.000  0.000  0.000  0.281
  2  0.155  0.028  0.014  0.084  0.000  0.000  0.000  0.000  0.000  0.281
tot  0.310  0.056  0.028  0.168  0.000  0.000  0.000  0.000  0.000  0.561
 
band   9 # energy   12.66969339 # occ.  0.00000000
 
ion      s     py     pz     px    dxy    dyz    dz2    dxz    dx2    tot
  1  0.000  0.002  0.001  0.002  0.000  0.000  0.000  0.000  0.000  0.005
  2  0.000  0.002  0.001  0.002  0.000  0.000  0.000  0.000  0.000  0.005
tot  0.000  0.004  0.002  0.003  0.000  0.000  0.000  0.000  0.000  0.009
 
band  10 # energy   12.66969943 # occ.  0.00000000
 
ion      s     py     pz     px    dxy    dyz    dz2    dxz    dx2    tot
  1  0.000  0.002  0.003  0.000  0.000  0.000  0.000  0.000  0.000  0.005
  2  0.000  0.002  0.003  0.000  0.000  0.000  0.000  0.000  0.000  0.005
tot  0.000  0.003  0.006  0.000  0.000  0.000  0.000  0.000  0.000  0.009
 
band  11 # energy   14.67263978 # occ.  0.00000000
 
ion      s     py     pz     px    dxy    dyz    dz2    dxz    dx2    tot
  1  0.053  0.009  0.005  0.028  0.000  0.000  0.000  0.000  0.000  0.095
  2  0.053  0.009  0.005  0.028  0.000  0.000  0.000  0.000  0.000  0.095
tot  0.106  0.019  0.009  0.056  0.000  0.000  0.000  0.000  0.000  0.190
 
band  12 # energy   16.27963189 # occ.  0.00000000
 
ion      s     py     pz     px    dxy    dyz    dz2    dxz    dx2    tot
  1  0.033  0.006  0.003  0.019  0.000  0.000  0.000  0.000  0.000  0.061
  2  0.033  0.006  0.003  0.019  0.000  0.000  0.000  0.000  0.000  0.061
tot  0.066  0.012  0.006  0.037  0.000  0.000  0.000  0.000  0.000  0.121
 
band  13 # energy   18.91287555 # occ.  0.00000000
 
ion      s     py     pz     px    dxy    dyz    dz2    dxz    dx2    tot
  1  0.000  0.015  0.008  0.011  0.000  0.000  0.000  0.000  0.000  0.034
  2  0.000  0.015  0.008  0.011  0.000  0.000  0.000  0.000  0.000  0.034
tot  0.000  0.030  0.015  0.022  0.000  0.000  0.000  0.000  0.000  0.067
 
band  14 # energy   18.91288818 # occ.  0.00000000
 
ion      s     py     pz     px    dxy    dyz    dz2    dxz    dx2    tot
  1  0.000  0.011  0.022  0.000  0.000  0.000  0.000  0.000  0.000  0.034
  2  0.000  0.011  0.022  0.000  0.000  0.000  0.000  0.000  0.000  0.034
tot  0.000  0.023  0.045  0.000  0.000  0.000  0.000  0.000  0.000  0.067
 
band  15 # energy   23.05674128 # occ.  0.00000000
 
ion      s     py     pz     px    dxy    dyz    dz2    dxz    dx2    tot
  1  0.017  0.007  0.003  0.021  0.000  0.000  0.000  0.000  0.000  0.048
  2  0.017  0.007  0.003  0.021  0.000  0.000  0.000  0.000  0.000  0.048
tot  0.033  0.014  0.007  0.042  0.000  0.000  0.000  0.000  0.000  0.096
 
band  16 # energy   24.94464721 # occ.  0.00000000
 
ion      s     py     pz     px    dxy    dyz    dz2    dxz    dx2    tot
  1  0.000  0.013  0.022  0.013  0.000  0.000  0.000  0.000  0.000  0.048
  2  0.000  0.013  0.022  0.013  0.000  0.000  0.000  0.000  0.000  0.048
tot  0.000  0.026  0.043  0.027  0.000  0.000  0.000  0.000  0.000  0.096
 

 k-point    4 :    0.27272727 0.00000000 0.00000000     weight = 0.00601052

band   1 # energy   -5.27261182 # occ.  1.00000000
 
ion      s     py     pz     px    dxy    dyz    dz2    dxz    dx2    tot
  1  0.209  0.002  0.001  0.006  0.000  0.000  0.000  0.000  0.000  0.218
  2  0.209  0.002  0.001  0.006  0.000  0.000  0.000  0.000  0.000  0.218
tot  0.418  0.004  0.002  0.012  0.000  0.000  0.000  0.000  0.000  0.436
 
band   2 # energy    1.33117688 # occ.  1.00000000
 
ion      s     py     pz     px    dxy    dyz    dz2    dxz    dx2    tot
  1  0.100  0.025  0.012  0.075  0.000  0.000  0.000  0.000  0.000  0.213
  2  0.100  0.025  0.012  0.075  0.000  0.000  0.000  0.000  0.000  0.213
tot  0.201  0.050  0.025  0.150  0.000  0.000  0.000  0.000  0.000  0.425
 
band   3 # energy    4.79468624 # occ.  1.00000000
 
ion      s     py     pz     px    dxy    dyz    dz2    dxz    dx2    tot
  1  0.000  0.103  0.038  0.070  0.000  0.000  0.000  0.000  0.000  0.212
  2  0.000  0.103  0.038  0.070  0.000  0.000  0.000  0.000  0.000  0.212
tot  0.000  0.207  0.076  0.141  0.000  0.000  0.000  0.000  0.000  0.423
 
band   4 # energy    4.79469100 # occ.  1.00000000
 
ion      s     py     pz     px    dxy    dyz    dz2    dxz    dx2    tot
  1  0.000  0.061  0.150  0.000  0.000  0.000  0.000  0.000  0.000  0.212
  2  0.000  0.061  0.150  0.000  0.000  0.000  0.000  0.000  0.000  0.212
tot  0.000  0.122  0.300  0.000  0.000  0.000  0.000  0.000  0.000  0.423
 
band   5 # energy    7.48938081 # occ.  0.00000000
 
ion      s     py     pz     px    dxy    dyz    dz2    dxz    dx2    tot
  1  0.161  0.010  0.005  0.029  0.000  0.000  0.000  0.000  0.000  0.205
  2  0.161  0.010  0.005  0.029  0.000  0.000  0.000  0.000  0.000  0.205
tot  0.322  0.019  0.010  0.058  0.000  0.000  0.000  0.000  0.000  0.409
 
band   6 # energy    9.13063085 # occ.  0.00000000
 
ion      s     py     pz     px    dxy    dyz    dz2    dxz    dx2    tot
  1  0.000  0.020  0.074  0.038  0.000  0.000  0.000  0.000  0.000  0.132
  2  0.000  0.020  0.074  0.038  0.000  0.000  0.000  0.000  0.000  0.132
tot  0.000  0.041  0.149  0.075  0.000  0.000  0.000  0.000  0.000  0.265
 
band   7 # energy    9.13063304 # occ.  0.00000000
 
ion      s     py     pz     px    dxy    dyz    dz2    dxz    dx2    tot
  1  0.000  0.083  0.043  0.007  0.000  0.000  0.000  0.000  0.000  0.132
  2  0.000  0.083  0.043  0.007  0.000  0.000  0.000  0.000  0.000  0.132
tot  0.000  0.165  0.087  0.013  0.000  0.000  0.000  0.000  0.000  0.265
 
band   8 # energy   12.72858523 # occ.  0.00000000
 
ion      s     py     pz     px    dxy    dyz    dz2    dxz    dx2    tot
  1  0.092  0.035  0.018  0.105  0.000  0.000  0.000  0.000  0.000  0.250
  2  0.092  0.035  0.018  0.105  0.000  0.000  0.000  0.000  0.000  0.250
tot  0.184  0.070  0.035  0.211  0.000  0.000  0.000  0.000  0.000  0.500
 
band   9 # energy   12.94566896 # occ.  0.00000000
 
ion      s     py     pz     px    dxy    dyz    dz2    dxz    dx2    tot
  1  0.000  0.006  0.009  0.007  0.000  0.000  0.000  0.000  0.000  0.021
  2  0.000  0.006  0.009  0.007  0.000  0.000  0.000  0.000  0.000  0.021
tot  0.000  0.011  0.018  0.013  0.000  0.000  0.000  0.000  0.000  0.043
 
band  10 # energy   12.94567025 # occ.  0.00000000
 
ion      s     py     pz     px    dxy    dyz    dz2    dxz    dx2    tot
  1  0.000  0.011  0.010  0.000  0.000  0.000  0.000  0.000  0.000  0.021
  2  0.000  0.011  0.010  0.000  0.000  0.000  0.000  0.000  0.000  0.021
tot  0.000  0.022  0.020  0.001  0.000  0.000  0.000  0.000  0.000  0.043
 
band  11 # energy   14.46539504 # occ.  0.00000000
 
ion      s     py     pz     px    dxy    dyz    dz2    dxz    dx2    tot
  1  0.056  0.004  0.002  0.011  0.000  0.000  0.000  0.000  0.000  0.072
  2  0.056  0.004  0.002  0.011  0.000  0.000  0.000  0.000  0.000  0.072
tot  0.112  0.007  0.004  0.021  0.000  0.000  0.000  0.000  0.000  0.144
 
band  12 # energy   17.79468663 # occ.  0.00000000
 
ion      s     py     pz     px    dxy    dyz    dz2    dxz    dx2    tot
  1  0.032  0.020  0.010  0.060  0.000  0.000  0.000  0.000  0.000  0.123
  2  0.032  0.020  0.010  0.060  0.000  0.000  0.000  0.000  0.000  0.123
tot  0.065  0.040  0.020  0.120  0.000  0.000  0.000  0.000  0.000  0.245
 
band  13 # energy   20.41082458 # occ.  0.00000000
 
ion      s     py     pz     px    dxy    dyz    dz2    dxz    dx2    tot
  1  0.000  0.017  0.009  0.013  0.000  0.000  0.000  0.000  0.000  0.039
  2  0.000  0.017  0.009  0.013  0.000  0.000  0.000  0.000  0.000  0.039
tot  0.000  0.034  0.018  0.026  0.000  0.000  0.000  0.000  0.000  0.078
 
band  14 # energy   20.41083235 # occ.  0.00000000
 
ion      s     py     pz     px    dxy    dyz    dz2    dxz    dx2    tot
  1  0.000  0.013  0.026  0.000  0.000  0.000  0.000  0.000  0.000  0.039
  2  0.000  0.013  0.026  0.000  0.000  0.000  0.000  0.000  0.000  0.039
tot  0.000  0.026  0.051  0.000  0.000  0.000  0.000  0.000  0.000  0.078
 
band  15 # energy   22.90704137 # occ.  0.00000000
 
ion      s     py     pz     px    dxy    dyz    dz2    dxz    dx2    tot
  1  0.000  0.001  0.041  0.004  0.000  0.000  0.000  0.000  0.000  0.047
  2  0.000  0.001  0.041  0.004  0.000  0.000  0.000  0.000  0.000  0.047
tot  0.000  0.003  0.082  0.009  0.000  0.000  0.000  0.000  0.000  0.093
 
band  16 # energy   22.90704926 # occ.  0.00000000
 
ion      s     py     pz     px    dxy    dyz    dz2    dxz    dx2    tot
  1  0.000  0.035  0.000  0.011  0.000  0.000  0.000  0.000  0.000  0.047
  2  0.000  0.035  0.000  0.011  0.000  0.000  0.000  0.000  0.000  0.047
tot  0.000  0.070  0.001  0.022  0.000  0.000  0.000  0.000  0.000  0.093
 

 k-point    5 :    0.36363636 0.00000000-0.00000000     weight = 0.00601052

band   1 # energy   -4.62570307 # occ.  1.00000000
 
ion      s     py     pz     px    dxy    dyz    dz2    dxz    dx2    tot
  1  0.211  0.003  0.001  0.009  0.000  0.000  0.000  0.000  0.000  0.225
  2  0.211  0.003  0.001  0.009  0.000  0.000  0.000  0.000  0.000  0.225
tot  0.422  0.006  0.003  0.018  0.000  0.000  0.000  0.000  0.000  0.449
 
band   2 # energy   -0.10100693 # occ.  1.00000000
 
ion      s     py     pz     px    dxy    dyz    dz2    dxz    dx2    tot
  1  0.108  0.022  0.011  0.065  0.000  0.000  0.000  0.000  0.000  0.205
  2  0.108  0.022  0.011  0.065  0.000  0.000  0.000  0.000  0.000  0.205
tot  0.215  0.043  0.022  0.130  0.000  0.000  0.000  0.000  0.000  0.410
 
band   3 # energy    4.56582551 # occ.  1.00000000
 
ion      s     py     pz     px    dxy    dyz    dz2    dxz    dx2    tot
  1  0.000  0.104  0.038  0.071  0.000  0.000  0.000  0.000  0.000  0.214
  2  0.000  0.104  0.038  0.071  0.000  0.000  0.000  0.000  0.000  0.214
tot  0.000  0.209  0.077  0.142  0.000  0.000  0.000  0.000  0.000  0.427
 
band   4 # energy    4.56583095 # occ.  1.00000000
 
ion      s     py     pz     px    dxy    dyz    dz2    dxz    dx2    tot
  1  0.000  0.062  0.152  0.000  0.000  0.000  0.000  0.000  0.000  0.214
  2  0.000  0.062  0.152  0.000  0.000  0.000  0.000  0.000  0.000  0.214
tot  0.000  0.124  0.303  0.000  0.000  0.000  0.000  0.000  0.000  0.427
 
band   5 # energy    7.22984912 # occ.  0.00000000
 
ion      s     py     pz     px    dxy    dyz    dz2    dxz    dx2    tot
  1  0.176  0.006  0.003  0.019  0.000  0.000  0.000  0.000  0.000  0.205
  2  0.176  0.006  0.003  0.019  0.000  0.000  0.000  0.000  0.000  0.205
tot  0.353  0.013  0.006  0.038  0.000  0.000  0.000  0.000  0.000  0.410
 
band   6 # energy    9.08040862 # occ.  0.00000000
 
ion      s     py     pz     px    dxy    dyz    dz2    dxz    dx2    tot
  1  0.000  0.029  0.045  0.034  0.000  0.000  0.000  0.000  0.000  0.108
  2  0.000  0.029  0.045  0.034  0.000  0.000  0.000  0.000  0.000  0.108
tot  0.000  0.059  0.089  0.069  0.000  0.000  0.000  0.000  0.000  0.217
 
band   7 # energy    9.08041226 # occ.  0.00000000
 
ion      s     py     pz     px    dxy    dyz    dz2    dxz    dx2    tot
  1  0.000  0.055  0.052  0.002  0.000  0.000  0.000  0.000  0.000  0.108
  2  0.000  0.055  0.052  0.002  0.000  0.000  0.000  0.000  0.000  0.108
tot  0.000  0.110  0.104  0.004  0.000  0.000  0.000  0.000  0.000  0.217
 
band   8 # energy   13.45466151 # occ.  0.00000000
 
ion      s     py     pz     px    dxy    dyz    dz2    dxz    dx2    tot
  1  0.006  0.022  0.011  0.065  0.000  0.000  0.000  0.000  0.000  0.103
  2  0.006  0.022  0.011  0.065  0.000  0.000  0.000  0.000  0.000  0.103
tot  0.011  0.043  0.022  0.130  0.000  0.000  0.000  0.000  0.000  0.206
 
band   9 # energy   13.98108052 # occ.  0.00000000
 
ion      s     py     pz     px    dxy    dyz    dz2    dxz    dx2    tot
  1  0.000  0.009  0.030  0.000  0.000  0.000  0.000  0.000  0.000  0.039
  2  0.000  0.009  0.030  0.000  0.000  0.000  0.000  0.000  0.000  0.039
tot  0.000  0.018  0.060  0.000  0.000  0.000  0.000  0.000  0.000  0.078
 
band  10 # energy   13.98108356 # occ.  0.00000000
 
ion      s     py     pz     px    dxy    dyz    dz2    dxz    dx2    tot
  1  0.000  0.021  0.005  0.013  0.000  0.000  0.000  0.000  0.000  0.039
  2  0.000  0.021  0.005  0.013  0.000  0.000  0.000  0.000  0.000  0.039
tot  0.000  0.043  0.010  0.026  0.000  0.000  0.000  0.000  0.000  0.078
 
band  11 # energy   14.95271451 # occ.  0.00000000
 
ion      s     py     pz     px    dxy    dyz    dz2    dxz    dx2    tot
  1  0.104  0.020  0.010  0.059  0.000  0.000  0.000  0.000  0.000  0.193
  2  0.104  0.020  0.010  0.059  0.000  0.000  0.000  0.000  0.000  0.193
tot  0.207  0.040  0.020  0.119  0.000  0.000  0.000  0.000  0.000  0.386
 
band  12 # energy   19.42246097 # occ.  0.00000000
 
ion      s     py     pz     px    dxy    dyz    dz2    dxz    dx2    tot
  1  0.013  0.046  0.023  0.138  0.000  0.000  0.000  0.000  0.000  0.220
  2  0.013  0.046  0.023  0.138  0.000  0.000  0.000  0.000  0.000  0.220
tot  0.026  0.092  0.046  0.276  0.000  0.000  0.000  0.000  0.000  0.440
 
band  13 # energy   19.47559794 # occ.  0.00000000
 
ion      s     py     pz     px    dxy    dyz    dz2    dxz    dx2    tot
  1  0.000  0.017  0.045  0.000  0.000  0.000  0.000  0.000  0.000  0.062
  2  0.000  0.017  0.045  0.000  0.000  0.000  0.000  0.000  0.000  0.062
tot  0.000  0.034  0.089  0.000  0.000  0.000  0.000  0.000  0.000  0.123
 
band  14 # energy   19.47560523 # occ.  0.00000000
 
ion      s     py     pz     px    dxy    dyz    dz2    dxz    dx2    tot
  1  0.000  0.031  0.010  0.020  0.000  0.000  0.000  0.000  0.000  0.062
  2  0.000  0.031  0.010  0.020  0.000  0.000  0.000  0.000  0.000  0.062
tot  0.000  0.062  0.020  0.041  0.000  0.000  0.000  0.000  0.000  0.123
 
band  15 # energy   22.02726840 # occ.  0.00000000
 
ion      s     py     pz     px    dxy    dyz    dz2    dxz    dx2    tot
  1  0.067  0.004  0.002  0.013  0.000  0.000  0.000  0.000  0.000  0.086
  2  0.067  0.004  0.002  0.013  0.000  0.000  0.000  0.000  0.000  0.086
tot  0.135  0.008  0.004  0.025  0.000  0.000  0.000  0.000  0.000  0.173
 
band  16 # energy   23.72384316 # occ.  0.00000000
 
ion      s     py     pz     px    dxy    dyz    dz2    dxz    dx2    tot
  1  0.000  0.006  0.020  0.003  0.000  0.000  0.000  0.000  0.000  0.028
  2  0.000  0.006  0.020  0.003  0.000  0.000  0.000  0.000  0.000  0.028
tot  0.000  0.011  0.039  0.006  0.000  0.000  0.000  0.000  0.000  0.056
 

 k-point    6 :    0.45454545 0.00000000 0.00000000     weight = 0.00601052

band   1 # energy   -4.03060580 # occ.  1.00000000
 
ion      s     py     pz     px    dxy    dyz    dz2    dxz    dx2    tot
  1  0.220  0.003  0.002  0.009  0.000  0.000  0.000  0.000  0.000  0.234
  2  0.220  0.003  0.002  0.009  0.000  0.000  0.000  0.000  0.000  0.234
tot  0.441  0.006  0.003  0.019  0.000  0.000  0.000  0.000  0.000  0.468
 
band   2 # energy   -1.09598223 # occ.  1.00000000
 
ion      s     py     pz     px    dxy    dyz    dz2    dxz    dx2    tot
  1  0.102  0.020  0.010  0.061  0.000  0.000  0.000  0.000  0.000  0.194
  2  0.102  0.020  0.010  0.061  0.000  0.000  0.000  0.000  0.000  0.194
tot  0.205  0.041  0.020  0.123  0.000  0.000  0.000  0.000  0.000  0.389
 
band   3 # energy    4.44896987 # occ.  1.00000000
 
ion      s     py     pz     px    dxy    dyz    dz2    dxz    dx2    tot
  1  0.000  0.105  0.039  0.071  0.000  0.000  0.000  0.000  0.000  0.215
  2  0.000  0.105  0.039  0.071  0.000  0.000  0.000  0.000  0.000  0.215
tot  0.000  0.210  0.077  0.143  0.000  0.000  0.000  0.000  0.000  0.430
 
band   4 # energy    4.44897570 # occ.  1.00000000
 
ion      s     py     pz     px    dxy    dyz    dz2    dxz    dx2    tot
  1  0.000  0.062  0.153  0.000  0.000  0.000  0.000  0.000  0.000  0.215
  2  0.000  0.062  0.153  0.000  0.000  0.000  0.000  0.000  0.000  0.215